
                                 *****************
                                 * O   R   C   A *
                                 *****************

           --- An Ab Initio, DFT and Semiempirical electronic structure package ---

                  #######################################################
                  #                        -***-                        #
                  #          Department of theory and spectroscopy      #
                  #               Directorship: Frank Neese             #
                  #        Max Planck Institute fuer Kohlenforschung    #
                  #                Kaiser Wilhelm Platz 1               #
                  #                 D-45470 Muelheim/Ruhr               #
                  #                      Germany                        #
                  #                                                     #
                  #                  All rights reserved                #
                  #                        -***-                        #
                  #######################################################


                         Program Version 4.1.2  - RELEASE  -


 With contributions from (in alphabetic order):
   Daniel Aravena         : Magnetic Properties
   Michael Atanasov       : Ab Initio Ligand Field Theory
   Alexander A. Auer      : GIAO ZORA
   Ute Becker             : Parallelization
   Giovanni Bistoni       : ED, Open-shell LED
   Martin Brehm           : Molecular dynamics
   Dmytro Bykov           : SCF Hessian
   Vijay G. Chilkuri      : MRCI spin determinant printing
   Dipayan Datta          : RHF DLPNO-CCSD density
   Achintya Kumar Dutta   : EOM-CC, STEOM-CC
   Dmitry Ganyushin       : Spin-Orbit,Spin-Spin,Magnetic field MRCI
   Miquel Garcia          : C-PCM Hessian
   Yang Guo               : DLPNO-NEVPT2, CIM, IAO-localization
   Andreas Hansen         : Spin unrestricted coupled pair/coupled cluster methods
   Benjamin Helmich-Paris : CASSCF linear response (MC-RPA)
   Lee Huntington         : MR-EOM, pCC
   Robert Izsak           : Overlap fitted RIJCOSX, COSX-SCS-MP3, EOM
   Christian Kollmar      : KDIIS, OOCD, Brueckner-CCSD(T), CCSD density
   Simone Kossmann        : Meta GGA functionals, TD-DFT gradient, OOMP2, MP2 Hessian
   Martin Krupicka        : AUTO-CI
   Lucas Lang             : DCDCAS
   Dagmar Lenk            : GEPOL surface, SMD
   Dimitrios Liakos       : Extrapolation schemes; parallel MDCI
   Dimitrios Manganas     : ROCIS; embedding schemes
   Dimitrios Pantazis     : SARC Basis sets
   Taras Petrenko         : DFT Hessian,TD-DFT gradient, ASA, ECA, R-Raman, ABS, FL, XAS/XES, NRVS
   Peter Pinski           : DLPNO-MP2, DLPNO-MP2 Gradient
   Christoph Reimann      : Effective Core Potentials
   Marius Retegan         : Local ZFS, SOC
   Christoph Riplinger    : Optimizer, TS searches, QM/MM, DLPNO-CCSD(T), (RO)-DLPNO pert. Triples
   Tobias Risthaus        : Range-separated hybrids, TD-DFT gradient, RPA, STAB
   Michael Roemelt        : Restricted open shell CIS
   Masaaki Saitow         : Open-shell DLPNO
   Barbara Sandhoefer     : DKH picture change effects
   Avijit Sen             : IP-ROCIS
   Kantharuban Sivalingam : CASSCF convergence, NEVPT2, FIC-MRCI
   Bernardo de Souza      : ESD, SOC TD-DFT
   Georgi Stoychev        : AutoAux, RI-MP2 NMR
   Willem Van den Heuvel  : Paramagnetic NMR
   Boris Wezisla          : Elementary symmetry handling
   Frank Wennmohs         : Technical directorship


 We gratefully acknowledge several colleagues who have allowed us to
 interface, adapt or use parts of their codes:
   Stefan Grimme, W. Hujo, H. Kruse,             : VdW corrections, initial TS optimization,
                  C. Bannwarth                     DFT functionals, gCP, sTDA/sTD-DF
   Ed Valeev                                     : LibInt (2-el integral package), F12 methods
   Garnet Chan, S. Sharma, J. Yang, R. Olivares  : DMRG
   Ulf Ekstrom                                   : XCFun DFT Library
   Mihaly Kallay                                 : mrcc  (arbitrary order and MRCC methods)
   Andreas Klamt, Michael Diedenhofen            : otool_cosmo (COSMO solvation model)
   Jiri Pittner, Ondrej Demel                    : Mk-CCSD
   Frank Weinhold                                : gennbo (NPA and NBO analysis)
   Christopher J. Cramer and Donald G. Truhlar   : smd solvation model
   Lars Goerigk                                  : TD-DFT with DH, B97 family of functionals
   V. Asgeirsson, H. Jonsson                     : NEB implementation
   FAccTs GmbH                                   : IRC, NEB, NEB-TS, Multilevel


 Your calculation uses the libint2 library for the computation of 2-el integrals
 For citations please refer to: http://libint.valeyev.net

 This ORCA versions uses:
   CBLAS   interface :  Fast vector & matrix operations
   LAPACKE interface :  Fast linear algebra routines
   SCALAPACK package :  Parallel linear algebra routines


----- Orbital basis set information -----
Your calculation utilizes the basis: aug-pc-4
   H, C-F              : F. Jensen, J. Chem. Phys. 115, 9113 (2001).
                         F. Jensen, J. Chem. Phys. 116, 7372 (2002).
                         F. Jensen, J. Chem. Phys. 117, 9234 (2002).
   Si-Cl               : F. Jensen, T. Helgaker, J. Chem. Phys. 121, 3463 (2004).
   He-B, Ne-Mg, Al, Ar : F. Jensen, J. Phys. Chem. A 111, 11198 (2007).
   K, Ca, Ga-Kr        : F. Jensen, J. Chem. Phys. 136, 094110 (2012).
   Sc-Zn               : F. Jensen, J. Chem. Phys. 138, 014107 (2013).

================================================================================
                                        WARNINGS
                       Please study these warnings very carefully!
================================================================================


INFO   : the flag for use of LIBINT has been found!

================================================================================
                                       INPUT FILE
================================================================================
NAME = alf_pbe.inp
|  1> !uks pbe nori aug-pc-4 grid5 nofinalgrid verytightscf
|  2> 
|  3> %maxcore 1500
|  4> 
|  5> %pal nprocs 4 end
|  6> 
|  7> %scf
|  8> 	maxiter 200
|  9> end
| 10> %elprop
| 11> 	dipole true
| 12> 	 polar 1
| 13> 	 maxiter 200
| 14> end
| 15> 
| 16> * xyz 0 1
| 17> Al 0.0000 0.0000 0.0000
| 18> F 0.0000 0.0000 1.6544
| 19> *
| 20> 
| 21>                          ****END OF INPUT****
================================================================================

                       ****************************
                       * Single Point Calculation *
                       ****************************

---------------------------------
CARTESIAN COORDINATES (ANGSTROEM)
---------------------------------
  Al     0.000000    0.000000    0.000000
  F      0.000000    0.000000    1.654400

----------------------------
CARTESIAN COORDINATES (A.U.)
----------------------------
  NO LB      ZA    FRAG     MASS         X           Y           Z
   0 Al   13.0000    0    26.982    0.000000    0.000000    0.000000
   1 F     9.0000    0    18.998    0.000000    0.000000    3.126363

--------------------------------
INTERNAL COORDINATES (ANGSTROEM)
--------------------------------
 Al     0   0   0     0.000000000000     0.00000000     0.00000000
 F      1   0   0     1.654400000000     0.00000000     0.00000000

---------------------------
INTERNAL COORDINATES (A.U.)
---------------------------
 Al     0   0   0     0.000000000000     0.00000000     0.00000000
 F      1   0   0     3.126362915959     0.00000000     0.00000000

---------------------
BASIS SET INFORMATION
---------------------
There are 2 groups of distinct atoms

 Group   1 Type Al  : 44s26p7d4f3g2h contracted to 8s7p7d4f3g2h pattern {15111311111/111011111/1111111/1111/111/11}
 Group   2 Type F   : 27s12p7d4f3g2h contracted to 9s8p7d4f3g2h pattern {1191111111/51111111/1111111/1111/111/11}

Atom   0Al   basis set group =>   1
Atom   1F    basis set group =>   2


           ************************************************************
           *        Program running with 4 parallel MPI-processes     *
           *              working on a common directory               *
           ************************************************************
------------------------------------------------------------------------------
                           ORCA GTO INTEGRAL CALCULATION
------------------------------------------------------------------------------

                         BASIS SET STATISTICS AND STARTUP INFO

 # of primitive gaussian shells          ...  141
 # of primitive gaussian functions       ...  409
 # of contracted shells                  ...   64
 # of contracted basis functions         ...  286
 Highest angular momentum                ...    5
 Maximum contraction depth               ...   15
 Integral package used                   ... LIBINT
 Integral threshhold            Thresh   ...  1.000e-12
 Primitive cut-off              TCut     ...  1.000e-14


------------------------------ INTEGRAL EVALUATION ----------------------------


 * One electron integrals 
 Pre-screening matrix                    ... done
 Shell pair data                         ... done (   0.001 sec)



           ************************************************************
           *        Program running with 4 parallel MPI-processes     *
           *              working on a common directory               *
           ************************************************************
-------------------------------------------------------------------------------
                                 ORCA SCF
-------------------------------------------------------------------------------

------------
SCF SETTINGS
------------
Hamiltonian:
 Density Functional     Method          .... DFT(GTOs)
 Exchange Functional    Exchange        .... PBE
   PBE kappa parameter   XKappa         ....  0.804000
   PBE mue parameter    XMuePBE         ....  0.219520
 Correlation Functional Correlation     .... PBE
   PBE beta parameter  CBetaPBE         ....  0.066725
 LDA part of GGA corr.  LDAOpt          .... PW91-LDA
 Gradients option       PostSCFGGA      .... off
   Density functional embedding theory  .... OFF
   NL short-range parameter             ....  6.400000


General Settings:
 Integral files         IntName         .... alf_pbe
 Hartree-Fock type      HFTyp           .... UHF
 Total Charge           Charge          ....    0
 Multiplicity           Mult            ....    1
 Number of Electrons    NEL             ....   22
 Basis Dimension        Dim             ....  286
 Nuclear Repulsion      ENuc            ....     37.4236782949 Eh

Convergence Acceleration:
 DIIS                   CNVDIIS         .... on
   Start iteration      DIISMaxIt       ....    12
   Startup error        DIISStart       ....  0.200000
   # of expansion vecs  DIISMaxEq       ....     5
   Bias factor          DIISBfac        ....   1.050
   Max. coefficient     DIISMaxC        ....  10.000
 Newton-Raphson         CNVNR           .... off
 SOSCF                  CNVSOSCF        .... off
 Level Shifting         CNVShift        .... on
   Level shift para.    LevelShift      ....    0.2500
   Turn off err/grad.   ShiftErr        ....    0.0010
 Zerner damping         CNVZerner       .... off
 Static damping         CNVDamp         .... on
   Fraction old density DampFac         ....    0.7000
   Max. Damping (<1)    DampMax         ....    0.9800
   Min. Damping (>=0)   DampMin         ....    0.0000
   Turn off err/grad.   DampErr         ....    0.1000
 Fernandez-Rico         CNVRico         .... off

SCF Procedure:
 Maximum # iterations   MaxIter         ....   200
 SCF integral mode      SCFMode         .... Direct
   Integral package                     .... LIBINT
 Reset frequency        DirectResetFreq ....    20
 Integral Threshold     Thresh          ....  1.000e-12 Eh
 Primitive CutOff       TCut            ....  1.000e-14 Eh

Convergence Tolerance:
 Convergence Check Mode ConvCheckMode   .... Total+1el-Energy
 Convergence forced     ConvForced      .... 0
 Energy Change          TolE            ....  1.000e-09 Eh
 1-El. energy change                    ....  1.000e-06 Eh
 DIIS Error             TolErr          ....  1.000e-08


Diagonalization of the overlap matrix:
Smallest eigenvalue                        ... 1.077e-05
Time for diagonalization                   ...    0.063 sec
Threshold for overlap eigenvalues          ... 1.000e-08
Number of eigenvalues below threshold      ... 0
Time for construction of square roots      ...    0.024 sec
Total time needed                          ...    0.087 sec

-------------------
DFT GRID GENERATION
-------------------

General Integration Accuracy     IntAcc      ...  5.010
Radial Grid Type                 RadialGrid  ... Gauss-Chebyshev
Angular Grid (max. acc.)         AngularGrid ... Lebedev-434
Angular grid pruning method      GridPruning ... 3 (G Style)
Weight generation scheme         WeightScheme... Becke
Basis function cutoff            BFCut       ...    1.0000e-12
Integration weight cutoff        WCut        ...    1.0000e-14
Grids for H and He will be reduced by one unit

# of grid points (after initial pruning)     ...  22450 (   0.0 sec)
# of grid points (after weights+screening)   ...  22378 (   0.0 sec)
nearest neighbour list constructed           ...    0.0 sec
Grid point re-assignment to atoms done       ...    0.0 sec
Grid point division into batches done        ...    0.2 sec
Reduced shell lists constructed in    0.3 sec

Total number of grid points                  ...    22378
Total number of batches                      ...      351
Average number of points per batch           ...       63
Average number of grid points per atom       ...    11189
Average number of shells per batch           ...    35.44 (55.37%)
Average number of basis functions per batch  ...   162.63 (56.86%)
Average number of large shells per batch     ...    30.08 (84.88%)
Average number of large basis fcns per batch ...   138.96 (85.44%)
Maximum spatial batch extension              ...  24.32, 24.32, 22.60 au
Average spatial batch extension              ...   1.89,  1.86,  1.58 au

Time for grid setup =    0.343 sec

------------------------------
INITIAL GUESS: MODEL POTENTIAL
------------------------------
Loading Hartree-Fock densities                     ... done
Calculating cut-offs                               ... done
Setting up the integral package                    ... done
Initializing the effective Hamiltonian             ... done
Starting the Coulomb interaction                   ... done (   0.0 sec)
Reading the grid                                   ... done
Mapping shells                                     ... done
Starting the XC term evaluation                    ... done (   0.3 sec)
  promolecular density results
     # of electrons  =     21.999994906
     EX              =    -27.969183154
     EC              =     -0.762937265
     EX+EC           =    -28.732120418
Transforming the Hamiltonian                       ... done (   0.0 sec)
Diagonalizing the Hamiltonian                      ... done (   0.0 sec)
Back transforming the eigenvectors                 ... done (   0.0 sec)
Now organizing SCF variables                       ... done
                      ------------------
                      INITIAL GUESS DONE (   0.8 sec)
                      ------------------
--------------
SCF ITERATIONS
--------------
ITER       Energy         Delta-E        Max-DP      RMS-DP      [F,P]     Damp
               ***  Starting incremental Fock matrix formation  ***
  0   -342.1072129518   0.000000000000 0.01268961  0.00017731  0.2747002 0.7000
  1   -342.1420407766  -0.034827824870 0.01089000  0.00010692  0.0643912 0.7000
                               ***Turning on DIIS***
  2   -342.1487373412  -0.006696564540 0.02569216  0.00022068  0.0319057 0.0000
  3   -342.1710383223  -0.022300981092 0.00266435  0.00006134  0.0231028 0.0000
  4   -342.1713750908  -0.000336768504 0.00201925  0.00002807  0.0369768 0.0000
  5   -342.1721725275  -0.000797436744 0.00121211  0.00001321  0.0091018 0.0000
  6   -342.1722426281  -0.000070100596 0.00069179  0.00000689  0.0022188 0.0000
  7   -342.1722475399  -0.000004911772 0.00057030  0.00000501  0.0005717 0.0000
  8   -342.1722479796  -0.000000439749 0.00004515  0.00000058  0.0000443 0.0000
  9   -342.1722479870  -0.000000007416 0.00002778  0.00000021  0.0000198 0.0000
 10   -342.1722479878  -0.000000000769 0.00000277  0.00000003  0.0000031 0.0000
 11   -342.1722479878  -0.000000000010 0.00000906  0.00000008  0.0000003 0.0000
                 **** Energy Check signals convergence ****

               *****************************************************
               *                     SUCCESS                       *
               *           SCF CONVERGED AFTER  12 CYCLES          *
               *****************************************************


----------------
TOTAL SCF ENERGY
----------------

Total Energy       :         -342.17224799 Eh           -9310.98023 eV

Components:
Nuclear Repulsion  :           37.42367829 Eh            1018.35006 eV
Electronic Energy  :         -379.59592628 Eh          -10329.33029 eV
One Electron Energy:         -551.57791791 Eh          -15009.19820 eV
Two Electron Energy:          171.98199163 Eh            4679.86791 eV

Virial components:
Potential Energy   :         -683.89585955 Eh          -18609.75244 eV
Kinetic Energy     :          341.72361156 Eh            9298.77221 eV
Virial Ratio       :            2.00131286


DFT components:
N(Alpha)           :       10.999999027947 electrons
N(Beta)            :       10.999999027947 electrons
N(Total)           :       21.999998055894 electrons
E(X)               :      -28.109751375603 Eh       
E(C)               :       -0.767465818019 Eh       
E(XC)              :      -28.877217193622 Eh       
DFET-embed. en.    :        0.000000000000 Eh       

---------------
SCF CONVERGENCE
---------------

  Last Energy change         ...    3.4106e-12  Tolerance :   1.0000e-09
  Last MAX-Density change    ...    1.2839e-06  Tolerance :   1.0000e-08
  Last RMS-Density change    ...    1.2660e-08  Tolerance :   1.0000e-09
  Last DIIS Error            ...    8.5232e-08  Tolerance :   1.0000e-08

             **** THE GBW FILE WAS UPDATED (alf_pbe.gbw) ****
             **** DENSITY FILE WAS UPDATED (alf_pbe.scfp.tmp) ****
             **** ENERGY FILE WAS UPDATED (alf_pbe.en.tmp) ****
----------------------
UHF SPIN CONTAMINATION
----------------------

Warning: in a DFT calculation there is little theoretical justification to 
         calculate <S**2> as in Hartree-Fock theory. We will do it anyways
         but you should keep in mind that the values have only limited relevance

Expectation value of <S**2>     :     0.000000
Ideal value S*(S+1) for S=0.0   :     0.000000
Deviation                       :     0.000000

----------------
ORBITAL ENERGIES
----------------
                 SPIN UP ORBITALS
  NO   OCC          E(Eh)            E(eV) 
   0   1.0000     -55.376887     -1506.8817 
   1   1.0000     -24.217918      -659.0031 
   2   1.0000      -3.943649      -107.3121 
   3   1.0000      -2.547222       -69.3134 
   4   1.0000      -2.547222       -69.3134 
   5   1.0000      -2.541646       -69.1617 
   6   1.0000      -1.041527       -28.3414 
   7   1.0000      -0.399449       -10.8696 
   8   1.0000      -0.350212        -9.5298 
   9   1.0000      -0.350212        -9.5298 
  10   1.0000      -0.228013        -6.2046 
  11   0.0000      -0.076610        -2.0847 
  12   0.0000      -0.076610        -2.0847 
  13   0.0000      -0.018718        -0.5093 
  14   0.0000      -0.000596        -0.0162 
  15   0.0000       0.013038         0.3548 
  16   0.0000       0.013038         0.3548 
  17   0.0000       0.020744         0.5645 
  18   0.0000       0.039264         1.0684 
  19   0.0000       0.039264         1.0684 
  20   0.0000       0.043829         1.1927 
  21   0.0000       0.043829         1.1927 
  22   0.0000       0.044032         1.1982 
  23   0.0000       0.055810         1.5187 
  24   0.0000       0.055810         1.5187 
  25   0.0000       0.060934         1.6581 
  26   0.0000       0.083055         2.2600 
  27   0.0000       0.102365         2.7855 
  28   0.0000       0.105441         2.8692 
  29   0.0000       0.105441         2.8692 
  30   0.0000       0.107012         2.9119 
  31   0.0000       0.107012         2.9119 
  32   0.0000       0.107610         2.9282 
  33   0.0000       0.107610         2.9282 
  34   0.0000       0.116615         3.1733 
  35   0.0000       0.116615         3.1733 
  36   0.0000       0.129933         3.5357 
  37   0.0000       0.160782         4.3751 
  38   0.0000       0.160782         4.3751 
  39   0.0000       0.168152         4.5756 
  40   0.0000       0.174347         4.7442 
  41   0.0000       0.174347         4.7442 
  42   0.0000       0.183909         5.0044 
  43   0.0000       0.183909         5.0044 
  44   0.0000       0.186269         5.0686 
  45   0.0000       0.186269         5.0686 
  46   0.0000       0.186322         5.0701 
  47   0.0000       0.186322         5.0701 
  48   0.0000       0.194880         5.3029 
  49   0.0000       0.195171         5.3109 
  50   0.0000       0.195171         5.3109 
  51   0.0000       0.242464         6.5978 
  52   0.0000       0.267371         7.2755 
  53   0.0000       0.267371         7.2755 
  54   0.0000       0.273416         7.4400 
  55   0.0000       0.275287         7.4910 
  56   0.0000       0.275287         7.4910 
  57   0.0000       0.278221         7.5708 
  58   0.0000       0.278221         7.5708 
  59   0.0000       0.280601         7.6355 
  60   0.0000       0.280601         7.6355 
  61   0.0000       0.280683         7.6378 
  62   0.0000       0.280683         7.6378 
  63   0.0000       0.281638         7.6638 
  64   0.0000       0.281638         7.6638 
  65   0.0000       0.301390         8.2012 
  66   0.0000       0.304574         8.2879 
  67   0.0000       0.304574         8.2879 
  68   0.0000       0.317358         8.6358 
  69   0.0000       0.317358         8.6358 
  70   0.0000       0.352341         9.5877 
  71   0.0000       0.422999        11.5104 
  72   0.0000       0.425984        11.5916 
  73   0.0000       0.425984        11.5916 
  74   0.0000       0.444056        12.0834 
  75   0.0000       0.496787        13.5183 
  76   0.0000       0.496787        13.5183 
  77   0.0000       0.509284        13.8583 
  78   0.0000       0.509284        13.8583 
  79   0.0000       0.558824        15.2064 
  80   0.0000       0.558824        15.2064 
  81   0.0000       0.647487        17.6190 
  82   0.0000       0.651556        17.7297 
  83   0.0000       0.651556        17.7297 
  84   0.0000       0.690392        18.7865 
  85   0.0000       0.690392        18.7865 
  86   0.0000       0.700021        19.0485 
  87   0.0000       0.700021        19.0485 
  88   0.0000       0.708077        19.2678 
  89   0.0000       0.733308        19.9543 
  90   0.0000       0.733308        19.9543 
  91   0.0000       0.754762        20.5381 
  92   0.0000       0.767066        20.8729 
  93   0.0000       0.767066        20.8729 
  94   0.0000       0.825137        22.4531 
  95   0.0000       0.825138        22.4531 
  96   0.0000       0.826336        22.4858 
  97   0.0000       0.826336        22.4858 
  98   0.0000       0.836213        22.7545 
  99   0.0000       0.886598        24.1256 
 100   0.0000       0.886598        24.1256 
 101   0.0000       0.893126        24.3032 
 102   0.0000       0.908756        24.7285 
 103   0.0000       0.908756        24.7285 
 104   0.0000       0.909246        24.7418 
 105   0.0000       0.909246        24.7418 
 106   0.0000       0.966929        26.3115 
 107   0.0000       1.057083        28.7647 
 108   0.0000       1.057083        28.7647 
 109   0.0000       1.110073        30.2066 
 110   0.0000       1.110073        30.2066 
 111   0.0000       1.121875        30.5278 
 112   0.0000       1.128498        30.7080 
 113   0.0000       1.128499        30.7080 
 114   0.0000       1.170550        31.8523 
 115   0.0000       1.170550        31.8523 
 116   0.0000       1.265125        34.4258 
 117   0.0000       1.265125        34.4258 
 118   0.0000       1.271149        34.5897 
 119   0.0000       1.274691        34.6861 
 120   0.0000       1.274691        34.6861 
 121   0.0000       1.296227        35.2721 
 122   0.0000       1.296227        35.2721 
 123   0.0000       1.392271        37.8856 
 124   0.0000       1.392271        37.8856 
 125   0.0000       1.396465        37.9997 
 126   0.0000       1.569434        42.7065 
 127   0.0000       1.766113        48.0584 
 128   0.0000       1.766113        48.0584 
 129   0.0000       1.805639        49.1339 
 130   0.0000       1.805639        49.1339 
 131   0.0000       1.808682        49.2167 
 132   0.0000       1.808683        49.2168 
 133   0.0000       1.843442        50.1626 
 134   0.0000       1.843442        50.1626 
 135   0.0000       1.888134        51.3787 
 136   0.0000       1.888134        51.3787 
 137   0.0000       2.013751        54.7969 
 138   0.0000       2.038163        55.4612 
 139   0.0000       2.038163        55.4612 
 140   0.0000       2.081345        56.6363 
 141   0.0000       2.081345        56.6363 
 142   0.0000       2.084591        56.7246 
 143   0.0000       2.166148        58.9439 
 144   0.0000       2.182589        59.3913 
 145   0.0000       2.182589        59.3913 
 146   0.0000       2.198960        59.8367 
 147   0.0000       2.198961        59.8368 
 148   0.0000       2.237444        60.8839 
 149   0.0000       2.237444        60.8839 
 150   0.0000       2.271132        61.8007 
 151   0.0000       2.285662        62.1960 
 152   0.0000       2.285664        62.1961 
 153   0.0000       2.367431        64.4211 
 154   0.0000       2.367431        64.4211 
 155   0.0000       2.406577        65.4863 
 156   0.0000       2.406577        65.4863 
 157   0.0000       2.453257        66.7565 
 158   0.0000       2.742892        74.6379 
 159   0.0000       2.742892        74.6379 
 160   0.0000       2.797560        76.1255 
 161   0.0000       2.797561        76.1255 
 162   0.0000       2.962005        80.6002 
 163   0.0000       3.406368        92.6920 
 164   0.0000       3.481802        94.7446 
 165   0.0000       3.481802        94.7446 
 166   0.0000       3.575622        97.2976 
 167   0.0000       3.799222       103.3821 
 168   0.0000       3.799222       103.3821 
 169   0.0000       3.856546       104.9420 
 170   0.0000       3.856548       104.9420 
 171   0.0000       3.885486       105.7295 
 172   0.0000       3.885486       105.7295 
 173   0.0000       4.259716       115.9128 
 174   0.0000       4.259716       115.9128 
 175   0.0000       4.312563       117.3508 
 176   0.0000       4.659467       126.7905 
 177   0.0000       4.659467       126.7905 
 178   0.0000       4.870839       132.5423 
 179   0.0000       4.870843       132.5424 
 180   0.0000       5.089349       138.4882 
 181   0.0000       5.089349       138.4882 
 182   0.0000       5.224264       142.1595 
 183   0.0000       5.224314       142.1608 
 184   0.0000       5.254035       142.9696 
 185   0.0000       5.422011       147.5404 
 186   0.0000       5.442738       148.1044 
 187   0.0000       5.442738       148.1044 
 188   0.0000       5.562275       151.3572 
 189   0.0000       5.565093       151.4339 
 190   0.0000       5.565093       151.4339 
 191   0.0000       5.588568       152.0727 
 192   0.0000       5.588574       152.0728 
 193   0.0000       5.677693       154.4979 
 194   0.0000       5.677693       154.4979 
 195   0.0000       5.699534       155.0922 
 196   0.0000       5.699534       155.0922 
 197   0.0000       5.794256       157.6697 
 198   0.0000       5.834722       158.7709 
 199   0.0000       5.834722       158.7709 
 200   0.0000       6.131207       166.8386 
 201   0.0000       6.131207       166.8386 
 202   0.0000       6.331252       172.2821 
 203   0.0000       6.331257       172.2823 
 204   0.0000       6.567364       178.7071 
 205   0.0000       6.778202       184.4442 
 206   0.0000       6.778202       184.4442 
 207   0.0000       7.102331       193.2643 
 208   0.0000       7.125552       193.8961 
 209   0.0000       7.125965       193.9074 
 210   0.0000       7.252061       197.3386 
 211   0.0000       7.252061       197.3386 
 212   0.0000       7.456249       202.8949 
 213   0.0000       7.456252       202.8949 
 214   0.0000       7.510318       204.3661 
 215   0.0000       7.510318       204.3661 
 216   0.0000       7.687143       209.1778 
 217   0.0000       7.687143       209.1778 
 218   0.0000       7.718120       210.0207 
 219   0.0000       7.938157       216.0082 
 220   0.0000       7.938168       216.0085 
 221   0.0000       8.723594       237.3811 
 222   0.0000       9.023213       245.5341 
 223   0.0000       9.023213       245.5341 
 224   0.0000      12.157607       330.8253 
 225   0.0000      12.157881       330.8328 
 226   0.0000      12.319162       335.2215 
 227   0.0000      12.435327       338.3824 
 228   0.0000      12.435327       338.3824 
 229   0.0000      12.689588       345.3012 
 230   0.0000      12.689849       345.3084 
 231   0.0000      12.700860       345.6080 
 232   0.0000      12.700860       345.6080 
 233   0.0000      12.726569       346.3075 
 234   0.0000      12.726569       346.3075 
 235   0.0000      12.783136       347.8468 
 236   0.0000      12.820130       348.8535 
 237   0.0000      12.820222       348.8560 
 238   0.0000      12.978889       353.1735 
 239   0.0000      12.978889       353.1735 
 240   0.0000      13.926485       378.9589 
 241   0.0000      14.267843       388.2477 
 242   0.0000      14.267843       388.2477 
 243   0.0000      14.347962       390.4279 
 244   0.0000      14.347969       390.4281 
 245   0.0000      14.549945       395.9241 
 246   0.0000      14.549945       395.9241 
 247   0.0000      14.677573       399.3971 
 248   0.0000      14.977288       407.5527 
 249   0.0000      14.977288       407.5527 
 250   0.0000      15.156495       412.4292 
 251   0.0000      15.156677       412.4341 
 252   0.0000      15.193410       413.4337 
 253   0.0000      15.443320       420.2341 
 254   0.0000      15.443320       420.2341 
 255   0.0000      15.541133       422.8957 
 256   0.0000      16.305157       443.6859 
 257   0.0000      20.125744       547.6493 
 258   0.0000      20.127614       547.7002 
 259   0.0000      20.179769       549.1194 
 260   0.0000      20.179769       549.1194 
 261   0.0000      20.442849       556.2782 
 262   0.0000      20.443145       556.2863 
 263   0.0000      20.888295       568.3994 
 264   0.0000      20.888295       568.3994 
 265   0.0000      21.078173       573.5662 
 266   0.0000      30.325959       825.2113 
 267   0.0000      30.327012       825.2400 
 268   0.0000      30.600144       832.6722 
 269   0.0000      30.600144       832.6722 
 270   0.0000      31.001006       843.5803 
 271   0.0000      41.508382      1129.5005 
 272   0.0000      41.508382      1129.5005 
 273   0.0000      41.747070      1135.9955 
 274   0.0000      42.559731      1158.1092 
 275   0.0000      51.319637      1396.4783 
 276   0.0000      51.319638      1396.4783 
 277   0.0000      51.446115      1399.9200 
 278   0.0000      51.446115      1399.9200 
 279   0.0000      51.661081      1405.7695 
 280   0.0000      91.278658      2483.8186 
 281   0.0000      91.278979      2483.8273 
 282   0.0000      91.470394      2489.0360 
 283   0.0000      91.470394      2489.0360 
 284   0.0000      91.733087      2496.1842 
 285   0.0000     201.385118      5479.9677 

                 SPIN DOWN ORBITALS
  NO   OCC          E(Eh)            E(eV) 
   0   1.0000     -55.376887     -1506.8817 
   1   1.0000     -24.217918      -659.0031 
   2   1.0000      -3.943649      -107.3121 
   3   1.0000      -2.547222       -69.3134 
   4   1.0000      -2.547222       -69.3134 
   5   1.0000      -2.541646       -69.1617 
   6   1.0000      -1.041527       -28.3414 
   7   1.0000      -0.399449       -10.8696 
   8   1.0000      -0.350212        -9.5298 
   9   1.0000      -0.350212        -9.5298 
  10   1.0000      -0.228013        -6.2046 
  11   0.0000      -0.076610        -2.0847 
  12   0.0000      -0.076610        -2.0847 
  13   0.0000      -0.018718        -0.5093 
  14   0.0000      -0.000596        -0.0162 
  15   0.0000       0.013038         0.3548 
  16   0.0000       0.013038         0.3548 
  17   0.0000       0.020744         0.5645 
  18   0.0000       0.039264         1.0684 
  19   0.0000       0.039264         1.0684 
  20   0.0000       0.043829         1.1927 
  21   0.0000       0.043829         1.1927 
  22   0.0000       0.044032         1.1982 
  23   0.0000       0.055810         1.5187 
  24   0.0000       0.055810         1.5187 
  25   0.0000       0.060934         1.6581 
  26   0.0000       0.083055         2.2600 
  27   0.0000       0.102365         2.7855 
  28   0.0000       0.105441         2.8692 
  29   0.0000       0.105441         2.8692 
  30   0.0000       0.107012         2.9119 
  31   0.0000       0.107012         2.9119 
  32   0.0000       0.107610         2.9282 
  33   0.0000       0.107610         2.9282 
  34   0.0000       0.116615         3.1733 
  35   0.0000       0.116615         3.1733 
  36   0.0000       0.129933         3.5357 
  37   0.0000       0.160782         4.3751 
  38   0.0000       0.160782         4.3751 
  39   0.0000       0.168152         4.5756 
  40   0.0000       0.174347         4.7442 
  41   0.0000       0.174347         4.7442 
  42   0.0000       0.183909         5.0044 
  43   0.0000       0.183909         5.0044 
  44   0.0000       0.186269         5.0686 
  45   0.0000       0.186269         5.0686 
  46   0.0000       0.186322         5.0701 
  47   0.0000       0.186322         5.0701 
  48   0.0000       0.194880         5.3029 
  49   0.0000       0.195171         5.3109 
  50   0.0000       0.195171         5.3109 
  51   0.0000       0.242464         6.5978 
  52   0.0000       0.267371         7.2755 
  53   0.0000       0.267371         7.2755 
  54   0.0000       0.273416         7.4400 
  55   0.0000       0.275287         7.4910 
  56   0.0000       0.275287         7.4910 
  57   0.0000       0.278221         7.5708 
  58   0.0000       0.278221         7.5708 
  59   0.0000       0.280601         7.6355 
  60   0.0000       0.280601         7.6355 
  61   0.0000       0.280683         7.6378 
  62   0.0000       0.280683         7.6378 
  63   0.0000       0.281638         7.6638 
  64   0.0000       0.281638         7.6638 
  65   0.0000       0.301390         8.2012 
  66   0.0000       0.304574         8.2879 
  67   0.0000       0.304574         8.2879 
  68   0.0000       0.317358         8.6358 
  69   0.0000       0.317358         8.6358 
  70   0.0000       0.352341         9.5877 
  71   0.0000       0.422999        11.5104 
  72   0.0000       0.425984        11.5916 
  73   0.0000       0.425984        11.5916 
  74   0.0000       0.444056        12.0834 
  75   0.0000       0.496787        13.5183 
  76   0.0000       0.496787        13.5183 
  77   0.0000       0.509284        13.8583 
  78   0.0000       0.509284        13.8583 
  79   0.0000       0.558824        15.2064 
  80   0.0000       0.558824        15.2064 
  81   0.0000       0.647487        17.6190 
  82   0.0000       0.651556        17.7297 
  83   0.0000       0.651556        17.7297 
  84   0.0000       0.690392        18.7865 
  85   0.0000       0.690392        18.7865 
  86   0.0000       0.700021        19.0485 
  87   0.0000       0.700021        19.0485 
  88   0.0000       0.708077        19.2678 
  89   0.0000       0.733308        19.9543 
  90   0.0000       0.733308        19.9543 
  91   0.0000       0.754762        20.5381 
  92   0.0000       0.767066        20.8729 
  93   0.0000       0.767066        20.8729 
  94   0.0000       0.825137        22.4531 
  95   0.0000       0.825138        22.4531 
  96   0.0000       0.826336        22.4858 
  97   0.0000       0.826336        22.4858 
  98   0.0000       0.836213        22.7545 
  99   0.0000       0.886598        24.1256 
 100   0.0000       0.886598        24.1256 
 101   0.0000       0.893126        24.3032 
 102   0.0000       0.908756        24.7285 
 103   0.0000       0.908756        24.7285 
 104   0.0000       0.909246        24.7418 
 105   0.0000       0.909246        24.7418 
 106   0.0000       0.966929        26.3115 
 107   0.0000       1.057083        28.7647 
 108   0.0000       1.057083        28.7647 
 109   0.0000       1.110073        30.2066 
 110   0.0000       1.110073        30.2066 
 111   0.0000       1.121875        30.5278 
 112   0.0000       1.128498        30.7080 
 113   0.0000       1.128499        30.7080 
 114   0.0000       1.170550        31.8523 
 115   0.0000       1.170550        31.8523 
 116   0.0000       1.265125        34.4258 
 117   0.0000       1.265125        34.4258 
 118   0.0000       1.271149        34.5897 
 119   0.0000       1.274691        34.6861 
 120   0.0000       1.274691        34.6861 
 121   0.0000       1.296227        35.2721 
 122   0.0000       1.296227        35.2721 
 123   0.0000       1.392271        37.8856 
 124   0.0000       1.392271        37.8856 
 125   0.0000       1.396465        37.9997 
 126   0.0000       1.569434        42.7065 
 127   0.0000       1.766113        48.0584 
 128   0.0000       1.766113        48.0584 
 129   0.0000       1.805639        49.1339 
 130   0.0000       1.805639        49.1339 
 131   0.0000       1.808682        49.2167 
 132   0.0000       1.808683        49.2168 
 133   0.0000       1.843442        50.1626 
 134   0.0000       1.843442        50.1626 
 135   0.0000       1.888134        51.3787 
 136   0.0000       1.888134        51.3787 
 137   0.0000       2.013751        54.7969 
 138   0.0000       2.038163        55.4612 
 139   0.0000       2.038163        55.4612 
 140   0.0000       2.081345        56.6363 
 141   0.0000       2.081345        56.6363 
 142   0.0000       2.084591        56.7246 
 143   0.0000       2.166148        58.9439 
 144   0.0000       2.182589        59.3913 
 145   0.0000       2.182589        59.3913 
 146   0.0000       2.198960        59.8367 
 147   0.0000       2.198961        59.8368 
 148   0.0000       2.237444        60.8839 
 149   0.0000       2.237444        60.8839 
 150   0.0000       2.271132        61.8007 
 151   0.0000       2.285662        62.1960 
 152   0.0000       2.285664        62.1961 
 153   0.0000       2.367431        64.4211 
 154   0.0000       2.367431        64.4211 
 155   0.0000       2.406577        65.4863 
 156   0.0000       2.406577        65.4863 
 157   0.0000       2.453257        66.7565 
 158   0.0000       2.742892        74.6379 
 159   0.0000       2.742892        74.6379 
 160   0.0000       2.797560        76.1255 
 161   0.0000       2.797561        76.1255 
 162   0.0000       2.962005        80.6002 
 163   0.0000       3.406368        92.6920 
 164   0.0000       3.481802        94.7446 
 165   0.0000       3.481802        94.7446 
 166   0.0000       3.575622        97.2976 
 167   0.0000       3.799222       103.3821 
 168   0.0000       3.799222       103.3821 
 169   0.0000       3.856546       104.9420 
 170   0.0000       3.856548       104.9420 
 171   0.0000       3.885486       105.7295 
 172   0.0000       3.885486       105.7295 
 173   0.0000       4.259716       115.9128 
 174   0.0000       4.259716       115.9128 
 175   0.0000       4.312563       117.3508 
 176   0.0000       4.659467       126.7905 
 177   0.0000       4.659467       126.7905 
 178   0.0000       4.870839       132.5423 
 179   0.0000       4.870843       132.5424 
 180   0.0000       5.089349       138.4882 
 181   0.0000       5.089349       138.4882 
 182   0.0000       5.224264       142.1595 
 183   0.0000       5.224314       142.1608 
 184   0.0000       5.254035       142.9696 
 185   0.0000       5.422011       147.5404 
 186   0.0000       5.442738       148.1044 
 187   0.0000       5.442738       148.1044 
 188   0.0000       5.562275       151.3572 
 189   0.0000       5.565093       151.4339 
 190   0.0000       5.565093       151.4339 
 191   0.0000       5.588568       152.0727 
 192   0.0000       5.588574       152.0728 
 193   0.0000       5.677693       154.4979 
 194   0.0000       5.677693       154.4979 
 195   0.0000       5.699534       155.0922 
 196   0.0000       5.699534       155.0922 
 197   0.0000       5.794256       157.6697 
 198   0.0000       5.834722       158.7709 
 199   0.0000       5.834722       158.7709 
 200   0.0000       6.131207       166.8386 
 201   0.0000       6.131207       166.8386 
 202   0.0000       6.331252       172.2821 
 203   0.0000       6.331257       172.2823 
 204   0.0000       6.567364       178.7071 
 205   0.0000       6.778202       184.4442 
 206   0.0000       6.778202       184.4442 
 207   0.0000       7.102331       193.2643 
 208   0.0000       7.125552       193.8961 
 209   0.0000       7.125965       193.9074 
 210   0.0000       7.252061       197.3386 
 211   0.0000       7.252061       197.3386 
 212   0.0000       7.456249       202.8949 
 213   0.0000       7.456252       202.8949 
 214   0.0000       7.510318       204.3661 
 215   0.0000       7.510318       204.3661 
 216   0.0000       7.687143       209.1778 
 217   0.0000       7.687143       209.1778 
 218   0.0000       7.718120       210.0207 
 219   0.0000       7.938157       216.0082 
 220   0.0000       7.938168       216.0085 
 221   0.0000       8.723594       237.3811 
 222   0.0000       9.023213       245.5341 
 223   0.0000       9.023213       245.5341 
 224   0.0000      12.157607       330.8253 
 225   0.0000      12.157881       330.8328 
 226   0.0000      12.319162       335.2215 
 227   0.0000      12.435327       338.3824 
 228   0.0000      12.435327       338.3824 
 229   0.0000      12.689588       345.3012 
 230   0.0000      12.689849       345.3084 
 231   0.0000      12.700860       345.6080 
 232   0.0000      12.700860       345.6080 
 233   0.0000      12.726569       346.3075 
 234   0.0000      12.726569       346.3075 
 235   0.0000      12.783136       347.8468 
 236   0.0000      12.820130       348.8535 
 237   0.0000      12.820222       348.8560 
 238   0.0000      12.978889       353.1735 
 239   0.0000      12.978889       353.1735 
 240   0.0000      13.926485       378.9589 
 241   0.0000      14.267843       388.2477 
 242   0.0000      14.267843       388.2477 
 243   0.0000      14.347962       390.4279 
 244   0.0000      14.347969       390.4281 
 245   0.0000      14.549945       395.9241 
 246   0.0000      14.549945       395.9241 
 247   0.0000      14.677573       399.3971 
 248   0.0000      14.977288       407.5527 
 249   0.0000      14.977288       407.5527 
 250   0.0000      15.156495       412.4292 
 251   0.0000      15.156677       412.4341 
 252   0.0000      15.193410       413.4337 
 253   0.0000      15.443320       420.2341 
 254   0.0000      15.443320       420.2341 
 255   0.0000      15.541133       422.8957 
 256   0.0000      16.305157       443.6859 
 257   0.0000      20.125744       547.6493 
 258   0.0000      20.127614       547.7002 
 259   0.0000      20.179769       549.1194 
 260   0.0000      20.179769       549.1194 
 261   0.0000      20.442849       556.2782 
 262   0.0000      20.443145       556.2863 
 263   0.0000      20.888295       568.3994 
 264   0.0000      20.888295       568.3994 
 265   0.0000      21.078173       573.5662 
 266   0.0000      30.325959       825.2113 
 267   0.0000      30.327012       825.2400 
 268   0.0000      30.600144       832.6722 
 269   0.0000      30.600144       832.6722 
 270   0.0000      31.001006       843.5803 
 271   0.0000      41.508382      1129.5005 
 272   0.0000      41.508382      1129.5005 
 273   0.0000      41.747070      1135.9955 
 274   0.0000      42.559731      1158.1092 
 275   0.0000      51.319637      1396.4783 
 276   0.0000      51.319638      1396.4783 
 277   0.0000      51.446115      1399.9200 
 278   0.0000      51.446115      1399.9200 
 279   0.0000      51.661081      1405.7695 
 280   0.0000      91.278658      2483.8186 
 281   0.0000      91.278979      2483.8273 
 282   0.0000      91.470394      2489.0360 
 283   0.0000      91.470394      2489.0360 
 284   0.0000      91.733087      2496.1842 
 285   0.0000     201.385118      5479.9677 

                    ********************************
                    * MULLIKEN POPULATION ANALYSIS *
                    ********************************

--------------------------------------------
MULLIKEN ATOMIC CHARGES AND SPIN POPULATIONS
--------------------------------------------
   0 Al:    0.388689   -0.000000
   1 F :   -0.388689    0.000000
Sum of atomic charges         :    0.0000000
Sum of atomic spin populations:   -0.0000000

-----------------------------------------------------
MULLIKEN REDUCED ORBITAL CHARGES AND SPIN POPULATIONS
-----------------------------------------------------
CHARGE
  0 Als       :     5.897692  s :     5.897692
      pz      :     2.384174  p :     6.533973
      px      :     2.074899
      py      :     2.074899
      dz2     :     0.062073  d :     0.141532
      dxz     :     0.039729
      dyz     :     0.039729
      dx2y2   :     0.000000
      dxy     :    -0.000000
      f0      :     0.009608  f :     0.029900
      f+1     :     0.010146
      f-1     :     0.010146
      f+2     :    -0.000000
      f-2     :    -0.000000
      f+3     :     0.000000
      f-3     :     0.000000
      g0      :     0.002195  g :     0.007125
      g+1     :     0.002465
      g-1     :     0.002465
      g+2     :     0.000000
      g-2     :     0.000000
      g+3     :     0.000000
      g-3     :     0.000000
      g+4     :     0.000000
      g-4     :     0.000000
      h0      :     0.000472  h :     0.001088
      h+1     :     0.000308
      h-1     :     0.000308
      h+2     :     0.000000
      h-2     :     0.000000
      h+3     :     0.000000
      h-3     :     0.000000
      h+4     :     0.000000
      h-4     :     0.000000
      h+5     :     0.000000
      h-5     :     0.000000
  1 F s       :     3.873542  s :     3.873542
      pz      :     1.751503  p :     5.489800
      px      :     1.869149
      py      :     1.869149
      dz2     :     0.015176  d :     0.021806
      dxz     :     0.003315
      dyz     :     0.003315
      dx2y2   :     0.000000
      dxy     :     0.000000
      f0      :     0.003898  f :     0.004107
      f+1     :     0.000104
      f-1     :     0.000104
      f+2     :    -0.000000
      f-2     :     0.000000
      f+3     :     0.000000
      f-3     :     0.000000
      g0      :    -0.000077  g :    -0.000210
      g+1     :    -0.000066
      g-1     :    -0.000066
      g+2     :    -0.000000
      g-2     :    -0.000000
      g+3     :     0.000000
      g-3     :     0.000000
      g+4     :     0.000000
      g-4     :    -0.000000
      h0      :    -0.000257  h :    -0.000355
      h+1     :    -0.000049
      h-1     :    -0.000049
      h+2     :    -0.000000
      h-2     :    -0.000000
      h+3     :    -0.000000
      h-3     :    -0.000000
      h+4     :     0.000000
      h-4     :     0.000000
      h+5     :     0.000000
      h-5     :     0.000000

SPIN
  0 Als       :    -0.000000  s :    -0.000000
      pz      :    -0.000000  p :    -0.000000
      px      :     0.000000
      py      :    -0.000000
      dz2     :    -0.000000  d :    -0.000000
      dxz     :     0.000000
      dyz     :    -0.000000
      dx2y2   :    -0.000000
      dxy     :     0.000000
      f0      :    -0.000000  f :    -0.000000
      f+1     :     0.000000
      f-1     :    -0.000000
      f+2     :    -0.000000
      f-2     :    -0.000000
      f+3     :     0.000000
      f-3     :     0.000000
      g0      :     0.000000  g :     0.000000
      g+1     :    -0.000000
      g-1     :    -0.000000
      g+2     :     0.000000
      g-2     :     0.000000
      g+3     :    -0.000000
      g-3     :    -0.000000
      g+4     :    -0.000000
      g-4     :     0.000000
      h0      :     0.000000  h :     0.000000
      h+1     :     0.000000
      h-1     :    -0.000000
      h+2     :     0.000000
      h-2     :    -0.000000
      h+3     :    -0.000000
      h-3     :     0.000000
      h+4     :    -0.000000
      h-4     :    -0.000000
      h+5     :     0.000000
      h-5     :    -0.000000
  1 F s       :     0.000000  s :     0.000000
      pz      :     0.000000  p :     0.000000
      px      :    -0.000000
      py      :     0.000000
      dz2     :     0.000000  d :     0.000000
      dxz     :    -0.000000
      dyz     :     0.000000
      dx2y2   :     0.000000
      dxy     :    -0.000000
      f0      :     0.000000  f :     0.000000
      f+1     :     0.000000
      f-1     :     0.000000
      f+2     :     0.000000
      f-2     :     0.000000
      f+3     :    -0.000000
      f-3     :     0.000000
      g0      :     0.000000  g :     0.000000
      g+1     :    -0.000000
      g-1     :    -0.000000
      g+2     :     0.000000
      g-2     :    -0.000000
      g+3     :    -0.000000
      g-3     :     0.000000
      g+4     :    -0.000000
      g-4     :    -0.000000
      h0      :     0.000000  h :    -0.000000
      h+1     :    -0.000000
      h-1     :    -0.000000
      h+2     :     0.000000
      h-2     :     0.000000
      h+3     :    -0.000000
      h-3     :    -0.000000
      h+4     :     0.000000
      h-4     :     0.000000
      h+5     :    -0.000000
      h-5     :     0.000000


                     *******************************
                     * LOEWDIN POPULATION ANALYSIS *
                     *******************************

-------------------------------------------
LOEWDIN ATOMIC CHARGES AND SPIN POPULATIONS
-------------------------------------------
   0 Al:    0.582185   -0.000000
   1 F :   -0.582185    0.000000

----------------------------------------------------
LOEWDIN REDUCED ORBITAL CHARGES AND SPIN POPULATIONS
----------------------------------------------------
CHARGE
  0 Als       :     5.090388  s :     5.090388
      pz      :     2.488511  p :     6.588156
      px      :     2.049823
      py      :     2.049823
      dz2     :     0.199796  d :     0.375914
      dxz     :     0.088059
      dyz     :     0.088059
      dx2y2   :     0.000000
      dxy     :     0.000000
      f0      :     0.105974  f :     0.230219
      f+1     :     0.062122
      f-1     :     0.062122
      f+2     :     0.000000
      f-2     :     0.000000
      f+3     :     0.000000
      f-3     :     0.000000
      g0      :     0.041530  g :     0.107642
      g+1     :     0.033056
      g-1     :     0.033056
      g+2     :     0.000000
      g-2     :     0.000000
      g+3     :     0.000000
      g-3     :     0.000000
      g+4     :     0.000000
      g-4     :     0.000000
      h0      :     0.010043  h :     0.025497
      h+1     :     0.007727
      h-1     :     0.007727
      h+2     :     0.000000
      h-2     :     0.000000
      h+3     :     0.000000
      h-3     :     0.000000
      h+4     :     0.000000
      h-4     :     0.000000
      h+5     :     0.000000
      h-5     :     0.000000
  1 F s       :     3.690675  s :     3.690675
      pz      :     2.043424  p :     5.481854
      px      :     1.719215
      py      :     1.719215
      dz2     :     0.144039  d :     0.157678
      dxz     :     0.006820
      dyz     :     0.006820
      dx2y2   :     0.000000
      dxy     :     0.000000
      f0      :     0.075359  f :     0.090204
      f+1     :     0.007422
      f-1     :     0.007422
      f+2     :     0.000000
      f-2     :     0.000000
      f+3     :     0.000000
      f-3     :     0.000000
      g0      :     0.058190  g :     0.079208
      g+1     :     0.010509
      g-1     :     0.010509
      g+2     :     0.000000
      g-2     :     0.000000
      g+3     :     0.000000
      g-3     :     0.000000
      g+4     :     0.000000
      g-4     :     0.000000
      h0      :     0.052072  h :     0.082566
      h+1     :     0.015247
      h-1     :     0.015247
      h+2     :     0.000000
      h-2     :     0.000000
      h+3     :     0.000000
      h-3     :     0.000000
      h+4     :     0.000000
      h-4     :     0.000000
      h+5     :     0.000000
      h-5     :     0.000000

SPIN
  0 Als       :    -0.000000  s :    -0.000000
      pz      :    -0.000000  p :    -0.000000
      px      :    -0.000000
      py      :    -0.000000
      dz2     :     0.000000  d :     0.000000
      dxz     :     0.000000
      dyz     :     0.000000
      dx2y2   :    -0.000000
      dxy     :     0.000000
      f0      :     0.000000  f :     0.000000
      f+1     :    -0.000000
      f-1     :    -0.000000
      f+2     :     0.000000
      f-2     :    -0.000000
      f+3     :     0.000000
      f-3     :     0.000000
      g0      :    -0.000000  g :     0.000000
      g+1     :     0.000000
      g-1     :     0.000000
      g+2     :    -0.000000
      g-2     :     0.000000
      g+3     :    -0.000000
      g-3     :    -0.000000
      g+4     :    -0.000000
      g-4     :     0.000000
      h0      :    -0.000000  h :     0.000000
      h+1     :     0.000000
      h-1     :     0.000000
      h+2     :     0.000000
      h-2     :    -0.000000
      h+3     :    -0.000000
      h-3     :     0.000000
      h+4     :    -0.000000
      h-4     :    -0.000000
      h+5     :     0.000000
      h-5     :    -0.000000
  1 F s       :     0.000000  s :     0.000000
      pz      :     0.000000  p :     0.000000
      px      :     0.000000
      py      :     0.000000
      dz2     :     0.000000  d :     0.000000
      dxz     :    -0.000000
      dyz     :     0.000000
      dx2y2   :     0.000000
      dxy     :    -0.000000
      f0      :    -0.000000  f :    -0.000000
      f+1     :    -0.000000
      f-1     :     0.000000
      f+2     :    -0.000000
      f-2     :     0.000000
      f+3     :    -0.000000
      f-3     :     0.000000
      g0      :    -0.000000  g :    -0.000000
      g+1     :     0.000000
      g-1     :    -0.000000
      g+2     :     0.000000
      g-2     :    -0.000000
      g+3     :    -0.000000
      g-3     :     0.000000
      g+4     :    -0.000000
      g-4     :    -0.000000
      h0      :    -0.000000  h :    -0.000000
      h+1     :    -0.000000
      h-1     :    -0.000000
      h+2     :     0.000000
      h-2     :     0.000000
      h+3     :    -0.000000
      h-3     :     0.000000
      h+4     :     0.000000
      h-4     :     0.000000
      h+5     :    -0.000000
      h-5     :     0.000000


                      *****************************
                      * MAYER POPULATION ANALYSIS *
                      *****************************

  NA   - Mulliken gross atomic population
  ZA   - Total nuclear charge
  QA   - Mulliken gross atomic charge
  VA   - Mayer's total valence
  BVA  - Mayer's bonded valence
  FA   - Mayer's free valence

  ATOM       NA         ZA         QA         VA         BVA        FA
  0 Al    12.6113    13.0000     0.3887     0.9894     0.9894     0.0000
  1 F      9.3887     9.0000    -0.3887     0.9894     0.9894    -0.0000

  Mayer bond orders larger than 0.1
B(  0-Al,  1-F ) :   0.9894 

-------
TIMINGS
-------

Total SCF time: 0 days 0 hours 7 min 52 sec 

Total time                  ....     472.340 sec
Sum of individual times     ....     471.408 sec  ( 99.8%)

Fock matrix formation       ....     469.090 sec  ( 99.3%)
  XC integration            ....       7.538 sec  (  1.6% of F)
    Basis function eval.    ....       0.607 sec  (  8.1% of XC)
    Density eval.           ....       1.588 sec  ( 21.1% of XC)
    XC-Functional eval.     ....       0.135 sec  (  1.8% of XC)
    XC-Potential eval.      ....       4.610 sec  ( 61.2% of XC)
Diagonalization             ....       0.770 sec  (  0.2%)
Density matrix formation    ....       0.017 sec  (  0.0%)
Population analysis         ....       0.076 sec  (  0.0%)
Initial guess               ....       0.440 sec  (  0.1%)
Orbital Transformation      ....       0.000 sec  (  0.0%)
Orbital Orthonormalization  ....       0.000 sec  (  0.0%)
DIIS solution               ....       0.673 sec  (  0.1%)
Grid generation             ....       0.343 sec  (  0.1%)

-------------------------   --------------------
FINAL SINGLE POINT ENERGY      -342.172247987815
-------------------------   --------------------


                            ***************************************
                            *     ORCA property calculations      *
                            ***************************************

                                    ---------------------
                                    Active property flags
                                    ---------------------
   (+) Dipole Moment
   (+) Polarizability


------------------------------------------------------------------------------
                       ORCA ELECTRIC PROPERTIES CALCULATION
------------------------------------------------------------------------------

Dipole Moment Calculation                       ... on
Quadrupole Moment Calculation                   ... off
Polarizability Calculation                      ... Analytic (CP-SCF)
GBWName                                         ... alf_pbe.gbw
Electron density file                           ... alf_pbe.scfp.tmp
The origin for moment calculation is the CENTER OF MASS  = ( 0.000000,  0.000000  1.291750)

-------------
DIPOLE MOMENT
-------------
                                X             Y             Z
Electronic contribution:     -0.00000       0.00000      -0.25936
Nuclear contribution   :      0.00000       0.00000      -0.28122
                        -----------------------------------------
Total Dipole Moment    :     -0.00000       0.00000      -0.54058
                        -----------------------------------------
Magnitude (a.u.)       :      0.54058
Magnitude (Debye)      :      1.37405



--------------------
Rotational spectrum 
--------------------
 
Rotational constants in cm-1:     0.000000     0.552462     0.552462 
Rotational constants in MHz :     0.000000 16562.409063 16562.409063 

 Dipole components along the rotational axes: 
x,y,z [a.u.] :    -0.540582     0.000000    -0.000000 
x,y,z [Debye]:    -1.374051     0.000000    -0.000000 

 
Transforming and storing MO dipole integrals   ... done

                ... starting polarizability calculation

Opening the Dipole integral file               ... (alf_pbe.dmo.tmp) done
Reading Dipole-MO integrals                    ... done
Solving CP-SCF equations                       ... 

           ************************************************************
           *        Program running with 4 parallel MPI-processes     *
           *              working on a common directory               *
           ************************************************************

------------------------------------------------------------------------------
                           ORCA CP-SCF CALCULATION
------------------------------------------------------------------------------

Input orbitals are from        ... alf_pbe.gbw
Input Perturbation             ... alf_pbe.cpv.tmp
Wavefunction output            ... alf_pbe.cpu.tmp
Perturbation mode              ... Real perturbation (singlet)
Solver                         ... POPLE
Max. number of iterations      ... 200
Convergence tolerance          ... 1.000e-06
Integral handling              ... Direct
Number of perturbations        ... 3
Number of operators            ... 2
Orbital ranges used for CP-SCF:
 Operator 0:  Orbitals   0... 10  to  11...285
 Operator 1:  Orbitals   0... 10  to  11...285
DFT calculation                         ... on
Exchange functional (SCF)               ... PBE
Exchange functional (CP-SCF)            ... PBE
   PBE kappa parameter  XKappa (SCF)    ...  0.804000
   PBE kappa parameter  XKappa (CP-SCF) ...  0.804000
   PBE mue parameter   XMuePBE (SCF)    ...  0.219520
   PBE mue parameter   XMuePBE (CP-SCF) ...  0.219520
Correlation functional (SCF)            ... PBE
Correlation functional (CP-SCF)         ... PBE
   PBE beta parameter CBetaPBE (SCF)    ...  0.066725
   PBE beta parameter CBetaPBE (CP-SCF) ...  0.066725
 LDA part of GGA corr.  LDAOpt (SCF)    ... PW91-LDA
 LDA part of GGA corr.  LDAOpt (CP-SCF) ... PW91-LDA
Variables per vector in CP-SCF ... 6050
Number of vectors sought       ... 3
Recalculating density on grid  ... done
Calculating the xc-kernel      ... done
     CP-SCF ITERATION   0: 
     CP-SCF ITERATION   1:      0.774650095727
     CP-SCF ITERATION   2:      0.005645364360
     CP-SCF ITERATION   3:      0.000193225742
     CP-SCF ITERATION   4:      0.000002662840
     CP-SCF ITERATION   5:      0.000000366174
done
Reading CP-SCF coefficients                    ... done
Doing the polarizability tensor   ... done
Cleaning up                                    ... done

-------------------------
THE POLARIZABILITY TENSOR
-------------------------

The raw cartesian tensor (atomic units):
   42.17832     -0.00000      0.00000  
   -0.00000     42.17832     -0.00000  
    0.00000     -0.00000     37.88559  
diagonalized tensor: 
   37.88559     42.17832     42.17832  

   -0.00000     -0.96699      0.25483  
    0.00000     -0.25483     -0.96699  
    1.00000     -0.00000      0.00000  

Isotropic polarizability :  40.74741


Timings for individual modules:

Sum of individual times         ...      810.927 sec (=  13.515 min)
GTO integral calculation        ...        8.437 sec (=   0.141 min)   1.0 %
SCF iterations                  ...      477.440 sec (=   7.957 min)  58.9 %
Solution of CP-SCF eqns.        ...      325.049 sec (=   5.417 min)  40.1 %
                             ****ORCA TERMINATED NORMALLY****
TOTAL RUN TIME: 0 days 0 hours 13 minutes 34 seconds 843 msec
