
                                 *****************
                                 * O   R   C   A *
                                 *****************

           --- An Ab Initio, DFT and Semiempirical electronic structure package ---

                  #######################################################
                  #                        -***-                        #
                  #          Department of theory and spectroscopy      #
                  #               Directorship: Frank Neese             #
                  #        Max Planck Institute fuer Kohlenforschung    #
                  #                Kaiser Wilhelm Platz 1               #
                  #                 D-45470 Muelheim/Ruhr               #
                  #                      Germany                        #
                  #                                                     #
                  #                  All rights reserved                #
                  #                        -***-                        #
                  #######################################################


                         Program Version 4.1.2  - RELEASE  -


 With contributions from (in alphabetic order):
   Daniel Aravena         : Magnetic Properties
   Michael Atanasov       : Ab Initio Ligand Field Theory
   Alexander A. Auer      : GIAO ZORA
   Ute Becker             : Parallelization
   Giovanni Bistoni       : ED, Open-shell LED
   Martin Brehm           : Molecular dynamics
   Dmytro Bykov           : SCF Hessian
   Vijay G. Chilkuri      : MRCI spin determinant printing
   Dipayan Datta          : RHF DLPNO-CCSD density
   Achintya Kumar Dutta   : EOM-CC, STEOM-CC
   Dmitry Ganyushin       : Spin-Orbit,Spin-Spin,Magnetic field MRCI
   Miquel Garcia          : C-PCM Hessian
   Yang Guo               : DLPNO-NEVPT2, CIM, IAO-localization
   Andreas Hansen         : Spin unrestricted coupled pair/coupled cluster methods
   Benjamin Helmich-Paris : CASSCF linear response (MC-RPA)
   Lee Huntington         : MR-EOM, pCC
   Robert Izsak           : Overlap fitted RIJCOSX, COSX-SCS-MP3, EOM
   Christian Kollmar      : KDIIS, OOCD, Brueckner-CCSD(T), CCSD density
   Simone Kossmann        : Meta GGA functionals, TD-DFT gradient, OOMP2, MP2 Hessian
   Martin Krupicka        : AUTO-CI
   Lucas Lang             : DCDCAS
   Dagmar Lenk            : GEPOL surface, SMD
   Dimitrios Liakos       : Extrapolation schemes; parallel MDCI
   Dimitrios Manganas     : ROCIS; embedding schemes
   Dimitrios Pantazis     : SARC Basis sets
   Taras Petrenko         : DFT Hessian,TD-DFT gradient, ASA, ECA, R-Raman, ABS, FL, XAS/XES, NRVS
   Peter Pinski           : DLPNO-MP2, DLPNO-MP2 Gradient
   Christoph Reimann      : Effective Core Potentials
   Marius Retegan         : Local ZFS, SOC
   Christoph Riplinger    : Optimizer, TS searches, QM/MM, DLPNO-CCSD(T), (RO)-DLPNO pert. Triples
   Tobias Risthaus        : Range-separated hybrids, TD-DFT gradient, RPA, STAB
   Michael Roemelt        : Restricted open shell CIS
   Masaaki Saitow         : Open-shell DLPNO
   Barbara Sandhoefer     : DKH picture change effects
   Avijit Sen             : IP-ROCIS
   Kantharuban Sivalingam : CASSCF convergence, NEVPT2, FIC-MRCI
   Bernardo de Souza      : ESD, SOC TD-DFT
   Georgi Stoychev        : AutoAux, RI-MP2 NMR
   Willem Van den Heuvel  : Paramagnetic NMR
   Boris Wezisla          : Elementary symmetry handling
   Frank Wennmohs         : Technical directorship


 We gratefully acknowledge several colleagues who have allowed us to
 interface, adapt or use parts of their codes:
   Stefan Grimme, W. Hujo, H. Kruse,             : VdW corrections, initial TS optimization,
                  C. Bannwarth                     DFT functionals, gCP, sTDA/sTD-DF
   Ed Valeev                                     : LibInt (2-el integral package), F12 methods
   Garnet Chan, S. Sharma, J. Yang, R. Olivares  : DMRG
   Ulf Ekstrom                                   : XCFun DFT Library
   Mihaly Kallay                                 : mrcc  (arbitrary order and MRCC methods)
   Andreas Klamt, Michael Diedenhofen            : otool_cosmo (COSMO solvation model)
   Jiri Pittner, Ondrej Demel                    : Mk-CCSD
   Frank Weinhold                                : gennbo (NPA and NBO analysis)
   Christopher J. Cramer and Donald G. Truhlar   : smd solvation model
   Lars Goerigk                                  : TD-DFT with DH, B97 family of functionals
   V. Asgeirsson, H. Jonsson                     : NEB implementation
   FAccTs GmbH                                   : IRC, NEB, NEB-TS, Multilevel


 Your calculation uses the libint2 library for the computation of 2-el integrals
 For citations please refer to: http://libint.valeyev.net

 This ORCA versions uses:
   CBLAS   interface :  Fast vector & matrix operations
   LAPACKE interface :  Fast linear algebra routines
   SCALAPACK package :  Parallel linear algebra routines


----- Orbital basis set information -----
Your calculation utilizes the basis: aug-pc-4
   H, C-F              : F. Jensen, J. Chem. Phys. 115, 9113 (2001).
                         F. Jensen, J. Chem. Phys. 116, 7372 (2002).
                         F. Jensen, J. Chem. Phys. 117, 9234 (2002).
   Si-Cl               : F. Jensen, T. Helgaker, J. Chem. Phys. 121, 3463 (2004).
   He-B, Ne-Mg, Al, Ar : F. Jensen, J. Phys. Chem. A 111, 11198 (2007).
   K, Ca, Ga-Kr        : F. Jensen, J. Chem. Phys. 136, 094110 (2012).
   Sc-Zn               : F. Jensen, J. Chem. Phys. 138, 014107 (2013).

================================================================================
                                        WARNINGS
                       Please study these warnings very carefully!
================================================================================


INFO   : the flag for use of LIBINT has been found!

================================================================================
                                       INPUT FILE
================================================================================
NAME = ar_pbe.inp
|  1> !uks pbe nori aug-pc-4 grid5 nofinalgrid verytightscf
|  2> 
|  3> %maxcore 1500
|  4> 
|  5> %pal nprocs 4 end
|  6> 
|  7> %scf
|  8> 	maxiter 200
|  9> end
| 10> %elprop
| 11> 	dipole true
| 12> 	 polar 1
| 13> 	 maxiter 200
| 14> end
| 15> 
| 16> * xyz 0 1
| 17> Ar 0.0 0.0 0.0
| 18> *
| 19> 
| 20>                          ****END OF INPUT****
================================================================================

                       ****************************
                       * Single Point Calculation *
                       ****************************

---------------------------------
CARTESIAN COORDINATES (ANGSTROEM)
---------------------------------
  Ar     0.000000    0.000000    0.000000

----------------------------
CARTESIAN COORDINATES (A.U.)
----------------------------
  NO LB      ZA    FRAG     MASS         X           Y           Z
   0 Ar   18.0000    0    39.948    0.000000    0.000000    0.000000

--------------------------------
INTERNAL COORDINATES (ANGSTROEM)
--------------------------------
 Ar     0   0   0     0.000000000000     0.00000000     0.00000000

---------------------------
INTERNAL COORDINATES (A.U.)
---------------------------
 Ar     0   0   0     0.000000000000     0.00000000     0.00000000

---------------------
BASIS SET INFORMATION
---------------------
There are 1 groups of distinct atoms

 Group   1 Type Ar  : 44s27p7d4f3g2h contracted to 8s7p7d4f3g2h pattern {15121211111/111111111/1111111/1111/111/11}

Atom   0Ar   basis set group =>   1


           ************************************************************
           *        Program running with 4 parallel MPI-processes     *
           *              working on a common directory               *
           ************************************************************
------------------------------------------------------------------------------
                           ORCA GTO INTEGRAL CALCULATION
------------------------------------------------------------------------------

                         BASIS SET STATISTICS AND STARTUP INFO

 # of primitive gaussian shells          ...   87
 # of primitive gaussian functions       ...  237
 # of contracted shells                  ...   31
 # of contracted basis functions         ...  141
 Highest angular momentum                ...    5
 Maximum contraction depth               ...   15
 Integral package used                   ... LIBINT
 Integral threshhold            Thresh   ...  1.000e-12
 Primitive cut-off              TCut     ...  1.000e-14


------------------------------ INTEGRAL EVALUATION ----------------------------


 * One electron integrals 
 Pre-screening matrix                    ... done
 Shell pair data                         ... done (   0.000 sec)



           ************************************************************
           *        Program running with 4 parallel MPI-processes     *
           *              working on a common directory               *
           ************************************************************
-------------------------------------------------------------------------------
                                 ORCA SCF
-------------------------------------------------------------------------------

------------
SCF SETTINGS
------------
Hamiltonian:
 Density Functional     Method          .... DFT(GTOs)
 Exchange Functional    Exchange        .... PBE
   PBE kappa parameter   XKappa         ....  0.804000
   PBE mue parameter    XMuePBE         ....  0.219520
 Correlation Functional Correlation     .... PBE
   PBE beta parameter  CBetaPBE         ....  0.066725
 LDA part of GGA corr.  LDAOpt          .... PW91-LDA
 Gradients option       PostSCFGGA      .... off
   Density functional embedding theory  .... OFF
   NL short-range parameter             ....  6.400000


General Settings:
 Integral files         IntName         .... ar_pbe
 Hartree-Fock type      HFTyp           .... UHF
 Total Charge           Charge          ....    0
 Multiplicity           Mult            ....    1
 Number of Electrons    NEL             ....   18
 Basis Dimension        Dim             ....  141
 Nuclear Repulsion      ENuc            ....      0.0000000000 Eh

Convergence Acceleration:
 DIIS                   CNVDIIS         .... on
   Start iteration      DIISMaxIt       ....    12
   Startup error        DIISStart       ....  0.200000
   # of expansion vecs  DIISMaxEq       ....     5
   Bias factor          DIISBfac        ....   1.050
   Max. coefficient     DIISMaxC        ....  10.000
 Newton-Raphson         CNVNR           .... off
 SOSCF                  CNVSOSCF        .... off
 Level Shifting         CNVShift        .... on
   Level shift para.    LevelShift      ....    0.2500
   Turn off err/grad.   ShiftErr        ....    0.0010
 Zerner damping         CNVZerner       .... off
 Static damping         CNVDamp         .... on
   Fraction old density DampFac         ....    0.7000
   Max. Damping (<1)    DampMax         ....    0.9800
   Min. Damping (>=0)   DampMin         ....    0.0000
   Turn off err/grad.   DampErr         ....    0.1000
 Fernandez-Rico         CNVRico         .... off

SCF Procedure:
 Maximum # iterations   MaxIter         ....   200
 SCF integral mode      SCFMode         .... Direct
   Integral package                     .... LIBINT
 Reset frequency        DirectResetFreq ....    20
 Integral Threshold     Thresh          ....  1.000e-12 Eh
 Primitive CutOff       TCut            ....  1.000e-14 Eh

Convergence Tolerance:
 Convergence Check Mode ConvCheckMode   .... Total+1el-Energy
 Convergence forced     ConvForced      .... 0
 Energy Change          TolE            ....  1.000e-09 Eh
 1-El. energy change                    ....  1.000e-06 Eh
 DIIS Error             TolErr          ....  1.000e-08


Diagonalization of the overlap matrix:
Smallest eigenvalue                        ... 6.022e-04
Time for diagonalization                   ...    0.091 sec
Threshold for overlap eigenvalues          ... 1.000e-08
Number of eigenvalues below threshold      ... 0
Time for construction of square roots      ...    0.007 sec
Total time needed                          ...    0.098 sec

-------------------
DFT GRID GENERATION
-------------------

General Integration Accuracy     IntAcc      ...  5.010
Radial Grid Type                 RadialGrid  ... Gauss-Chebyshev
Angular Grid (max. acc.)         AngularGrid ... Lebedev-434
Angular grid pruning method      GridPruning ... 3 (G Style)
Weight generation scheme         WeightScheme... Becke
Basis function cutoff            BFCut       ...    1.0000e-12
Integration weight cutoff        WCut        ...    1.0000e-14
Grids for H and He will be reduced by one unit

# of grid points (after initial pruning)     ...  11992 (   0.0 sec)
# of grid points (after weights+screening)   ...  11992 (   0.0 sec)
Grid point division into batches done        ...    0.1 sec
Reduced shell lists constructed in    0.1 sec

Total number of grid points                  ...    11992
Total number of batches                      ...      188
Average number of points per batch           ...       63
Average number of grid points per atom       ...    11992
Average number of shells per batch           ...    13.29 (42.88%)
Average number of basis functions per batch  ...    62.62 (44.41%)
Average number of large shells per batch     ...    10.35 (77.90%)
Average number of large basis fcns per batch ...    47.56 (75.95%)
Maximum spatial batch extension              ...  18.71, 18.71, 18.71 au
Average spatial batch extension              ...   2.90,  2.83,  2.83 au

Time for grid setup =    0.190 sec

------------------------------
INITIAL GUESS: MODEL POTENTIAL
------------------------------
Loading Hartree-Fock densities                     ... done
Calculating cut-offs                               ... done
Setting up the integral package                    ... done
Initializing the effective Hamiltonian             ... done
Starting the Coulomb interaction                   ... done (   0.0 sec)
Reading the grid                                   ... done
Mapping shells                                     ... done
Starting the XC term evaluation                    ... done (   0.1 sec)
  promolecular density results
     # of electrons  =     17.999998971
     EX              =    -30.002326568
     EC              =     -0.708269779
     EX+EC           =    -30.710596347
Transforming the Hamiltonian                       ... done (   0.0 sec)
Diagonalizing the Hamiltonian                      ... done (   0.0 sec)
Back transforming the eigenvectors                 ... done (   0.0 sec)
Now organizing SCF variables                       ... done
                      ------------------
                      INITIAL GUESS DONE (   0.4 sec)
                      ------------------
--------------
SCF ITERATIONS
--------------
ITER       Energy         Delta-E        Max-DP      RMS-DP      [F,P]     Damp
               ***  Starting incremental Fock matrix formation  ***
  0   -527.3458521481   0.000000000000 0.00308731  0.00003788  0.0066724 0.7000
  1   -527.3458857995  -0.000033651303 0.00197527  0.00002849  0.0036956 0.7000
                               ***Turning on DIIS***
  2   -527.3459029473  -0.000017147871 0.00370363  0.00006449  0.0016617 0.0000
  3   -527.3459307641  -0.000027816797 0.00083976  0.00001131  0.0017045 0.0000
  4   -527.3459355383  -0.000004774197 0.00008202  0.00000211  0.0001955 0.0000
  5   -527.3459356245  -0.000000086149 0.00001836  0.00000028  0.0000244 0.0000
  6   -527.3459356256  -0.000000001181 0.00000050  0.00000001  0.0000016 0.0000
  7   -527.3459356257  -0.000000000004 0.00000008  0.00000000  0.0000002 0.0000
                 **** Energy Check signals convergence ****

               *****************************************************
               *                     SUCCESS                       *
               *           SCF CONVERGED AFTER   8 CYCLES          *
               *****************************************************


----------------
TOTAL SCF ENERGY
----------------

Total Energy       :         -527.34593563 Eh          -14349.81244 eV

Components:
Nuclear Repulsion  :            0.00000000 Eh               0.00000 eV
Electronic Energy  :         -527.34593563 Eh          -14349.81244 eV
One Electron Energy:         -728.34650382 Eh          -19819.31596 eV
Two Electron Energy:          201.00056819 Eh            5469.50352 eV

Virial components:
Potential Energy   :        -1054.26611732 Eh          -28688.03952 eV
Kinetic Energy     :          526.92018170 Eh           14338.22709 eV
Virial Ratio       :            2.00080800


DFT components:
N(Alpha)           :        8.999999852050 electrons
N(Beta)            :        8.999999852050 electrons
N(Total)           :       17.999999704100 electrons
E(X)               :      -29.984811295743 Eh       
E(C)               :       -0.704238689625 Eh       
E(XC)              :      -30.689049985368 Eh       
DFET-embed. en.    :        0.000000000000 Eh       

---------------
SCF CONVERGENCE
---------------

  Last Energy change         ...    6.8212e-13  Tolerance :   1.0000e-09
  Last MAX-Density change    ...    2.7717e-09  Tolerance :   1.0000e-08
  Last RMS-Density change    ...    3.5473e-11  Tolerance :   1.0000e-09
  Last DIIS Error            ...    3.8659e-09  Tolerance :   1.0000e-08

             **** THE GBW FILE WAS UPDATED (ar_pbe.gbw) ****
             **** DENSITY FILE WAS UPDATED (ar_pbe.scfp.tmp) ****
             **** ENERGY FILE WAS UPDATED (ar_pbe.en.tmp) ****
----------------------
UHF SPIN CONTAMINATION
----------------------

Warning: in a DFT calculation there is little theoretical justification to 
         calculate <S**2> as in Hartree-Fock theory. We will do it anyways
         but you should keep in mind that the values have only limited relevance

Expectation value of <S**2>     :     0.000000
Ideal value S*(S+1) for S=0.0   :     0.000000
Deviation                       :     0.000000

----------------
ORBITAL ENERGIES
----------------
                 SPIN UP ORBITALS
  NO   OCC          E(Eh)            E(eV) 
   0   1.0000    -114.155975     -3106.3420 
   1   1.0000     -10.830018      -294.6998 
   2   1.0000      -8.442353      -229.7281 
   3   1.0000      -8.442353      -229.7281 
   4   1.0000      -8.442353      -229.7281 
   5   1.0000      -0.884225       -24.0610 
   6   1.0000      -0.377996       -10.2858 
   7   1.0000      -0.377996       -10.2858 
   8   1.0000      -0.377996       -10.2858 
   9   0.0000       0.008920         0.2427 
  10   0.0000       0.035367         0.9624 
  11   0.0000       0.035367         0.9624 
  12   0.0000       0.035367         0.9624 
  13   0.0000       0.138440         3.7671 
  14   0.0000       0.138440         3.7671 
  15   0.0000       0.138440         3.7671 
  16   0.0000       0.138440         3.7671 
  17   0.0000       0.138440         3.7671 
  18   0.0000       0.184583         5.0227 
  19   0.0000       0.184583         5.0227 
  20   0.0000       0.184583         5.0227 
  21   0.0000       0.339874         9.2484 
  22   0.0000       0.360018         9.7966 
  23   0.0000       0.360018         9.7966 
  24   0.0000       0.360018         9.7966 
  25   0.0000       0.360018         9.7966 
  26   0.0000       0.360018         9.7966 
  27   0.0000       0.379998        10.3403 
  28   0.0000       0.379998        10.3403 
  29   0.0000       0.379998        10.3403 
  30   0.0000       0.379998        10.3403 
  31   0.0000       0.379998        10.3403 
  32   0.0000       0.379998        10.3403 
  33   0.0000       0.379998        10.3403 
  34   0.0000       0.650213        17.6932 
  35   0.0000       0.650213        17.6932 
  36   0.0000       0.650213        17.6932 
  37   0.0000       0.650213        17.6932 
  38   0.0000       0.650213        17.6932 
  39   0.0000       0.650213        17.6932 
  40   0.0000       0.650213        17.6932 
  41   0.0000       0.650213        17.6932 
  42   0.0000       0.650213        17.6932 
  43   0.0000       0.655853        17.8467 
  44   0.0000       0.655853        17.8467 
  45   0.0000       0.655853        17.8467 
  46   0.0000       0.900771        24.5112 
  47   0.0000       0.900771        24.5112 
  48   0.0000       0.900771        24.5112 
  49   0.0000       0.900771        24.5112 
  50   0.0000       0.900771        24.5112 
  51   0.0000       0.972432        26.4612 
  52   0.0000       0.972432        26.4612 
  53   0.0000       0.972432        26.4612 
  54   0.0000       0.972432        26.4612 
  55   0.0000       0.972432        26.4612 
  56   0.0000       0.972432        26.4612 
  57   0.0000       0.972432        26.4612 
  58   0.0000       0.972432        26.4612 
  59   0.0000       0.972432        26.4612 
  60   0.0000       0.972432        26.4612 
  61   0.0000       0.972432        26.4612 
  62   0.0000       1.371867        37.3304 
  63   0.0000       1.445352        39.3300 
  64   0.0000       1.445352        39.3300 
  65   0.0000       1.445352        39.3300 
  66   0.0000       1.445352        39.3300 
  67   0.0000       1.445352        39.3300 
  68   0.0000       1.445352        39.3300 
  69   0.0000       1.445352        39.3300 
  70   0.0000       1.962424        53.4003 
  71   0.0000       1.962424        53.4003 
  72   0.0000       1.962424        53.4003 
  73   0.0000       2.247698        61.1630 
  74   0.0000       2.247698        61.1630 
  75   0.0000       2.247698        61.1630 
  76   0.0000       2.247698        61.1630 
  77   0.0000       2.247698        61.1630 
  78   0.0000       3.163394        86.0803 
  79   0.0000       3.163394        86.0803 
  80   0.0000       3.163394        86.0803 
  81   0.0000       3.163394        86.0803 
  82   0.0000       3.163394        86.0803 
  83   0.0000       3.163394        86.0803 
  84   0.0000       3.163394        86.0803 
  85   0.0000       3.163394        86.0803 
  86   0.0000       3.163394        86.0803 
  87   0.0000       3.861949       105.0890 
  88   0.0000       3.861949       105.0890 
  89   0.0000       3.861949       105.0890 
  90   0.0000       3.861949       105.0890 
  91   0.0000       3.861949       105.0890 
  92   0.0000       3.861949       105.0890 
  93   0.0000       3.861949       105.0890 
  94   0.0000       4.656013       126.6965 
  95   0.0000       5.737247       156.1184 
  96   0.0000       5.737247       156.1184 
  97   0.0000       5.737247       156.1184 
  98   0.0000       5.954403       162.0275 
  99   0.0000       5.954403       162.0275 
 100   0.0000       5.954403       162.0275 
 101   0.0000       5.954403       162.0275 
 102   0.0000       5.954403       162.0275 
 103   0.0000       6.119124       166.5098 
 104   0.0000       6.119124       166.5098 
 105   0.0000       6.119124       166.5098 
 106   0.0000       6.119124       166.5098 
 107   0.0000       6.119124       166.5098 
 108   0.0000       6.119124       166.5098 
 109   0.0000       6.119124       166.5098 
 110   0.0000       6.119124       166.5098 
 111   0.0000       6.119124       166.5098 
 112   0.0000       6.119124       166.5098 
 113   0.0000       6.119124       166.5098 
 114   0.0000       9.970344       271.3068 
 115   0.0000       9.970344       271.3068 
 116   0.0000       9.970344       271.3068 
 117   0.0000       9.970344       271.3068 
 118   0.0000       9.970344       271.3068 
 119   0.0000       9.970344       271.3068 
 120   0.0000       9.970344       271.3068 
 121   0.0000       9.970344       271.3068 
 122   0.0000       9.970344       271.3068 
 123   0.0000      14.078042       383.0830 
 124   0.0000      14.078042       383.0830 
 125   0.0000      14.078042       383.0830 
 126   0.0000      14.078042       383.0830 
 127   0.0000      14.078042       383.0830 
 128   0.0000      14.078042       383.0830 
 129   0.0000      14.078042       383.0830 
 130   0.0000      18.307485       498.1720 
 131   0.0000      18.307485       498.1720 
 132   0.0000      18.307485       498.1720 
 133   0.0000      18.307485       498.1720 
 134   0.0000      18.307485       498.1720 
 135   0.0000      48.554465      1321.2342 
 136   0.0000      69.093568      1880.1316 
 137   0.0000      69.093568      1880.1316 
 138   0.0000      69.093568      1880.1316 
 139   0.0000      69.093568      1880.1316 
 140   0.0000      69.093568      1880.1316 

                 SPIN DOWN ORBITALS
  NO   OCC          E(Eh)            E(eV) 
   0   1.0000    -114.155975     -3106.3420 
   1   1.0000     -10.830018      -294.6998 
   2   1.0000      -8.442353      -229.7281 
   3   1.0000      -8.442353      -229.7281 
   4   1.0000      -8.442353      -229.7281 
   5   1.0000      -0.884225       -24.0610 
   6   1.0000      -0.377996       -10.2858 
   7   1.0000      -0.377996       -10.2858 
   8   1.0000      -0.377996       -10.2858 
   9   0.0000       0.008920         0.2427 
  10   0.0000       0.035367         0.9624 
  11   0.0000       0.035367         0.9624 
  12   0.0000       0.035367         0.9624 
  13   0.0000       0.138440         3.7671 
  14   0.0000       0.138440         3.7671 
  15   0.0000       0.138440         3.7671 
  16   0.0000       0.138440         3.7671 
  17   0.0000       0.138440         3.7671 
  18   0.0000       0.184583         5.0227 
  19   0.0000       0.184583         5.0227 
  20   0.0000       0.184583         5.0227 
  21   0.0000       0.339874         9.2484 
  22   0.0000       0.360018         9.7966 
  23   0.0000       0.360018         9.7966 
  24   0.0000       0.360018         9.7966 
  25   0.0000       0.360018         9.7966 
  26   0.0000       0.360018         9.7966 
  27   0.0000       0.379998        10.3403 
  28   0.0000       0.379998        10.3403 
  29   0.0000       0.379998        10.3403 
  30   0.0000       0.379998        10.3403 
  31   0.0000       0.379998        10.3403 
  32   0.0000       0.379998        10.3403 
  33   0.0000       0.379998        10.3403 
  34   0.0000       0.650213        17.6932 
  35   0.0000       0.650213        17.6932 
  36   0.0000       0.650213        17.6932 
  37   0.0000       0.650213        17.6932 
  38   0.0000       0.650213        17.6932 
  39   0.0000       0.650213        17.6932 
  40   0.0000       0.650213        17.6932 
  41   0.0000       0.650213        17.6932 
  42   0.0000       0.650213        17.6932 
  43   0.0000       0.655853        17.8467 
  44   0.0000       0.655853        17.8467 
  45   0.0000       0.655853        17.8467 
  46   0.0000       0.900771        24.5112 
  47   0.0000       0.900771        24.5112 
  48   0.0000       0.900771        24.5112 
  49   0.0000       0.900771        24.5112 
  50   0.0000       0.900771        24.5112 
  51   0.0000       0.972432        26.4612 
  52   0.0000       0.972432        26.4612 
  53   0.0000       0.972432        26.4612 
  54   0.0000       0.972432        26.4612 
  55   0.0000       0.972432        26.4612 
  56   0.0000       0.972432        26.4612 
  57   0.0000       0.972432        26.4612 
  58   0.0000       0.972432        26.4612 
  59   0.0000       0.972432        26.4612 
  60   0.0000       0.972432        26.4612 
  61   0.0000       0.972432        26.4612 
  62   0.0000       1.371867        37.3304 
  63   0.0000       1.445352        39.3300 
  64   0.0000       1.445352        39.3300 
  65   0.0000       1.445352        39.3300 
  66   0.0000       1.445352        39.3300 
  67   0.0000       1.445352        39.3300 
  68   0.0000       1.445352        39.3300 
  69   0.0000       1.445352        39.3300 
  70   0.0000       1.962424        53.4003 
  71   0.0000       1.962424        53.4003 
  72   0.0000       1.962424        53.4003 
  73   0.0000       2.247698        61.1630 
  74   0.0000       2.247698        61.1630 
  75   0.0000       2.247698        61.1630 
  76   0.0000       2.247698        61.1630 
  77   0.0000       2.247698        61.1630 
  78   0.0000       3.163394        86.0803 
  79   0.0000       3.163394        86.0803 
  80   0.0000       3.163394        86.0803 
  81   0.0000       3.163394        86.0803 
  82   0.0000       3.163394        86.0803 
  83   0.0000       3.163394        86.0803 
  84   0.0000       3.163394        86.0803 
  85   0.0000       3.163394        86.0803 
  86   0.0000       3.163394        86.0803 
  87   0.0000       3.861949       105.0890 
  88   0.0000       3.861949       105.0890 
  89   0.0000       3.861949       105.0890 
  90   0.0000       3.861949       105.0890 
  91   0.0000       3.861949       105.0890 
  92   0.0000       3.861949       105.0890 
  93   0.0000       3.861949       105.0890 
  94   0.0000       4.656013       126.6965 
  95   0.0000       5.737247       156.1184 
  96   0.0000       5.737247       156.1184 
  97   0.0000       5.737247       156.1184 
  98   0.0000       5.954403       162.0275 
  99   0.0000       5.954403       162.0275 
 100   0.0000       5.954403       162.0275 
 101   0.0000       5.954403       162.0275 
 102   0.0000       5.954403       162.0275 
 103   0.0000       6.119124       166.5098 
 104   0.0000       6.119124       166.5098 
 105   0.0000       6.119124       166.5098 
 106   0.0000       6.119124       166.5098 
 107   0.0000       6.119124       166.5098 
 108   0.0000       6.119124       166.5098 
 109   0.0000       6.119124       166.5098 
 110   0.0000       6.119124       166.5098 
 111   0.0000       6.119124       166.5098 
 112   0.0000       6.119124       166.5098 
 113   0.0000       6.119124       166.5098 
 114   0.0000       9.970344       271.3068 
 115   0.0000       9.970344       271.3068 
 116   0.0000       9.970344       271.3068 
 117   0.0000       9.970344       271.3068 
 118   0.0000       9.970344       271.3068 
 119   0.0000       9.970344       271.3068 
 120   0.0000       9.970344       271.3068 
 121   0.0000       9.970344       271.3068 
 122   0.0000       9.970344       271.3068 
 123   0.0000      14.078042       383.0830 
 124   0.0000      14.078042       383.0830 
 125   0.0000      14.078042       383.0830 
 126   0.0000      14.078042       383.0830 
 127   0.0000      14.078042       383.0830 
 128   0.0000      14.078042       383.0830 
 129   0.0000      14.078042       383.0830 
 130   0.0000      18.307485       498.1720 
 131   0.0000      18.307485       498.1720 
 132   0.0000      18.307485       498.1720 
 133   0.0000      18.307485       498.1720 
 134   0.0000      18.307485       498.1720 
 135   0.0000      48.554465      1321.2342 
 136   0.0000      69.093568      1880.1316 
 137   0.0000      69.093568      1880.1316 
 138   0.0000      69.093568      1880.1316 
 139   0.0000      69.093568      1880.1316 
 140   0.0000      69.093568      1880.1316 

                    ********************************
                    * MULLIKEN POPULATION ANALYSIS *
                    ********************************

--------------------------------------------
MULLIKEN ATOMIC CHARGES AND SPIN POPULATIONS
--------------------------------------------
   0 Ar:    0.000000    0.000000
Sum of atomic charges         :    0.0000000
Sum of atomic spin populations:    0.0000000

-----------------------------------------------------
MULLIKEN REDUCED ORBITAL CHARGES AND SPIN POPULATIONS
-----------------------------------------------------
CHARGE
  0 Ars       :     6.000000  s :     6.000000
      pz      :     4.000000  p :    12.000000
      px      :     4.000000
      py      :     4.000000
      dz2     :     0.000000  d :     0.000000
      dxz     :     0.000000
      dyz     :     0.000000
      dx2y2   :     0.000000
      dxy     :     0.000000
      f0      :     0.000000  f :     0.000000
      f+1     :     0.000000
      f-1     :     0.000000
      f+2     :     0.000000
      f-2     :     0.000000
      f+3     :     0.000000
      f-3     :     0.000000
      g0      :     0.000000  g :     0.000000
      g+1     :     0.000000
      g-1     :     0.000000
      g+2     :     0.000000
      g-2     :     0.000000
      g+3     :     0.000000
      g-3     :     0.000000
      g+4     :     0.000000
      g-4     :     0.000000
      h0      :     0.000000  h :     0.000000
      h+1     :     0.000000
      h-1     :     0.000000
      h+2     :     0.000000
      h-2     :     0.000000
      h+3     :     0.000000
      h-3     :     0.000000
      h+4     :     0.000000
      h-4     :     0.000000
      h+5     :     0.000000
      h-5     :     0.000000

SPIN
  0 Ars       :     0.000000  s :     0.000000
      pz      :    -0.000000  p :     0.000000
      px      :     0.000000
      py      :     0.000000
      dz2     :    -0.000000  d :    -0.000000
      dxz     :    -0.000000
      dyz     :     0.000000
      dx2y2   :    -0.000000
      dxy     :    -0.000000
      f0      :    -0.000000  f :     0.000000
      f+1     :     0.000000
      f-1     :     0.000000
      f+2     :     0.000000
      f-2     :    -0.000000
      f+3     :     0.000000
      f-3     :     0.000000
      g0      :    -0.000000  g :    -0.000000
      g+1     :     0.000000
      g-1     :    -0.000000
      g+2     :    -0.000000
      g-2     :    -0.000000
      g+3     :    -0.000000
      g-3     :    -0.000000
      g+4     :    -0.000000
      g-4     :     0.000000
      h0      :    -0.000000  h :    -0.000000
      h+1     :    -0.000000
      h-1     :    -0.000000
      h+2     :     0.000000
      h-2     :     0.000000
      h+3     :    -0.000000
      h-3     :    -0.000000
      h+4     :    -0.000000
      h-4     :    -0.000000
      h+5     :     0.000000
      h-5     :    -0.000000


                     *******************************
                     * LOEWDIN POPULATION ANALYSIS *
                     *******************************

-------------------------------------------
LOEWDIN ATOMIC CHARGES AND SPIN POPULATIONS
-------------------------------------------
   0 Ar:    0.000000    0.000000

----------------------------------------------------
LOEWDIN REDUCED ORBITAL CHARGES AND SPIN POPULATIONS
----------------------------------------------------
CHARGE
  0 Ars       :     6.000000  s :     6.000000
      pz      :     4.000000  p :    12.000000
      px      :     4.000000
      py      :     4.000000
      dz2     :     0.000000  d :     0.000000
      dxz     :     0.000000
      dyz     :     0.000000
      dx2y2   :     0.000000
      dxy     :     0.000000
      f0      :     0.000000  f :     0.000000
      f+1     :     0.000000
      f-1     :     0.000000
      f+2     :     0.000000
      f-2     :     0.000000
      f+3     :     0.000000
      f-3     :     0.000000
      g0      :     0.000000  g :     0.000000
      g+1     :     0.000000
      g-1     :     0.000000
      g+2     :     0.000000
      g-2     :     0.000000
      g+3     :     0.000000
      g-3     :     0.000000
      g+4     :     0.000000
      g-4     :     0.000000
      h0      :     0.000000  h :     0.000000
      h+1     :     0.000000
      h-1     :     0.000000
      h+2     :     0.000000
      h-2     :     0.000000
      h+3     :     0.000000
      h-3     :     0.000000
      h+4     :     0.000000
      h-4     :     0.000000
      h+5     :     0.000000
      h-5     :     0.000000

SPIN
  0 Ars       :     0.000000  s :     0.000000
      pz      :    -0.000000  p :     0.000000
      px      :     0.000000
      py      :     0.000000
      dz2     :    -0.000000  d :    -0.000000
      dxz     :    -0.000000
      dyz     :     0.000000
      dx2y2   :    -0.000000
      dxy     :    -0.000000
      f0      :    -0.000000  f :     0.000000
      f+1     :     0.000000
      f-1     :     0.000000
      f+2     :     0.000000
      f-2     :    -0.000000
      f+3     :     0.000000
      f-3     :     0.000000
      g0      :    -0.000000  g :    -0.000000
      g+1     :     0.000000
      g-1     :    -0.000000
      g+2     :    -0.000000
      g-2     :    -0.000000
      g+3     :    -0.000000
      g-3     :    -0.000000
      g+4     :    -0.000000
      g-4     :     0.000000
      h0      :    -0.000000  h :    -0.000000
      h+1     :    -0.000000
      h-1     :    -0.000000
      h+2     :     0.000000
      h-2     :     0.000000
      h+3     :    -0.000000
      h-3     :    -0.000000
      h+4     :    -0.000000
      h-4     :    -0.000000
      h+5     :     0.000000
      h-5     :    -0.000000


                      *****************************
                      * MAYER POPULATION ANALYSIS *
                      *****************************

  NA   - Mulliken gross atomic population
  ZA   - Total nuclear charge
  QA   - Mulliken gross atomic charge
  VA   - Mayer's total valence
  BVA  - Mayer's bonded valence
  FA   - Mayer's free valence

  ATOM       NA         ZA         QA         VA         BVA        FA
  0 Ar    18.0000    18.0000     0.0000     0.0000     0.0000     0.0000

  Mayer bond orders larger than 0.1


-------
TIMINGS
-------

Total SCF time: 0 days 0 hours 0 min 11 sec 

Total time                  ....      11.534 sec
Sum of individual times     ....      10.999 sec  ( 95.4%)

Fock matrix formation       ....      10.399 sec  ( 90.2%)
  XC integration            ....       1.114 sec  ( 10.7% of F)
    Basis function eval.    ....       0.111 sec  ( 10.0% of XC)
    Density eval.           ....       0.168 sec  ( 15.1% of XC)
    XC-Functional eval.     ....       0.043 sec  (  3.9% of XC)
    XC-Potential eval.      ....       0.500 sec  ( 44.8% of XC)
Diagonalization             ....       0.107 sec  (  0.9%)
Density matrix formation    ....       0.004 sec  (  0.0%)
Population analysis         ....       0.031 sec  (  0.3%)
Initial guess               ....       0.189 sec  (  1.6%)
Orbital Transformation      ....       0.000 sec  (  0.0%)
Orbital Orthonormalization  ....       0.000 sec  (  0.0%)
DIIS solution               ....       0.079 sec  (  0.7%)
Grid generation             ....       0.190 sec  (  1.6%)

-------------------------   --------------------
FINAL SINGLE POINT ENERGY      -527.345935625651
-------------------------   --------------------


                            ***************************************
                            *     ORCA property calculations      *
                            ***************************************

                                    ---------------------
                                    Active property flags
                                    ---------------------
   (+) Dipole Moment
   (+) Polarizability


------------------------------------------------------------------------------
                       ORCA ELECTRIC PROPERTIES CALCULATION
------------------------------------------------------------------------------

Dipole Moment Calculation                       ... on
Quadrupole Moment Calculation                   ... off
Polarizability Calculation                      ... Analytic (CP-SCF)
GBWName                                         ... ar_pbe.gbw
Electron density file                           ... ar_pbe.scfp.tmp
The origin for moment calculation is the CENTER OF MASS  = ( 0.000000,  0.000000  0.000000)

-------------
DIPOLE MOMENT
-------------
                                X             Y             Z
Electronic contribution:     -0.00000       0.00000      -0.00000
Nuclear contribution   :      0.00000       0.00000       0.00000
                        -----------------------------------------
Total Dipole Moment    :     -0.00000       0.00000      -0.00000
                        -----------------------------------------
Magnitude (a.u.)       :      0.00000
Magnitude (Debye)      :      0.00000



--------------------
Rotational spectrum 
--------------------
 
Rotational constants in cm-1:     0.000000     0.000000     0.000000 
Rotational constants in MHz :     0.000000     0.000000     0.000000 

 Dipole components along the rotational axes: 
x,y,z [a.u.] :    -0.000000     0.000000    -0.000000 
x,y,z [Debye]:    -0.000000     0.000000    -0.000000 

 
Transforming and storing MO dipole integrals   ... done

                ... starting polarizability calculation

Opening the Dipole integral file               ... (ar_pbe.dmo.tmp) done
Reading Dipole-MO integrals                    ... done
Solving CP-SCF equations                       ... 

           ************************************************************
           *        Program running with 4 parallel MPI-processes     *
           *              working on a common directory               *
           ************************************************************

------------------------------------------------------------------------------
                           ORCA CP-SCF CALCULATION
------------------------------------------------------------------------------

Input orbitals are from        ... ar_pbe.gbw
Input Perturbation             ... ar_pbe.cpv.tmp
Wavefunction output            ... ar_pbe.cpu.tmp
Perturbation mode              ... Real perturbation (singlet)
Solver                         ... POPLE
Max. number of iterations      ... 200
Convergence tolerance          ... 1.000e-06
Integral handling              ... Direct
Number of perturbations        ... 3
Number of operators            ... 2
Orbital ranges used for CP-SCF:
 Operator 0:  Orbitals   0...  8  to   9...140
 Operator 1:  Orbitals   0...  8  to   9...140
DFT calculation                         ... on
Exchange functional (SCF)               ... PBE
Exchange functional (CP-SCF)            ... PBE
   PBE kappa parameter  XKappa (SCF)    ...  0.804000
   PBE kappa parameter  XKappa (CP-SCF) ...  0.804000
   PBE mue parameter   XMuePBE (SCF)    ...  0.219520
   PBE mue parameter   XMuePBE (CP-SCF) ...  0.219520
Correlation functional (SCF)            ... PBE
Correlation functional (CP-SCF)         ... PBE
   PBE beta parameter CBetaPBE (SCF)    ...  0.066725
   PBE beta parameter CBetaPBE (CP-SCF) ...  0.066725
 LDA part of GGA corr.  LDAOpt (SCF)    ... PW91-LDA
 LDA part of GGA corr.  LDAOpt (CP-SCF) ... PW91-LDA
Variables per vector in CP-SCF ... 2376
Number of vectors sought       ... 3
Recalculating density on grid  ... done
Calculating the xc-kernel      ... done
     CP-SCF ITERATION   0: 
     CP-SCF ITERATION   1:      0.003536950779
     CP-SCF ITERATION   2:      0.000004618695
     CP-SCF ITERATION   3:      0.000000003947
done
Reading CP-SCF coefficients                    ... done
Doing the polarizability tensor   ... done
Cleaning up                                    ... done

-------------------------
THE POLARIZABILITY TENSOR
-------------------------

The raw cartesian tensor (atomic units):
   11.92631      0.00000      0.00000  
    0.00000     11.92631     -0.00000  
    0.00000     -0.00000     11.92631  
diagonalized tensor: 
   11.92631     11.92631     11.92631  

   -0.18523     -0.31899     -0.92948  
    0.32750      0.87174     -0.36444  
    0.92652     -0.37191     -0.05700  

Isotropic polarizability :  11.92631


Timings for individual modules:

Sum of individual times         ...       44.898 sec (=   0.748 min)
GTO integral calculation        ...        7.144 sec (=   0.119 min)  15.9 %
SCF iterations                  ...       17.993 sec (=   0.300 min)  40.1 %
Solution of CP-SCF eqns.        ...       19.761 sec (=   0.329 min)  44.0 %
                             ****ORCA TERMINATED NORMALLY****
TOTAL RUN TIME: 0 days 0 hours 0 minutes 50 seconds 924 msec
