
                                 *****************
                                 * O   R   C   A *
                                 *****************

           --- An Ab Initio, DFT and Semiempirical electronic structure package ---

                  #######################################################
                  #                        -***-                        #
                  #          Department of theory and spectroscopy      #
                  #               Directorship: Frank Neese             #
                  #        Max Planck Institute fuer Kohlenforschung    #
                  #                Kaiser Wilhelm Platz 1               #
                  #                 D-45470 Muelheim/Ruhr               #
                  #                      Germany                        #
                  #                                                     #
                  #                  All rights reserved                #
                  #                        -***-                        #
                  #######################################################


                         Program Version 4.1.2  - RELEASE  -


 With contributions from (in alphabetic order):
   Daniel Aravena         : Magnetic Properties
   Michael Atanasov       : Ab Initio Ligand Field Theory
   Alexander A. Auer      : GIAO ZORA
   Ute Becker             : Parallelization
   Giovanni Bistoni       : ED, Open-shell LED
   Martin Brehm           : Molecular dynamics
   Dmytro Bykov           : SCF Hessian
   Vijay G. Chilkuri      : MRCI spin determinant printing
   Dipayan Datta          : RHF DLPNO-CCSD density
   Achintya Kumar Dutta   : EOM-CC, STEOM-CC
   Dmitry Ganyushin       : Spin-Orbit,Spin-Spin,Magnetic field MRCI
   Miquel Garcia          : C-PCM Hessian
   Yang Guo               : DLPNO-NEVPT2, CIM, IAO-localization
   Andreas Hansen         : Spin unrestricted coupled pair/coupled cluster methods
   Benjamin Helmich-Paris : CASSCF linear response (MC-RPA)
   Lee Huntington         : MR-EOM, pCC
   Robert Izsak           : Overlap fitted RIJCOSX, COSX-SCS-MP3, EOM
   Christian Kollmar      : KDIIS, OOCD, Brueckner-CCSD(T), CCSD density
   Simone Kossmann        : Meta GGA functionals, TD-DFT gradient, OOMP2, MP2 Hessian
   Martin Krupicka        : AUTO-CI
   Lucas Lang             : DCDCAS
   Dagmar Lenk            : GEPOL surface, SMD
   Dimitrios Liakos       : Extrapolation schemes; parallel MDCI
   Dimitrios Manganas     : ROCIS; embedding schemes
   Dimitrios Pantazis     : SARC Basis sets
   Taras Petrenko         : DFT Hessian,TD-DFT gradient, ASA, ECA, R-Raman, ABS, FL, XAS/XES, NRVS
   Peter Pinski           : DLPNO-MP2, DLPNO-MP2 Gradient
   Christoph Reimann      : Effective Core Potentials
   Marius Retegan         : Local ZFS, SOC
   Christoph Riplinger    : Optimizer, TS searches, QM/MM, DLPNO-CCSD(T), (RO)-DLPNO pert. Triples
   Tobias Risthaus        : Range-separated hybrids, TD-DFT gradient, RPA, STAB
   Michael Roemelt        : Restricted open shell CIS
   Masaaki Saitow         : Open-shell DLPNO
   Barbara Sandhoefer     : DKH picture change effects
   Avijit Sen             : IP-ROCIS
   Kantharuban Sivalingam : CASSCF convergence, NEVPT2, FIC-MRCI
   Bernardo de Souza      : ESD, SOC TD-DFT
   Georgi Stoychev        : AutoAux, RI-MP2 NMR
   Willem Van den Heuvel  : Paramagnetic NMR
   Boris Wezisla          : Elementary symmetry handling
   Frank Wennmohs         : Technical directorship


 We gratefully acknowledge several colleagues who have allowed us to
 interface, adapt or use parts of their codes:
   Stefan Grimme, W. Hujo, H. Kruse,             : VdW corrections, initial TS optimization,
                  C. Bannwarth                     DFT functionals, gCP, sTDA/sTD-DF
   Ed Valeev                                     : LibInt (2-el integral package), F12 methods
   Garnet Chan, S. Sharma, J. Yang, R. Olivares  : DMRG
   Ulf Ekstrom                                   : XCFun DFT Library
   Mihaly Kallay                                 : mrcc  (arbitrary order and MRCC methods)
   Andreas Klamt, Michael Diedenhofen            : otool_cosmo (COSMO solvation model)
   Jiri Pittner, Ondrej Demel                    : Mk-CCSD
   Frank Weinhold                                : gennbo (NPA and NBO analysis)
   Christopher J. Cramer and Donald G. Truhlar   : smd solvation model
   Lars Goerigk                                  : TD-DFT with DH, B97 family of functionals
   V. Asgeirsson, H. Jonsson                     : NEB implementation
   FAccTs GmbH                                   : IRC, NEB, NEB-TS, Multilevel


 Your calculation uses the libint2 library for the computation of 2-el integrals
 For citations please refer to: http://libint.valeyev.net

 This ORCA versions uses:
   CBLAS   interface :  Fast vector & matrix operations
   LAPACKE interface :  Fast linear algebra routines
   SCALAPACK package :  Parallel linear algebra routines


----- Orbital basis set information -----
Your calculation utilizes the basis: aug-pc-4
   H, C-F              : F. Jensen, J. Chem. Phys. 115, 9113 (2001).
                         F. Jensen, J. Chem. Phys. 116, 7372 (2002).
                         F. Jensen, J. Chem. Phys. 117, 9234 (2002).
   Si-Cl               : F. Jensen, T. Helgaker, J. Chem. Phys. 121, 3463 (2004).
   He-B, Ne-Mg, Al, Ar : F. Jensen, J. Phys. Chem. A 111, 11198 (2007).
   K, Ca, Ga-Kr        : F. Jensen, J. Chem. Phys. 136, 094110 (2012).
   Sc-Zn               : F. Jensen, J. Chem. Phys. 138, 014107 (2013).

================================================================================
                                        WARNINGS
                       Please study these warnings very carefully!
================================================================================


INFO   : the flag for use of LIBINT has been found!

================================================================================
                                       INPUT FILE
================================================================================
NAME = be_pbe.inp
|  1> !uks pbe nori aug-pc-4 grid5 nofinalgrid verytightscf
|  2> 
|  3> %maxcore 1500
|  4> 
|  5> %pal nprocs 4 end
|  6> 
|  7> %scf
|  8> 	maxiter 200
|  9> end
| 10> %elprop
| 11> 	dipole true
| 12> 	 polar 1
| 13> 	 maxiter 200
| 14> end
| 15> 
| 16> * xyz 0 1
| 17> Be 0.0 0.0 0.0
| 18> *
| 19> 
| 20>                          ****END OF INPUT****
================================================================================

                       ****************************
                       * Single Point Calculation *
                       ****************************

---------------------------------
CARTESIAN COORDINATES (ANGSTROEM)
---------------------------------
  Be     0.000000    0.000000    0.000000

----------------------------
CARTESIAN COORDINATES (A.U.)
----------------------------
  NO LB      ZA    FRAG     MASS         X           Y           Z
   0 Be    4.0000    0     9.012    0.000000    0.000000    0.000000

--------------------------------
INTERNAL COORDINATES (ANGSTROEM)
--------------------------------
 Be     0   0   0     0.000000000000     0.00000000     0.00000000

---------------------------
INTERNAL COORDINATES (A.U.)
---------------------------
 Be     0   0   0     0.000000000000     0.00000000     0.00000000

---------------------
BASIS SET INFORMATION
---------------------
There are 1 groups of distinct atoms

 Group   1 Type Be  : 31s9p4d3f2g contracted to 9s5p4d3f2g pattern {12121111111/51111/1111/111/11}

Atom   0Be   basis set group =>   1


           ************************************************************
           *        Program running with 4 parallel MPI-processes     *
           *              working on a common directory               *
           ************************************************************
------------------------------------------------------------------------------
                           ORCA GTO INTEGRAL CALCULATION
------------------------------------------------------------------------------

                         BASIS SET STATISTICS AND STARTUP INFO

 # of primitive gaussian shells          ...   49
 # of primitive gaussian functions       ...  117
 # of contracted shells                  ...   23
 # of contracted basis functions         ...   83
 Highest angular momentum                ...    4
 Maximum contraction depth               ...   12
 Integral package used                   ... LIBINT
 Integral threshhold            Thresh   ...  1.000e-12
 Primitive cut-off              TCut     ...  1.000e-14


------------------------------ INTEGRAL EVALUATION ----------------------------


 * One electron integrals 
 Pre-screening matrix                    ... done
 Shell pair data                         ... done (   0.000 sec)



           ************************************************************
           *        Program running with 4 parallel MPI-processes     *
           *              working on a common directory               *
           ************************************************************
-------------------------------------------------------------------------------
                                 ORCA SCF
-------------------------------------------------------------------------------

------------
SCF SETTINGS
------------
Hamiltonian:
 Density Functional     Method          .... DFT(GTOs)
 Exchange Functional    Exchange        .... PBE
   PBE kappa parameter   XKappa         ....  0.804000
   PBE mue parameter    XMuePBE         ....  0.219520
 Correlation Functional Correlation     .... PBE
   PBE beta parameter  CBetaPBE         ....  0.066725
 LDA part of GGA corr.  LDAOpt          .... PW91-LDA
 Gradients option       PostSCFGGA      .... off
   Density functional embedding theory  .... OFF
   NL short-range parameter             ....  6.400000


General Settings:
 Integral files         IntName         .... be_pbe
 Hartree-Fock type      HFTyp           .... UHF
 Total Charge           Charge          ....    0
 Multiplicity           Mult            ....    1
 Number of Electrons    NEL             ....    4
 Basis Dimension        Dim             ....   83
 Nuclear Repulsion      ENuc            ....      0.0000000000 Eh

Convergence Acceleration:
 DIIS                   CNVDIIS         .... on
   Start iteration      DIISMaxIt       ....    12
   Startup error        DIISStart       ....  0.200000
   # of expansion vecs  DIISMaxEq       ....     5
   Bias factor          DIISBfac        ....   1.050
   Max. coefficient     DIISMaxC        ....  10.000
 Newton-Raphson         CNVNR           .... off
 SOSCF                  CNVSOSCF        .... off
 Level Shifting         CNVShift        .... on
   Level shift para.    LevelShift      ....    0.2500
   Turn off err/grad.   ShiftErr        ....    0.0010
 Zerner damping         CNVZerner       .... off
 Static damping         CNVDamp         .... on
   Fraction old density DampFac         ....    0.7000
   Max. Damping (<1)    DampMax         ....    0.9800
   Min. Damping (>=0)   DampMin         ....    0.0000
   Turn off err/grad.   DampErr         ....    0.1000
 Fernandez-Rico         CNVRico         .... off

SCF Procedure:
 Maximum # iterations   MaxIter         ....   200
 SCF integral mode      SCFMode         .... Direct
   Integral package                     .... LIBINT
 Reset frequency        DirectResetFreq ....    20
 Integral Threshold     Thresh          ....  1.000e-12 Eh
 Primitive CutOff       TCut            ....  1.000e-14 Eh

Convergence Tolerance:
 Convergence Check Mode ConvCheckMode   .... Total+1el-Energy
 Convergence forced     ConvForced      .... 0
 Energy Change          TolE            ....  1.000e-09 Eh
 1-El. energy change                    ....  1.000e-06 Eh
 DIIS Error             TolErr          ....  1.000e-08


Diagonalization of the overlap matrix:
Smallest eigenvalue                        ... 2.166e-04
Time for diagonalization                   ...    0.042 sec
Threshold for overlap eigenvalues          ... 1.000e-08
Number of eigenvalues below threshold      ... 0
Time for construction of square roots      ...    0.010 sec
Total time needed                          ...    0.053 sec

-------------------
DFT GRID GENERATION
-------------------

General Integration Accuracy     IntAcc      ...  5.010
Radial Grid Type                 RadialGrid  ... Gauss-Chebyshev
Angular Grid (max. acc.)         AngularGrid ... Lebedev-434
Angular grid pruning method      GridPruning ... 3 (G Style)
Weight generation scheme         WeightScheme... Becke
Basis function cutoff            BFCut       ...    1.0000e-12
Integration weight cutoff        WCut        ...    1.0000e-14
Grids for H and He will be reduced by one unit

# of grid points (after initial pruning)     ...  10470 (   0.0 sec)
# of grid points (after weights+screening)   ...  10470 (   0.0 sec)
Grid point division into batches done        ...    0.1 sec
Reduced shell lists constructed in    0.1 sec

Total number of grid points                  ...    10470
Total number of batches                      ...      164
Average number of points per batch           ...       63
Average number of grid points per atom       ...    10470
Average number of shells per batch           ...    11.81 (51.35%)
Average number of basis functions per batch  ...    41.90 (50.49%)
Average number of large shells per batch     ...     9.71 (82.26%)
Average number of large basis fcns per batch ...    34.48 (82.27%)
Maximum spatial batch extension              ...  25.34, 25.34, 25.34 au
Average spatial batch extension              ...   4.25,  4.17,  4.08 au

Time for grid setup =    0.128 sec

------------------------------
INITIAL GUESS: MODEL POTENTIAL
------------------------------
Loading Hartree-Fock densities                     ... done
Calculating cut-offs                               ... done
Setting up the integral package                    ... done
Initializing the effective Hamiltonian             ... done
Starting the Coulomb interaction                   ... done (   0.0 sec)
Reading the grid                                   ... done
Mapping shells                                     ... done
Starting the XC term evaluation                    ... done (   0.0 sec)
  promolecular density results
     # of electrons  =      4.000000132
     EX              =     -2.636373641
     EC              =     -0.085389661
     EX+EC           =     -2.721763302
Transforming the Hamiltonian                       ... done (   0.0 sec)
Diagonalizing the Hamiltonian                      ... done (   0.0 sec)
Back transforming the eigenvectors                 ... done (   0.0 sec)
Now organizing SCF variables                       ... done
                      ------------------
                      INITIAL GUESS DONE (   0.3 sec)
                      ------------------
--------------
SCF ITERATIONS
--------------
ITER       Energy         Delta-E        Max-DP      RMS-DP      [F,P]     Damp
               ***  Starting incremental Fock matrix formation  ***
  0    -14.6299410958   0.000000000000 0.00138394  0.00002860  0.0049132 0.7000
  1    -14.6299451043  -0.000004008542 0.00141267  0.00002670  0.0033373 0.7000
                               ***Turning on DIIS***
  2    -14.6299482318  -0.000003127531 0.00372048  0.00006737  0.0022449 0.0000
  3    -14.6299549325  -0.000006700616 0.00067462  0.00001202  0.0001860 0.0000
  4    -14.6299550014  -0.000000068921 0.00005223  0.00000118  0.0000084 0.0000
  5    -14.6299550016  -0.000000000192 0.00000197  0.00000005  0.0000006 0.0000
                 **** Energy Check signals convergence ****

               *****************************************************
               *                     SUCCESS                       *
               *           SCF CONVERGED AFTER   6 CYCLES          *
               *****************************************************


----------------
TOTAL SCF ENERGY
----------------

Total Energy       :          -14.62995500 Eh            -398.10131 eV

Components:
Nuclear Repulsion  :            0.00000000 Eh               0.00000 eV
Electronic Energy  :          -14.62995500 Eh            -398.10131 eV
One Electron Energy:          -19.07965109 Eh            -519.18370 eV
Two Electron Energy:            4.44969609 Eh             121.08239 eV

Virial components:
Potential Energy   :          -29.18892864 Eh            -794.27113 eV
Kinetic Energy     :           14.55897364 Eh             396.16981 eV
Virial Ratio       :            2.00487544


DFT components:
N(Alpha)           :        1.999999998570 electrons
N(Beta)            :        1.999999998570 electrons
N(Total)           :        3.999999997140 electrons
E(X)               :       -2.633462269792 Eh       
E(C)               :       -0.085424780312 Eh       
E(XC)              :       -2.718887050104 Eh       
DFET-embed. en.    :        0.000000000000 Eh       

---------------
SCF CONVERGENCE
---------------

  Last Energy change         ...   -5.4712e-13  Tolerance :   1.0000e-09
  Last MAX-Density change    ...    1.8874e-07  Tolerance :   1.0000e-08
  Last RMS-Density change    ...    4.6642e-09  Tolerance :   1.0000e-09
  Last DIIS Error            ...    1.3763e-07  Tolerance :   1.0000e-08

             **** THE GBW FILE WAS UPDATED (be_pbe.gbw) ****
             **** DENSITY FILE WAS UPDATED (be_pbe.scfp.tmp) ****
             **** ENERGY FILE WAS UPDATED (be_pbe.en.tmp) ****
----------------------
UHF SPIN CONTAMINATION
----------------------

Warning: in a DFT calculation there is little theoretical justification to 
         calculate <S**2> as in Hartree-Fock theory. We will do it anyways
         but you should keep in mind that the values have only limited relevance

Expectation value of <S**2>     :    -0.000000
Ideal value S*(S+1) for S=0.0   :     0.000000
Deviation                       :    -0.000000

----------------
ORBITAL ENERGIES
----------------
                 SPIN UP ORBITALS
  NO   OCC          E(Eh)            E(eV) 
   0   1.0000      -3.902677      -106.1972 
   1   1.0000      -0.206135        -5.6092 
   2   0.0000      -0.074147        -2.0176 
   3   0.0000      -0.074147        -2.0176 
   4   0.0000      -0.074147        -2.0176 
   5   0.0000       0.001072         0.0292 
   6   0.0000       0.021397         0.5822 
   7   0.0000       0.021397         0.5822 
   8   0.0000       0.021397         0.5822 
   9   0.0000       0.057613         1.5677 
  10   0.0000       0.078999         2.1497 
  11   0.0000       0.078999         2.1497 
  12   0.0000       0.078999         2.1497 
  13   0.0000       0.078999         2.1497 
  14   0.0000       0.078999         2.1497 
  15   0.0000       0.120654         3.2832 
  16   0.0000       0.120654         3.2832 
  17   0.0000       0.120654         3.2832 
  18   0.0000       0.182143         4.9564 
  19   0.0000       0.182143         4.9564 
  20   0.0000       0.182143         4.9564 
  21   0.0000       0.182143         4.9564 
  22   0.0000       0.182143         4.9564 
  23   0.0000       0.182143         4.9564 
  24   0.0000       0.182143         4.9564 
  25   0.0000       0.216107         5.8806 
  26   0.0000       0.302987         8.2447 
  27   0.0000       0.302987         8.2447 
  28   0.0000       0.302987         8.2447 
  29   0.0000       0.302987         8.2447 
  30   0.0000       0.302987         8.2447 
  31   0.0000       0.302987         8.2447 
  32   0.0000       0.302987         8.2447 
  33   0.0000       0.302987         8.2447 
  34   0.0000       0.302987         8.2447 
  35   0.0000       0.448774        12.2118 
  36   0.0000       0.448774        12.2118 
  37   0.0000       0.448774        12.2118 
  38   0.0000       0.448774        12.2118 
  39   0.0000       0.448774        12.2118 
  40   0.0000       0.460123        12.5206 
  41   0.0000       0.460123        12.5206 
  42   0.0000       0.460123        12.5206 
  43   0.0000       0.598449        16.2846 
  44   0.0000       0.998662        27.1750 
  45   0.0000       0.998662        27.1750 
  46   0.0000       0.998662        27.1750 
  47   0.0000       0.998662        27.1750 
  48   0.0000       0.998662        27.1750 
  49   0.0000       0.998662        27.1750 
  50   0.0000       0.998662        27.1750 
  51   0.0000       1.470782        40.0220 
  52   0.0000       1.539726        41.8981 
  53   0.0000       1.539726        41.8981 
  54   0.0000       1.539726        41.8981 
  55   0.0000       1.742995        47.4293 
  56   0.0000       1.742995        47.4293 
  57   0.0000       1.742995        47.4293 
  58   0.0000       1.742995        47.4293 
  59   0.0000       1.742995        47.4293 
  60   0.0000       3.295633        89.6787 
  61   0.0000       3.295633        89.6787 
  62   0.0000       3.295633        89.6787 
  63   0.0000       3.295633        89.6787 
  64   0.0000       3.295633        89.6787 
  65   0.0000       3.295633        89.6787 
  66   0.0000       3.295633        89.6787 
  67   0.0000       3.672952        99.9461 
  68   0.0000       3.743341       101.8615 
  69   0.0000       3.743341       101.8615 
  70   0.0000       3.743341       101.8615 
  71   0.0000       3.743341       101.8615 
  72   0.0000       3.743341       101.8615 
  73   0.0000       3.743341       101.8615 
  74   0.0000       3.743341       101.8615 
  75   0.0000       3.743341       101.8615 
  76   0.0000       3.743341       101.8615 
  77   0.0000       9.570393       260.4236 
  78   0.0000       9.570393       260.4236 
  79   0.0000       9.570393       260.4236 
  80   0.0000       9.570393       260.4236 
  81   0.0000       9.570393       260.4236 
  82   0.0000      18.722157       509.4558 

                 SPIN DOWN ORBITALS
  NO   OCC          E(Eh)            E(eV) 
   0   1.0000      -3.902677      -106.1972 
   1   1.0000      -0.206135        -5.6092 
   2   0.0000      -0.074147        -2.0176 
   3   0.0000      -0.074147        -2.0176 
   4   0.0000      -0.074147        -2.0176 
   5   0.0000       0.001072         0.0292 
   6   0.0000       0.021397         0.5822 
   7   0.0000       0.021397         0.5822 
   8   0.0000       0.021397         0.5822 
   9   0.0000       0.057613         1.5677 
  10   0.0000       0.078999         2.1497 
  11   0.0000       0.078999         2.1497 
  12   0.0000       0.078999         2.1497 
  13   0.0000       0.078999         2.1497 
  14   0.0000       0.078999         2.1497 
  15   0.0000       0.120654         3.2832 
  16   0.0000       0.120654         3.2832 
  17   0.0000       0.120654         3.2832 
  18   0.0000       0.182143         4.9564 
  19   0.0000       0.182143         4.9564 
  20   0.0000       0.182143         4.9564 
  21   0.0000       0.182143         4.9564 
  22   0.0000       0.182143         4.9564 
  23   0.0000       0.182143         4.9564 
  24   0.0000       0.182143         4.9564 
  25   0.0000       0.216107         5.8806 
  26   0.0000       0.302987         8.2447 
  27   0.0000       0.302987         8.2447 
  28   0.0000       0.302987         8.2447 
  29   0.0000       0.302987         8.2447 
  30   0.0000       0.302987         8.2447 
  31   0.0000       0.302987         8.2447 
  32   0.0000       0.302987         8.2447 
  33   0.0000       0.302987         8.2447 
  34   0.0000       0.302987         8.2447 
  35   0.0000       0.448774        12.2118 
  36   0.0000       0.448774        12.2118 
  37   0.0000       0.448774        12.2118 
  38   0.0000       0.448774        12.2118 
  39   0.0000       0.448774        12.2118 
  40   0.0000       0.460123        12.5206 
  41   0.0000       0.460123        12.5206 
  42   0.0000       0.460123        12.5206 
  43   0.0000       0.598449        16.2846 
  44   0.0000       0.998662        27.1750 
  45   0.0000       0.998662        27.1750 
  46   0.0000       0.998662        27.1750 
  47   0.0000       0.998662        27.1750 
  48   0.0000       0.998662        27.1750 
  49   0.0000       0.998662        27.1750 
  50   0.0000       0.998662        27.1750 
  51   0.0000       1.470782        40.0220 
  52   0.0000       1.539726        41.8981 
  53   0.0000       1.539726        41.8981 
  54   0.0000       1.539726        41.8981 
  55   0.0000       1.742995        47.4293 
  56   0.0000       1.742995        47.4293 
  57   0.0000       1.742995        47.4293 
  58   0.0000       1.742995        47.4293 
  59   0.0000       1.742995        47.4293 
  60   0.0000       3.295633        89.6787 
  61   0.0000       3.295633        89.6787 
  62   0.0000       3.295633        89.6787 
  63   0.0000       3.295633        89.6787 
  64   0.0000       3.295633        89.6787 
  65   0.0000       3.295633        89.6787 
  66   0.0000       3.295633        89.6787 
  67   0.0000       3.672952        99.9461 
  68   0.0000       3.743341       101.8615 
  69   0.0000       3.743341       101.8615 
  70   0.0000       3.743341       101.8615 
  71   0.0000       3.743341       101.8615 
  72   0.0000       3.743341       101.8615 
  73   0.0000       3.743341       101.8615 
  74   0.0000       3.743341       101.8615 
  75   0.0000       3.743341       101.8615 
  76   0.0000       3.743341       101.8615 
  77   0.0000       9.570393       260.4236 
  78   0.0000       9.570393       260.4236 
  79   0.0000       9.570393       260.4236 
  80   0.0000       9.570393       260.4236 
  81   0.0000       9.570393       260.4236 
  82   0.0000      18.722157       509.4558 

                    ********************************
                    * MULLIKEN POPULATION ANALYSIS *
                    ********************************

--------------------------------------------
MULLIKEN ATOMIC CHARGES AND SPIN POPULATIONS
--------------------------------------------
   0 Be:   -0.000000   -0.000000
Sum of atomic charges         :   -0.0000000
Sum of atomic spin populations:   -0.0000000

-----------------------------------------------------
MULLIKEN REDUCED ORBITAL CHARGES AND SPIN POPULATIONS
-----------------------------------------------------
CHARGE
  0 Bes       :     4.000000  s :     4.000000
      pz      :     0.000000  p :     0.000000
      px      :     0.000000
      py      :     0.000000
      dz2     :     0.000000  d :     0.000000
      dxz     :     0.000000
      dyz     :     0.000000
      dx2y2   :     0.000000
      dxy     :     0.000000
      f0      :     0.000000  f :     0.000000
      f+1     :     0.000000
      f-1     :     0.000000
      f+2     :     0.000000
      f-2     :     0.000000
      f+3     :     0.000000
      f-3     :     0.000000
      g0      :     0.000000  g :     0.000000
      g+1     :     0.000000
      g-1     :     0.000000
      g+2     :     0.000000
      g-2     :     0.000000
      g+3     :     0.000000
      g-3     :     0.000000
      g+4     :     0.000000
      g-4     :     0.000000

SPIN
  0 Bes       :    -0.000000  s :    -0.000000
      pz      :     0.000000  p :    -0.000000
      px      :    -0.000000
      py      :    -0.000000
      dz2     :     0.000000  d :     0.000000
      dxz     :     0.000000
      dyz     :     0.000000
      dx2y2   :    -0.000000
      dxy     :     0.000000
      f0      :     0.000000  f :    -0.000000
      f+1     :     0.000000
      f-1     :    -0.000000
      f+2     :    -0.000000
      f-2     :    -0.000000
      f+3     :     0.000000
      f-3     :    -0.000000
      g0      :    -0.000000  g :     0.000000
      g+1     :     0.000000
      g-1     :     0.000000
      g+2     :     0.000000
      g-2     :    -0.000000
      g+3     :    -0.000000
      g-3     :     0.000000
      g+4     :     0.000000
      g-4     :    -0.000000


                     *******************************
                     * LOEWDIN POPULATION ANALYSIS *
                     *******************************

-------------------------------------------
LOEWDIN ATOMIC CHARGES AND SPIN POPULATIONS
-------------------------------------------
   0 Be:   -0.000000   -0.000000

----------------------------------------------------
LOEWDIN REDUCED ORBITAL CHARGES AND SPIN POPULATIONS
----------------------------------------------------
CHARGE
  0 Bes       :     4.000000  s :     4.000000
      pz      :     0.000000  p :     0.000000
      px      :     0.000000
      py      :     0.000000
      dz2     :     0.000000  d :     0.000000
      dxz     :     0.000000
      dyz     :     0.000000
      dx2y2   :     0.000000
      dxy     :     0.000000
      f0      :     0.000000  f :     0.000000
      f+1     :     0.000000
      f-1     :     0.000000
      f+2     :     0.000000
      f-2     :     0.000000
      f+3     :     0.000000
      f-3     :     0.000000
      g0      :     0.000000  g :     0.000000
      g+1     :     0.000000
      g-1     :     0.000000
      g+2     :     0.000000
      g-2     :     0.000000
      g+3     :     0.000000
      g-3     :     0.000000
      g+4     :     0.000000
      g-4     :     0.000000

SPIN
  0 Bes       :    -0.000000  s :    -0.000000
      pz      :     0.000000  p :    -0.000000
      px      :    -0.000000
      py      :    -0.000000
      dz2     :     0.000000  d :     0.000000
      dxz     :     0.000000
      dyz     :     0.000000
      dx2y2   :    -0.000000
      dxy     :     0.000000
      f0      :     0.000000  f :    -0.000000
      f+1     :     0.000000
      f-1     :    -0.000000
      f+2     :    -0.000000
      f-2     :    -0.000000
      f+3     :     0.000000
      f-3     :    -0.000000
      g0      :    -0.000000  g :     0.000000
      g+1     :     0.000000
      g-1     :     0.000000
      g+2     :     0.000000
      g-2     :    -0.000000
      g+3     :    -0.000000
      g-3     :     0.000000
      g+4     :     0.000000
      g-4     :    -0.000000


                      *****************************
                      * MAYER POPULATION ANALYSIS *
                      *****************************

  NA   - Mulliken gross atomic population
  ZA   - Total nuclear charge
  QA   - Mulliken gross atomic charge
  VA   - Mayer's total valence
  BVA  - Mayer's bonded valence
  FA   - Mayer's free valence

  ATOM       NA         ZA         QA         VA         BVA        FA
  0 Be     4.0000     4.0000    -0.0000    -0.0000     0.0000    -0.0000

  Mayer bond orders larger than 0.1


-------
TIMINGS
-------

Total SCF time: 0 days 0 hours 0 min 2 sec 

Total time                  ....       2.996 sec
Sum of individual times     ....       2.583 sec  ( 86.2%)

Fock matrix formation       ....       2.176 sec  ( 72.7%)
  XC integration            ....       0.422 sec  ( 19.4% of F)
    Basis function eval.    ....       0.052 sec  ( 12.2% of XC)
    Density eval.           ....       0.054 sec  ( 12.7% of XC)
    XC-Functional eval.     ....       0.029 sec  (  6.9% of XC)
    XC-Potential eval.      ....       0.126 sec  ( 29.9% of XC)
Diagonalization             ....       0.035 sec  (  1.2%)
Density matrix formation    ....       0.002 sec  (  0.1%)
Population analysis         ....       0.068 sec  (  2.3%)
Initial guess               ....       0.148 sec  (  4.9%)
Orbital Transformation      ....       0.000 sec  (  0.0%)
Orbital Orthonormalization  ....       0.000 sec  (  0.0%)
DIIS solution               ....       0.026 sec  (  0.9%)
Grid generation             ....       0.128 sec  (  4.3%)

-------------------------   --------------------
FINAL SINGLE POINT ENERGY       -14.629955001570
-------------------------   --------------------


                            ***************************************
                            *     ORCA property calculations      *
                            ***************************************

                                    ---------------------
                                    Active property flags
                                    ---------------------
   (+) Dipole Moment
   (+) Polarizability


------------------------------------------------------------------------------
                       ORCA ELECTRIC PROPERTIES CALCULATION
------------------------------------------------------------------------------

Dipole Moment Calculation                       ... on
Quadrupole Moment Calculation                   ... off
Polarizability Calculation                      ... Analytic (CP-SCF)
GBWName                                         ... be_pbe.gbw
Electron density file                           ... be_pbe.scfp.tmp
The origin for moment calculation is the CENTER OF MASS  = ( 0.000000,  0.000000  0.000000)

-------------
DIPOLE MOMENT
-------------
                                X             Y             Z
Electronic contribution:      0.00000       0.00000      -0.00000
Nuclear contribution   :      0.00000       0.00000       0.00000
                        -----------------------------------------
Total Dipole Moment    :      0.00000       0.00000      -0.00000
                        -----------------------------------------
Magnitude (a.u.)       :      0.00000
Magnitude (Debye)      :      0.00000



--------------------
Rotational spectrum 
--------------------
 
Rotational constants in cm-1:     0.000000     0.000000     0.000000 
Rotational constants in MHz :     0.000000     0.000000     0.000000 

 Dipole components along the rotational axes: 
x,y,z [a.u.] :     0.000000     0.000000    -0.000000 
x,y,z [Debye]:     0.000000     0.000000    -0.000000 

 
Transforming and storing MO dipole integrals   ... done

                ... starting polarizability calculation

Opening the Dipole integral file               ... (be_pbe.dmo.tmp) done
Reading Dipole-MO integrals                    ... done
Solving CP-SCF equations                       ... 

           ************************************************************
           *        Program running with 4 parallel MPI-processes     *
           *              working on a common directory               *
           ************************************************************

------------------------------------------------------------------------------
                           ORCA CP-SCF CALCULATION
------------------------------------------------------------------------------

Input orbitals are from        ... be_pbe.gbw
Input Perturbation             ... be_pbe.cpv.tmp
Wavefunction output            ... be_pbe.cpu.tmp
Perturbation mode              ... Real perturbation (singlet)
Solver                         ... POPLE
Max. number of iterations      ... 200
Convergence tolerance          ... 1.000e-06
Integral handling              ... Direct
Number of perturbations        ... 3
Number of operators            ... 2
Orbital ranges used for CP-SCF:
 Operator 0:  Orbitals   0...  1  to   2... 82
 Operator 1:  Orbitals   0...  1  to   2... 82
DFT calculation                         ... on
Exchange functional (SCF)               ... PBE
Exchange functional (CP-SCF)            ... PBE
   PBE kappa parameter  XKappa (SCF)    ...  0.804000
   PBE kappa parameter  XKappa (CP-SCF) ...  0.804000
   PBE mue parameter   XMuePBE (SCF)    ...  0.219520
   PBE mue parameter   XMuePBE (CP-SCF) ...  0.219520
Correlation functional (SCF)            ... PBE
Correlation functional (CP-SCF)         ... PBE
   PBE beta parameter CBetaPBE (SCF)    ...  0.066725
   PBE beta parameter CBetaPBE (CP-SCF) ...  0.066725
 LDA part of GGA corr.  LDAOpt (SCF)    ... PW91-LDA
 LDA part of GGA corr.  LDAOpt (CP-SCF) ... PW91-LDA
Variables per vector in CP-SCF ... 324
Number of vectors sought       ... 3
Recalculating density on grid  ... done
Calculating the xc-kernel      ... done
     CP-SCF ITERATION   0: 
     CP-SCF ITERATION   1:      0.001621789001
     CP-SCF ITERATION   2:      0.000006240212
     CP-SCF ITERATION   3:      0.000000001324
done
Reading CP-SCF coefficients                    ... done
Doing the polarizability tensor   ... done
Cleaning up                                    ... done

-------------------------
THE POLARIZABILITY TENSOR
-------------------------

The raw cartesian tensor (atomic units):
   42.83712     -0.00000      0.00000  
   -0.00000     42.83712      0.00000  
    0.00000      0.00000     42.83712  
diagonalized tensor: 
   42.83712     42.83712     42.83712  

    0.22958      0.39023     -0.89164  
    0.67962     -0.72006     -0.14015  
   -0.69672     -0.57379     -0.43052  

Isotropic polarizability :  42.83712


Timings for individual modules:

Sum of individual times         ...        8.711 sec (=   0.145 min)
GTO integral calculation        ...        1.689 sec (=   0.028 min)  19.4 %
SCF iterations                  ...        4.194 sec (=   0.070 min)  48.1 %
Solution of CP-SCF eqns.        ...        2.828 sec (=   0.047 min)  32.5 %
                             ****ORCA TERMINATED NORMALLY****
TOTAL RUN TIME: 0 days 0 hours 0 minutes 10 seconds 158 msec
