
                                 *****************
                                 * O   R   C   A *
                                 *****************

           --- An Ab Initio, DFT and Semiempirical electronic structure package ---

                  #######################################################
                  #                        -***-                        #
                  #          Department of theory and spectroscopy      #
                  #               Directorship: Frank Neese             #
                  #        Max Planck Institute fuer Kohlenforschung    #
                  #                Kaiser Wilhelm Platz 1               #
                  #                 D-45470 Muelheim/Ruhr               #
                  #                      Germany                        #
                  #                                                     #
                  #                  All rights reserved                #
                  #                        -***-                        #
                  #######################################################


                         Program Version 4.1.2  - RELEASE  -


 With contributions from (in alphabetic order):
   Daniel Aravena         : Magnetic Properties
   Michael Atanasov       : Ab Initio Ligand Field Theory
   Alexander A. Auer      : GIAO ZORA
   Ute Becker             : Parallelization
   Giovanni Bistoni       : ED, Open-shell LED
   Martin Brehm           : Molecular dynamics
   Dmytro Bykov           : SCF Hessian
   Vijay G. Chilkuri      : MRCI spin determinant printing
   Dipayan Datta          : RHF DLPNO-CCSD density
   Achintya Kumar Dutta   : EOM-CC, STEOM-CC
   Dmitry Ganyushin       : Spin-Orbit,Spin-Spin,Magnetic field MRCI
   Miquel Garcia          : C-PCM Hessian
   Yang Guo               : DLPNO-NEVPT2, CIM, IAO-localization
   Andreas Hansen         : Spin unrestricted coupled pair/coupled cluster methods
   Benjamin Helmich-Paris : CASSCF linear response (MC-RPA)
   Lee Huntington         : MR-EOM, pCC
   Robert Izsak           : Overlap fitted RIJCOSX, COSX-SCS-MP3, EOM
   Christian Kollmar      : KDIIS, OOCD, Brueckner-CCSD(T), CCSD density
   Simone Kossmann        : Meta GGA functionals, TD-DFT gradient, OOMP2, MP2 Hessian
   Martin Krupicka        : AUTO-CI
   Lucas Lang             : DCDCAS
   Dagmar Lenk            : GEPOL surface, SMD
   Dimitrios Liakos       : Extrapolation schemes; parallel MDCI
   Dimitrios Manganas     : ROCIS; embedding schemes
   Dimitrios Pantazis     : SARC Basis sets
   Taras Petrenko         : DFT Hessian,TD-DFT gradient, ASA, ECA, R-Raman, ABS, FL, XAS/XES, NRVS
   Peter Pinski           : DLPNO-MP2, DLPNO-MP2 Gradient
   Christoph Reimann      : Effective Core Potentials
   Marius Retegan         : Local ZFS, SOC
   Christoph Riplinger    : Optimizer, TS searches, QM/MM, DLPNO-CCSD(T), (RO)-DLPNO pert. Triples
   Tobias Risthaus        : Range-separated hybrids, TD-DFT gradient, RPA, STAB
   Michael Roemelt        : Restricted open shell CIS
   Masaaki Saitow         : Open-shell DLPNO
   Barbara Sandhoefer     : DKH picture change effects
   Avijit Sen             : IP-ROCIS
   Kantharuban Sivalingam : CASSCF convergence, NEVPT2, FIC-MRCI
   Bernardo de Souza      : ESD, SOC TD-DFT
   Georgi Stoychev        : AutoAux, RI-MP2 NMR
   Willem Van den Heuvel  : Paramagnetic NMR
   Boris Wezisla          : Elementary symmetry handling
   Frank Wennmohs         : Technical directorship


 We gratefully acknowledge several colleagues who have allowed us to
 interface, adapt or use parts of their codes:
   Stefan Grimme, W. Hujo, H. Kruse,             : VdW corrections, initial TS optimization,
                  C. Bannwarth                     DFT functionals, gCP, sTDA/sTD-DF
   Ed Valeev                                     : LibInt (2-el integral package), F12 methods
   Garnet Chan, S. Sharma, J. Yang, R. Olivares  : DMRG
   Ulf Ekstrom                                   : XCFun DFT Library
   Mihaly Kallay                                 : mrcc  (arbitrary order and MRCC methods)
   Andreas Klamt, Michael Diedenhofen            : otool_cosmo (COSMO solvation model)
   Jiri Pittner, Ondrej Demel                    : Mk-CCSD
   Frank Weinhold                                : gennbo (NPA and NBO analysis)
   Christopher J. Cramer and Donald G. Truhlar   : smd solvation model
   Lars Goerigk                                  : TD-DFT with DH, B97 family of functionals
   V. Asgeirsson, H. Jonsson                     : NEB implementation
   FAccTs GmbH                                   : IRC, NEB, NEB-TS, Multilevel


 Your calculation uses the libint2 library for the computation of 2-el integrals
 For citations please refer to: http://libint.valeyev.net

 This ORCA versions uses:
   CBLAS   interface :  Fast vector & matrix operations
   LAPACKE interface :  Fast linear algebra routines
   SCALAPACK package :  Parallel linear algebra routines


----- Orbital basis set information -----
Your calculation utilizes the basis: aug-pc-4
   H, C-F              : F. Jensen, J. Chem. Phys. 115, 9113 (2001).
                         F. Jensen, J. Chem. Phys. 116, 7372 (2002).
                         F. Jensen, J. Chem. Phys. 117, 9234 (2002).
   Si-Cl               : F. Jensen, T. Helgaker, J. Chem. Phys. 121, 3463 (2004).
   He-B, Ne-Mg, Al, Ar : F. Jensen, J. Phys. Chem. A 111, 11198 (2007).
   K, Ca, Ga-Kr        : F. Jensen, J. Chem. Phys. 136, 094110 (2012).
   Sc-Zn               : F. Jensen, J. Chem. Phys. 138, 014107 (2013).

================================================================================
                                        WARNINGS
                       Please study these warnings very carefully!
================================================================================


INFO   : the flag for use of LIBINT has been found!

================================================================================
                                       INPUT FILE
================================================================================
NAME = beh2_pbe.inp
|  1> !uks pbe nori aug-pc-4 grid5 nofinalgrid verytightscf
|  2> 
|  3> %maxcore 1500
|  4> 
|  5> %pal nprocs 4 end
|  6> 
|  7> %scf
|  8> 	maxiter 200
|  9> end
| 10> %elprop
| 11> 	dipole true
| 12> 	 polar 1
| 13> 	 maxiter 200
| 14> end
| 15> 
| 16> * xyz 0 1
| 17> Be 0.0000 0.0000 0.0000
| 18> H 0.0000 0.0000 1.3264
| 19> H 0.0000 0.0000 -1.3264
| 20> *
| 21> 
| 22>                          ****END OF INPUT****
================================================================================

                       ****************************
                       * Single Point Calculation *
                       ****************************

---------------------------------
CARTESIAN COORDINATES (ANGSTROEM)
---------------------------------
  Be     0.000000    0.000000    0.000000
  H      0.000000    0.000000    1.326400
  H      0.000000    0.000000   -1.326400

----------------------------
CARTESIAN COORDINATES (A.U.)
----------------------------
  NO LB      ZA    FRAG     MASS         X           Y           Z
   0 Be    4.0000    0     9.012    0.000000    0.000000    0.000000
   1 H     1.0000    0     1.008    0.000000    0.000000    2.506533
   2 H     1.0000    0     1.008    0.000000    0.000000   -2.506533

--------------------------------
INTERNAL COORDINATES (ANGSTROEM)
--------------------------------
 Be     0   0   0     0.000000000000     0.00000000     0.00000000
 H      1   0   0     1.326400000000     0.00000000     0.00000000
 H      1   2   0     1.326400000000   179.99999915     0.00000000

---------------------------
INTERNAL COORDINATES (A.U.)
---------------------------
 Be     0   0   0     0.000000000000     0.00000000     0.00000000
 H      1   0   0     2.506532744033     0.00000000     0.00000000
 H      1   2   0     2.506532744033   179.99999915     0.00000000

---------------------
BASIS SET INFORMATION
---------------------
There are 2 groups of distinct atoms

 Group   1 Type Be  : 31s9p4d3f2g contracted to 9s5p4d3f2g pattern {12121111111/51111/1111/111/11}
 Group   2 Type H   : 12s7p4d3f2g contracted to 8s7p4d3f2g pattern {51111111/1111111/1111/111/11}

Atom   0Be   basis set group =>   1
Atom   1H    basis set group =>   2
Atom   2H    basis set group =>   2


           ************************************************************
           *        Program running with 4 parallel MPI-processes     *
           *              working on a common directory               *
           ************************************************************
------------------------------------------------------------------------------
                           ORCA GTO INTEGRAL CALCULATION
------------------------------------------------------------------------------

                         BASIS SET STATISTICS AND STARTUP INFO

 # of primitive gaussian shells          ...  105
 # of primitive gaussian functions       ...  301
 # of contracted shells                  ...   71
 # of contracted basis functions         ...  259
 Highest angular momentum                ...    4
 Maximum contraction depth               ...   12
 Integral package used                   ... LIBINT
 Integral threshhold            Thresh   ...  1.000e-12
 Primitive cut-off              TCut     ...  1.000e-14


------------------------------ INTEGRAL EVALUATION ----------------------------


 * One electron integrals 
 Pre-screening matrix                    ... done
 Shell pair data                         ... done (   0.001 sec)



           ************************************************************
           *        Program running with 4 parallel MPI-processes     *
           *              working on a common directory               *
           ************************************************************
-------------------------------------------------------------------------------
                                 ORCA SCF
-------------------------------------------------------------------------------

------------
SCF SETTINGS
------------
Hamiltonian:
 Density Functional     Method          .... DFT(GTOs)
 Exchange Functional    Exchange        .... PBE
   PBE kappa parameter   XKappa         ....  0.804000
   PBE mue parameter    XMuePBE         ....  0.219520
 Correlation Functional Correlation     .... PBE
   PBE beta parameter  CBetaPBE         ....  0.066725
 LDA part of GGA corr.  LDAOpt          .... PW91-LDA
 Gradients option       PostSCFGGA      .... off
   Density functional embedding theory  .... OFF
   NL short-range parameter             ....  6.400000


General Settings:
 Integral files         IntName         .... beh2_pbe
 Hartree-Fock type      HFTyp           .... UHF
 Total Charge           Charge          ....    0
 Multiplicity           Mult            ....    1
 Number of Electrons    NEL             ....    6
 Basis Dimension        Dim             ....  259
 Nuclear Repulsion      ENuc            ....      3.3911386238 Eh

Convergence Acceleration:
 DIIS                   CNVDIIS         .... on
   Start iteration      DIISMaxIt       ....    12
   Startup error        DIISStart       ....  0.200000
   # of expansion vecs  DIISMaxEq       ....     5
   Bias factor          DIISBfac        ....   1.050
   Max. coefficient     DIISMaxC        ....  10.000
 Newton-Raphson         CNVNR           .... off
 SOSCF                  CNVSOSCF        .... off
 Level Shifting         CNVShift        .... on
   Level shift para.    LevelShift      ....    0.2500
   Turn off err/grad.   ShiftErr        ....    0.0010
 Zerner damping         CNVZerner       .... off
 Static damping         CNVDamp         .... on
   Fraction old density DampFac         ....    0.7000
   Max. Damping (<1)    DampMax         ....    0.9800
   Min. Damping (>=0)   DampMin         ....    0.0000
   Turn off err/grad.   DampErr         ....    0.1000
 Fernandez-Rico         CNVRico         .... off

SCF Procedure:
 Maximum # iterations   MaxIter         ....   200
 SCF integral mode      SCFMode         .... Direct
   Integral package                     .... LIBINT
 Reset frequency        DirectResetFreq ....    20
 Integral Threshold     Thresh          ....  1.000e-12 Eh
 Primitive CutOff       TCut            ....  1.000e-14 Eh

Convergence Tolerance:
 Convergence Check Mode ConvCheckMode   .... Total+1el-Energy
 Convergence forced     ConvForced      .... 0
 Energy Change          TolE            ....  1.000e-09 Eh
 1-El. energy change                    ....  1.000e-06 Eh
 DIIS Error             TolErr          ....  1.000e-08


Diagonalization of the overlap matrix:
Smallest eigenvalue                        ... 2.656e-07
Time for diagonalization                   ...    0.057 sec
Threshold for overlap eigenvalues          ... 1.000e-08
Number of eigenvalues below threshold      ... 0
Time for construction of square roots      ...    0.012 sec
Total time needed                          ...    0.069 sec

-------------------
DFT GRID GENERATION
-------------------

General Integration Accuracy     IntAcc      ...  5.010
Radial Grid Type                 RadialGrid  ... Gauss-Chebyshev
Angular Grid (max. acc.)         AngularGrid ... Lebedev-434
Angular grid pruning method      GridPruning ... 3 (G Style)
Weight generation scheme         WeightScheme... Becke
Basis function cutoff            BFCut       ...    1.0000e-12
Integration weight cutoff        WCut        ...    1.0000e-14
Grids for H and He will be reduced by one unit

# of grid points (after initial pruning)     ...  23854 (   0.0 sec)
# of grid points (after weights+screening)   ...  23630 (   0.0 sec)
nearest neighbour list constructed           ...    0.0 sec
Grid point re-assignment to atoms done       ...    0.0 sec
Grid point division into batches done        ...    0.2 sec
Reduced shell lists constructed in    0.2 sec

Total number of grid points                  ...    23630
Total number of batches                      ...      370
Average number of points per batch           ...       63
Average number of grid points per atom       ...     7877
Average number of shells per batch           ...    60.27 (84.88%)
Average number of basis functions per batch  ...   224.61 (86.72%)
Average number of large shells per batch     ...    55.78 (92.55%)
Average number of large basis fcns per batch ...   208.01 (92.61%)
Maximum spatial batch extension              ...  35.10, 35.10,  2.49 au
Average spatial batch extension              ...   0.79,  0.77,  0.37 au

Time for grid setup =    0.227 sec

------------------------------
INITIAL GUESS: MODEL POTENTIAL
------------------------------
Loading Hartree-Fock densities                     ... done
Calculating cut-offs                               ... done
Setting up the integral package                    ... done
Initializing the effective Hamiltonian             ... done
Starting the Coulomb interaction                   ... done (   0.0 sec)
Reading the grid                                   ... done
Mapping shells                                     ... done
Starting the XC term evaluation                    ... done (   0.2 sec)
  promolecular density results
     # of electrons  =      5.999021665
     EX              =     -3.231383816
     EC              =     -0.136182193
     EX+EC           =     -3.367566010
Transforming the Hamiltonian                       ... done (   0.0 sec)
Diagonalizing the Hamiltonian                      ... done (   0.0 sec)
Back transforming the eigenvectors                 ... done (   0.0 sec)
Now organizing SCF variables                       ... done
                      ------------------
                      INITIAL GUESS DONE (   0.6 sec)
                      ------------------
--------------
SCF ITERATIONS
--------------
ITER       Energy         Delta-E        Max-DP      RMS-DP      [F,P]     Damp
               ***  Starting incremental Fock matrix formation  ***
  0    -15.8488603888   0.000000000000 0.00592802  0.00009786  0.1105024 0.7000
  1    -15.8548698367  -0.006009447968 0.00544974  0.00008217  0.0755521 0.7000
                               ***Turning on DIIS***
  2    -15.8587604122  -0.003890575444 0.01381458  0.00020297  0.0457034 0.0000
  3    -15.8650865813  -0.006326169120 0.00373410  0.00004227  0.0201614 0.0000
  4    -15.8656084679  -0.000521886627 0.00132164  0.00001678  0.0052881 0.0000
  5    -15.8656607086  -0.000052240630 0.00047146  0.00000660  0.0018144 0.0000
  6    -15.8656666658  -0.000005957190 0.00026837  0.00000305  0.0006572 0.0000
  7    -15.8656676227  -0.000000956995 0.00004102  0.00000068  0.0000173 0.0000
  8    -15.8656676234  -0.000000000623 0.00000770  0.00000013  0.0000054 0.0000
  9    -15.8656676234  -0.000000000047 0.00000756  0.00000011  0.0000010 0.0000
                 **** Energy Check signals convergence ****

               *****************************************************
               *                     SUCCESS                       *
               *           SCF CONVERGED AFTER  10 CYCLES          *
               *****************************************************


----------------
TOTAL SCF ENERGY
----------------

Total Energy       :          -15.86566762 Eh            -431.72676 eV

Components:
Nuclear Repulsion  :            3.39113862 Eh              92.27757 eV
Electronic Energy  :          -19.25680625 Eh            -524.00434 eV
One Electron Energy:          -27.11280026 Eh            -737.77680 eV
Two Electron Energy:            7.85599402 Eh             213.77247 eV

Virial components:
Potential Energy   :          -31.63154347 Eh            -860.73806 eV
Kinetic Energy     :           15.76587585 Eh             429.01129 eV
Virial Ratio       :            2.00632961


DFT components:
N(Alpha)           :        3.000001067685 electrons
N(Beta)            :        3.000001067685 electrons
N(Total)           :        6.000002135369 electrons
E(X)               :       -3.387508141012 Eh       
E(C)               :       -0.137113174041 Eh       
E(XC)              :       -3.524621315053 Eh       
DFET-embed. en.    :        0.000000000000 Eh       

---------------
SCF CONVERGENCE
---------------

  Last Energy change         ...   -2.2844e-12  Tolerance :   1.0000e-09
  Last MAX-Density change    ...    3.6342e-05  Tolerance :   1.0000e-08
  Last RMS-Density change    ...    5.7944e-07  Tolerance :   1.0000e-09
  Last DIIS Error            ...    3.6049e-08  Tolerance :   1.0000e-08

             **** THE GBW FILE WAS UPDATED (beh2_pbe.gbw) ****
             **** DENSITY FILE WAS UPDATED (beh2_pbe.scfp.tmp) ****
             **** ENERGY FILE WAS UPDATED (beh2_pbe.en.tmp) ****
----------------------
UHF SPIN CONTAMINATION
----------------------

Warning: in a DFT calculation there is little theoretical justification to 
         calculate <S**2> as in Hartree-Fock theory. We will do it anyways
         but you should keep in mind that the values have only limited relevance

Expectation value of <S**2>     :     0.000000
Ideal value S*(S+1) for S=0.0   :     0.000000
Deviation                       :     0.000000

----------------
ORBITAL ENERGIES
----------------
                 SPIN UP ORBITALS
  NO   OCC          E(Eh)            E(eV) 
   0   1.0000      -3.847382      -104.6926 
   1   1.0000      -0.309323        -8.4171 
   2   1.0000      -0.275339        -7.4924 
   3   0.0000      -0.059920        -1.6305 
   4   0.0000      -0.059920        -1.6305 
   5   0.0000      -0.000011        -0.0003 
   6   0.0000       0.013100         0.3565 
   7   0.0000       0.025438         0.6922 
   8   0.0000       0.025438         0.6922 
   9   0.0000       0.027142         0.7386 
  10   0.0000       0.037248         1.0136 
  11   0.0000       0.048997         1.3333 
  12   0.0000       0.062590         1.7032 
  13   0.0000       0.062590         1.7032 
  14   0.0000       0.070331         1.9138 
  15   0.0000       0.074243         2.0202 
  16   0.0000       0.074243         2.0203 
  17   0.0000       0.098093         2.6693 
  18   0.0000       0.104162         2.8344 
  19   0.0000       0.104162         2.8344 
  20   0.0000       0.128123         3.4864 
  21   0.0000       0.136279         3.7083 
  22   0.0000       0.155450         4.2300 
  23   0.0000       0.155450         4.2300 
  24   0.0000       0.160299         4.3620 
  25   0.0000       0.160299         4.3620 
  26   0.0000       0.167936         4.5698 
  27   0.0000       0.167936         4.5698 
  28   0.0000       0.172762         4.7011 
  29   0.0000       0.173710         4.7269 
  30   0.0000       0.173710         4.7269 
  31   0.0000       0.174993         4.7618 
  32   0.0000       0.174993         4.7618 
  33   0.0000       0.181497         4.9388 
  34   0.0000       0.209781         5.7084 
  35   0.0000       0.209781         5.7084 
  36   0.0000       0.219756         5.9799 
  37   0.0000       0.261687         7.1209 
  38   0.0000       0.261687         7.1209 
  39   0.0000       0.265703         7.2302 
  40   0.0000       0.265703         7.2302 
  41   0.0000       0.279053         7.5934 
  42   0.0000       0.294669         8.0183 
  43   0.0000       0.294669         8.0183 
  44   0.0000       0.297748         8.1021 
  45   0.0000       0.297748         8.1021 
  46   0.0000       0.308320         8.3898 
  47   0.0000       0.331785         9.0283 
  48   0.0000       0.338225         9.2036 
  49   0.0000       0.338225         9.2036 
  50   0.0000       0.351191         9.5564 
  51   0.0000       0.356395         9.6980 
  52   0.0000       0.356395         9.6980 
  53   0.0000       0.363821         9.9001 
  54   0.0000       0.363821         9.9001 
  55   0.0000       0.379188        10.3182 
  56   0.0000       0.379188        10.3182 
  57   0.0000       0.389213        10.5910 
  58   0.0000       0.425435        11.5767 
  59   0.0000       0.429222        11.6797 
  60   0.0000       0.429222        11.6797 
  61   0.0000       0.454327        12.3629 
  62   0.0000       0.454328        12.3629 
  63   0.0000       0.463204        12.6044 
  64   0.0000       0.463204        12.6044 
  65   0.0000       0.465278        12.6609 
  66   0.0000       0.465278        12.6609 
  67   0.0000       0.477138        12.9836 
  68   0.0000       0.488824        13.3016 
  69   0.0000       0.505629        13.7589 
  70   0.0000       0.505629        13.7589 
  71   0.0000       0.535475        14.5710 
  72   0.0000       0.535475        14.5710 
  73   0.0000       0.548879        14.9357 
  74   0.0000       0.548879        14.9358 
  75   0.0000       0.551641        15.0109 
  76   0.0000       0.551641        15.0109 
  77   0.0000       0.552012        15.0210 
  78   0.0000       0.552012        15.0210 
  79   0.0000       0.598601        16.2888 
  80   0.0000       0.598601        16.2888 
  81   0.0000       0.628575        17.1044 
  82   0.0000       0.636071        17.3084 
  83   0.0000       0.636071        17.3084 
  84   0.0000       0.668200        18.1826 
  85   0.0000       0.670966        18.2579 
  86   0.0000       0.670966        18.2579 
  87   0.0000       0.719403        19.5760 
  88   0.0000       0.719403        19.5760 
  89   0.0000       0.724523        19.7153 
  90   0.0000       0.735999        20.0276 
  91   0.0000       0.735999        20.0276 
  92   0.0000       0.767944        20.8968 
  93   0.0000       0.772380        21.0175 
  94   0.0000       0.782399        21.2902 
  95   0.0000       0.782400        21.2902 
  96   0.0000       0.798881        21.7387 
  97   0.0000       0.798881        21.7387 
  98   0.0000       0.804098        21.8806 
  99   0.0000       0.838887        22.8273 
 100   0.0000       0.838887        22.8273 
 101   0.0000       0.859172        23.3793 
 102   0.0000       0.867181        23.5972 
 103   0.0000       0.867181        23.5972 
 104   0.0000       0.903898        24.5963 
 105   0.0000       0.994419        27.0595 
 106   0.0000       0.994419        27.0595 
 107   0.0000       1.105771        30.0896 
 108   0.0000       1.105771        30.0896 
 109   0.0000       1.145355        31.1667 
 110   0.0000       1.145355        31.1667 
 111   0.0000       1.185723        32.2652 
 112   0.0000       1.248430        33.9715 
 113   0.0000       1.248430        33.9715 
 114   0.0000       1.376527        37.4572 
 115   0.0000       1.376527        37.4572 
 116   0.0000       1.401254        38.1300 
 117   0.0000       1.401254        38.1300 
 118   0.0000       1.434195        39.0264 
 119   0.0000       1.483073        40.3565 
 120   0.0000       1.483073        40.3565 
 121   0.0000       1.496590        40.7243 
 122   0.0000       1.535489        41.7828 
 123   0.0000       1.557210        42.3738 
 124   0.0000       1.654822        45.0300 
 125   0.0000       1.695472        46.1361 
 126   0.0000       1.695472        46.1361 
 127   0.0000       1.754572        47.7443 
 128   0.0000       1.754572        47.7443 
 129   0.0000       1.797704        48.9180 
 130   0.0000       2.010614        54.7116 
 131   0.0000       2.023429        55.0603 
 132   0.0000       2.023429        55.0603 
 133   0.0000       2.136675        58.1419 
 134   0.0000       2.136675        58.1419 
 135   0.0000       2.322028        63.1856 
 136   0.0000       2.357320        64.1459 
 137   0.0000       2.357320        64.1459 
 138   0.0000       2.827112        76.9296 
 139   0.0000       2.827112        76.9296 
 140   0.0000       2.844284        77.3969 
 141   0.0000       2.844284        77.3969 
 142   0.0000       2.848546        77.5129 
 143   0.0000       2.883678        78.4689 
 144   0.0000       2.883678        78.4689 
 145   0.0000       2.914605        79.3104 
 146   0.0000       3.317458        90.2726 
 147   0.0000       3.317458        90.2726 
 148   0.0000       3.434835        93.4666 
 149   0.0000       3.434835        93.4666 
 150   0.0000       3.461670        94.1968 
 151   0.0000       3.461670        94.1968 
 152   0.0000       3.492442        95.0342 
 153   0.0000       3.492442        95.0342 
 154   0.0000       3.555625        96.7535 
 155   0.0000       3.555626        96.7535 
 156   0.0000       3.561803        96.9216 
 157   0.0000       3.574499        97.2671 
 158   0.0000       3.574499        97.2671 
 159   0.0000       3.597191        97.8845 
 160   0.0000       3.597192        97.8846 
 161   0.0000       3.624495        98.6275 
 162   0.0000       3.663319        99.6840 
 163   0.0000       3.663319        99.6840 
 164   0.0000       3.698698       100.6467 
 165   0.0000       3.801830       103.4531 
 166   0.0000       3.804769       103.5330 
 167   0.0000       3.804775       103.5332 
 168   0.0000       3.980113       108.3044 
 169   0.0000       4.195187       114.1568 
 170   0.0000       4.195187       114.1568 
 171   0.0000       4.245767       115.5332 
 172   0.0000       4.245767       115.5332 
 173   0.0000       4.252883       115.7268 
 174   0.0000       4.343661       118.1970 
 175   0.0000       4.343662       118.1970 
 176   0.0000       4.641377       126.2983 
 177   0.0000       4.828547       131.3914 
 178   0.0000       4.828547       131.3914 
 179   0.0000       5.036262       137.0437 
 180   0.0000       5.370665       146.1432 
 181   0.0000       5.370667       146.1433 
 182   0.0000       5.515034       150.0717 
 183   0.0000       5.567721       151.5054 
 184   0.0000       5.567721       151.5054 
 185   0.0000       5.630885       153.2242 
 186   0.0000       5.630885       153.2242 
 187   0.0000       5.709545       155.3646 
 188   0.0000       6.214394       169.1023 
 189   0.0000       8.484031       230.8622 
 190   0.0000       8.484031       230.8622 
 191   0.0000       8.485419       230.9000 
 192   0.0000       8.485419       230.9000 
 193   0.0000       8.760241       238.3783 
 194   0.0000       8.760249       238.3785 
 195   0.0000       8.763900       238.4778 
 196   0.0000       8.763908       238.4781 
 197   0.0000       9.056225       246.4324 
 198   0.0000       9.097729       247.5618 
 199   0.0000       9.097729       247.5618 
 200   0.0000       9.304964       253.2009 
 201   0.0000       9.304964       253.2009 
 202   0.0000       9.376652       255.1517 
 203   0.0000       9.559503       260.1273 
 204   0.0000       9.729789       264.7610 
 205   0.0000       9.827825       267.4287 
 206   0.0000       9.827826       267.4287 
 207   0.0000      10.860957       295.5417 
 208   0.0000      10.860957       295.5417 
 209   0.0000      11.277237       306.8692 
 210   0.0000      11.319261       308.0128 
 211   0.0000      12.297366       334.6283 
 212   0.0000      12.297366       334.6283 
 213   0.0000      12.321224       335.2776 
 214   0.0000      12.321224       335.2776 
 215   0.0000      12.353848       336.1653 
 216   0.0000      12.486256       339.7683 
 217   0.0000      12.486265       339.7685 
 218   0.0000      12.634950       343.8145 
 219   0.0000      12.634958       343.8147 
 220   0.0000      12.931803       351.8923 
 221   0.0000      12.931803       351.8923 
 222   0.0000      12.980379       353.2141 
 223   0.0000      12.980379       353.2141 
 224   0.0000      13.288339       361.5941 
 225   0.0000      14.225664       387.1000 
 226   0.0000      16.776797       456.5198 
 227   0.0000      16.776797       456.5198 
 228   0.0000      16.789450       456.8642 
 229   0.0000      16.789598       456.8682 
 230   0.0000      16.790510       456.8930 
 231   0.0000      16.790658       456.8970 
 232   0.0000      16.817446       457.6260 
 233   0.0000      16.817446       457.6260 
 234   0.0000      16.859353       458.7663 
 235   0.0000      16.859379       458.7670 
 236   0.0000      16.950942       461.2586 
 237   0.0000      17.152128       466.7331 
 238   0.0000      17.152158       466.7339 
 239   0.0000      17.221182       468.6122 
 240   0.0000      17.221182       468.6122 
 241   0.0000      17.567909       478.0471 
 242   0.0000      17.962856       488.7942 
 243   0.0000      17.962856       488.7942 
 244   0.0000      20.643504       561.7383 
 245   0.0000      23.396520       636.6517 
 246   0.0000      23.396520       636.6517 
 247   0.0000      23.407214       636.9427 
 248   0.0000      23.407214       636.9427 
 249   0.0000      24.149944       657.1534 
 250   0.0000      24.635422       670.3639 
 251   0.0000      39.485703      1074.4606 
 252   0.0000      39.796916      1082.9291 
 253   0.0000      91.009861      2476.5042 
 254   0.0000      91.009861      2476.5042 
 255   0.0000      91.029205      2477.0306 
 256   0.0000      91.029205      2477.0306 
 257   0.0000      91.570786      2491.7678 
 258   0.0000      91.814303      2498.3942 

                 SPIN DOWN ORBITALS
  NO   OCC          E(Eh)            E(eV) 
   0   1.0000      -3.847382      -104.6926 
   1   1.0000      -0.309323        -8.4171 
   2   1.0000      -0.275339        -7.4924 
   3   0.0000      -0.059920        -1.6305 
   4   0.0000      -0.059920        -1.6305 
   5   0.0000      -0.000011        -0.0003 
   6   0.0000       0.013100         0.3565 
   7   0.0000       0.025438         0.6922 
   8   0.0000       0.025438         0.6922 
   9   0.0000       0.027142         0.7386 
  10   0.0000       0.037248         1.0136 
  11   0.0000       0.048997         1.3333 
  12   0.0000       0.062590         1.7032 
  13   0.0000       0.062590         1.7032 
  14   0.0000       0.070331         1.9138 
  15   0.0000       0.074243         2.0202 
  16   0.0000       0.074243         2.0203 
  17   0.0000       0.098093         2.6693 
  18   0.0000       0.104162         2.8344 
  19   0.0000       0.104162         2.8344 
  20   0.0000       0.128123         3.4864 
  21   0.0000       0.136279         3.7083 
  22   0.0000       0.155450         4.2300 
  23   0.0000       0.155450         4.2300 
  24   0.0000       0.160299         4.3620 
  25   0.0000       0.160299         4.3620 
  26   0.0000       0.167936         4.5698 
  27   0.0000       0.167936         4.5698 
  28   0.0000       0.172762         4.7011 
  29   0.0000       0.173710         4.7269 
  30   0.0000       0.173710         4.7269 
  31   0.0000       0.174993         4.7618 
  32   0.0000       0.174993         4.7618 
  33   0.0000       0.181497         4.9388 
  34   0.0000       0.209781         5.7084 
  35   0.0000       0.209781         5.7084 
  36   0.0000       0.219756         5.9799 
  37   0.0000       0.261687         7.1209 
  38   0.0000       0.261687         7.1209 
  39   0.0000       0.265703         7.2302 
  40   0.0000       0.265703         7.2302 
  41   0.0000       0.279053         7.5934 
  42   0.0000       0.294669         8.0183 
  43   0.0000       0.294669         8.0183 
  44   0.0000       0.297748         8.1021 
  45   0.0000       0.297748         8.1021 
  46   0.0000       0.308320         8.3898 
  47   0.0000       0.331785         9.0283 
  48   0.0000       0.338225         9.2036 
  49   0.0000       0.338225         9.2036 
  50   0.0000       0.351191         9.5564 
  51   0.0000       0.356395         9.6980 
  52   0.0000       0.356395         9.6980 
  53   0.0000       0.363821         9.9001 
  54   0.0000       0.363821         9.9001 
  55   0.0000       0.379188        10.3182 
  56   0.0000       0.379188        10.3182 
  57   0.0000       0.389213        10.5910 
  58   0.0000       0.425435        11.5767 
  59   0.0000       0.429222        11.6797 
  60   0.0000       0.429222        11.6797 
  61   0.0000       0.454327        12.3629 
  62   0.0000       0.454328        12.3629 
  63   0.0000       0.463204        12.6044 
  64   0.0000       0.463204        12.6044 
  65   0.0000       0.465278        12.6609 
  66   0.0000       0.465278        12.6609 
  67   0.0000       0.477138        12.9836 
  68   0.0000       0.488824        13.3016 
  69   0.0000       0.505629        13.7589 
  70   0.0000       0.505629        13.7589 
  71   0.0000       0.535475        14.5710 
  72   0.0000       0.535475        14.5710 
  73   0.0000       0.548879        14.9357 
  74   0.0000       0.548879        14.9358 
  75   0.0000       0.551641        15.0109 
  76   0.0000       0.551641        15.0109 
  77   0.0000       0.552012        15.0210 
  78   0.0000       0.552012        15.0210 
  79   0.0000       0.598601        16.2888 
  80   0.0000       0.598601        16.2888 
  81   0.0000       0.628575        17.1044 
  82   0.0000       0.636071        17.3084 
  83   0.0000       0.636071        17.3084 
  84   0.0000       0.668200        18.1826 
  85   0.0000       0.670966        18.2579 
  86   0.0000       0.670966        18.2579 
  87   0.0000       0.719403        19.5760 
  88   0.0000       0.719403        19.5760 
  89   0.0000       0.724523        19.7153 
  90   0.0000       0.735999        20.0276 
  91   0.0000       0.735999        20.0276 
  92   0.0000       0.767944        20.8968 
  93   0.0000       0.772380        21.0175 
  94   0.0000       0.782399        21.2902 
  95   0.0000       0.782400        21.2902 
  96   0.0000       0.798881        21.7387 
  97   0.0000       0.798881        21.7387 
  98   0.0000       0.804098        21.8806 
  99   0.0000       0.838887        22.8273 
 100   0.0000       0.838887        22.8273 
 101   0.0000       0.859172        23.3793 
 102   0.0000       0.867181        23.5972 
 103   0.0000       0.867181        23.5972 
 104   0.0000       0.903898        24.5963 
 105   0.0000       0.994419        27.0595 
 106   0.0000       0.994419        27.0595 
 107   0.0000       1.105771        30.0896 
 108   0.0000       1.105771        30.0896 
 109   0.0000       1.145355        31.1667 
 110   0.0000       1.145355        31.1667 
 111   0.0000       1.185723        32.2652 
 112   0.0000       1.248430        33.9715 
 113   0.0000       1.248430        33.9715 
 114   0.0000       1.376527        37.4572 
 115   0.0000       1.376527        37.4572 
 116   0.0000       1.401254        38.1300 
 117   0.0000       1.401254        38.1300 
 118   0.0000       1.434195        39.0264 
 119   0.0000       1.483073        40.3565 
 120   0.0000       1.483073        40.3565 
 121   0.0000       1.496590        40.7243 
 122   0.0000       1.535489        41.7828 
 123   0.0000       1.557210        42.3738 
 124   0.0000       1.654822        45.0300 
 125   0.0000       1.695472        46.1361 
 126   0.0000       1.695472        46.1361 
 127   0.0000       1.754572        47.7443 
 128   0.0000       1.754572        47.7443 
 129   0.0000       1.797704        48.9180 
 130   0.0000       2.010614        54.7116 
 131   0.0000       2.023429        55.0603 
 132   0.0000       2.023429        55.0603 
 133   0.0000       2.136675        58.1419 
 134   0.0000       2.136675        58.1419 
 135   0.0000       2.322028        63.1856 
 136   0.0000       2.357320        64.1459 
 137   0.0000       2.357320        64.1459 
 138   0.0000       2.827112        76.9296 
 139   0.0000       2.827112        76.9296 
 140   0.0000       2.844284        77.3969 
 141   0.0000       2.844284        77.3969 
 142   0.0000       2.848546        77.5129 
 143   0.0000       2.883678        78.4689 
 144   0.0000       2.883678        78.4689 
 145   0.0000       2.914605        79.3104 
 146   0.0000       3.317458        90.2726 
 147   0.0000       3.317458        90.2726 
 148   0.0000       3.434835        93.4666 
 149   0.0000       3.434835        93.4666 
 150   0.0000       3.461670        94.1968 
 151   0.0000       3.461670        94.1968 
 152   0.0000       3.492442        95.0342 
 153   0.0000       3.492442        95.0342 
 154   0.0000       3.555625        96.7535 
 155   0.0000       3.555626        96.7535 
 156   0.0000       3.561803        96.9216 
 157   0.0000       3.574499        97.2671 
 158   0.0000       3.574499        97.2671 
 159   0.0000       3.597191        97.8845 
 160   0.0000       3.597192        97.8846 
 161   0.0000       3.624495        98.6275 
 162   0.0000       3.663319        99.6840 
 163   0.0000       3.663319        99.6840 
 164   0.0000       3.698698       100.6467 
 165   0.0000       3.801830       103.4531 
 166   0.0000       3.804769       103.5330 
 167   0.0000       3.804775       103.5332 
 168   0.0000       3.980113       108.3044 
 169   0.0000       4.195187       114.1568 
 170   0.0000       4.195187       114.1568 
 171   0.0000       4.245767       115.5332 
 172   0.0000       4.245767       115.5332 
 173   0.0000       4.252883       115.7268 
 174   0.0000       4.343661       118.1970 
 175   0.0000       4.343662       118.1970 
 176   0.0000       4.641377       126.2983 
 177   0.0000       4.828547       131.3914 
 178   0.0000       4.828547       131.3914 
 179   0.0000       5.036262       137.0437 
 180   0.0000       5.370665       146.1432 
 181   0.0000       5.370667       146.1433 
 182   0.0000       5.515034       150.0717 
 183   0.0000       5.567721       151.5054 
 184   0.0000       5.567721       151.5054 
 185   0.0000       5.630885       153.2242 
 186   0.0000       5.630885       153.2242 
 187   0.0000       5.709545       155.3646 
 188   0.0000       6.214394       169.1023 
 189   0.0000       8.484031       230.8622 
 190   0.0000       8.484031       230.8622 
 191   0.0000       8.485419       230.9000 
 192   0.0000       8.485419       230.9000 
 193   0.0000       8.760241       238.3783 
 194   0.0000       8.760249       238.3785 
 195   0.0000       8.763900       238.4778 
 196   0.0000       8.763908       238.4781 
 197   0.0000       9.056225       246.4324 
 198   0.0000       9.097729       247.5618 
 199   0.0000       9.097729       247.5618 
 200   0.0000       9.304964       253.2009 
 201   0.0000       9.304964       253.2009 
 202   0.0000       9.376652       255.1517 
 203   0.0000       9.559503       260.1273 
 204   0.0000       9.729789       264.7610 
 205   0.0000       9.827825       267.4287 
 206   0.0000       9.827826       267.4287 
 207   0.0000      10.860957       295.5417 
 208   0.0000      10.860957       295.5417 
 209   0.0000      11.277237       306.8692 
 210   0.0000      11.319261       308.0128 
 211   0.0000      12.297366       334.6283 
 212   0.0000      12.297366       334.6283 
 213   0.0000      12.321224       335.2776 
 214   0.0000      12.321224       335.2776 
 215   0.0000      12.353848       336.1653 
 216   0.0000      12.486256       339.7683 
 217   0.0000      12.486265       339.7685 
 218   0.0000      12.634950       343.8145 
 219   0.0000      12.634958       343.8147 
 220   0.0000      12.931803       351.8923 
 221   0.0000      12.931803       351.8923 
 222   0.0000      12.980379       353.2141 
 223   0.0000      12.980379       353.2141 
 224   0.0000      13.288339       361.5941 
 225   0.0000      14.225664       387.1000 
 226   0.0000      16.776797       456.5198 
 227   0.0000      16.776797       456.5198 
 228   0.0000      16.789450       456.8642 
 229   0.0000      16.789598       456.8682 
 230   0.0000      16.790510       456.8930 
 231   0.0000      16.790658       456.8970 
 232   0.0000      16.817446       457.6260 
 233   0.0000      16.817446       457.6260 
 234   0.0000      16.859353       458.7663 
 235   0.0000      16.859379       458.7670 
 236   0.0000      16.950942       461.2586 
 237   0.0000      17.152128       466.7331 
 238   0.0000      17.152158       466.7339 
 239   0.0000      17.221182       468.6122 
 240   0.0000      17.221182       468.6122 
 241   0.0000      17.567909       478.0471 
 242   0.0000      17.962856       488.7942 
 243   0.0000      17.962856       488.7942 
 244   0.0000      20.643504       561.7383 
 245   0.0000      23.396520       636.6517 
 246   0.0000      23.396520       636.6517 
 247   0.0000      23.407214       636.9427 
 248   0.0000      23.407214       636.9427 
 249   0.0000      24.149944       657.1534 
 250   0.0000      24.635422       670.3639 
 251   0.0000      39.485703      1074.4606 
 252   0.0000      39.796916      1082.9291 
 253   0.0000      91.009861      2476.5042 
 254   0.0000      91.009861      2476.5042 
 255   0.0000      91.029205      2477.0306 
 256   0.0000      91.029205      2477.0306 
 257   0.0000      91.570786      2491.7678 
 258   0.0000      91.814303      2498.3942 

                    ********************************
                    * MULLIKEN POPULATION ANALYSIS *
                    ********************************

--------------------------------------------
MULLIKEN ATOMIC CHARGES AND SPIN POPULATIONS
--------------------------------------------
   0 Be:    0.520688    0.000000
   1 H :   -0.260374    0.000000
   2 H :   -0.260313   -0.000000
Sum of atomic charges         :    0.0000000
Sum of atomic spin populations:   -0.0000000

-----------------------------------------------------
MULLIKEN REDUCED ORBITAL CHARGES AND SPIN POPULATIONS
-----------------------------------------------------
CHARGE
  0 Bes       :     2.900471  s :     2.900471
      pz      :     0.537861  p :     0.537861
      px      :     0.000000
      py      :     0.000000
      dz2     :     0.038675  d :     0.038675
      dxz     :    -0.000000
      dyz     :    -0.000000
      dx2y2   :     0.000000
      dxy     :     0.000000
      f0      :     0.002314  f :     0.002314
      f+1     :     0.000000
      f-1     :     0.000000
      f+2     :     0.000000
      f-2     :     0.000000
      f+3     :     0.000000
      f-3     :     0.000000
      g0      :    -0.000009  g :    -0.000009
      g+1     :     0.000000
      g-1     :     0.000000
      g+2     :     0.000000
      g-2     :    -0.000000
      g+3     :     0.000000
      g-3     :     0.000000
      g+4     :     0.000000
      g-4     :     0.000000
  1 H s       :     1.242752  s :     1.242752
      pz      :    -0.000268  p :    -0.000268
      px      :     0.000000
      py      :     0.000000
      dz2     :     0.013126  d :     0.013126
      dxz     :    -0.000000
      dyz     :    -0.000000
      dx2y2   :     0.000000
      dxy     :     0.000000
      f0      :     0.004342  f :     0.004342
      f+1     :     0.000000
      f-1     :     0.000000
      f+2     :    -0.000000
      f-2     :     0.000000
      f+3     :     0.000000
      f-3     :     0.000000
      g0      :     0.000423  g :     0.000423
      g+1     :     0.000000
      g-1     :     0.000000
      g+2     :     0.000000
      g-2     :     0.000000
      g+3     :     0.000000
      g-3     :     0.000000
      g+4     :     0.000000
      g-4     :     0.000000
  2 H s       :     1.242703  s :     1.242703
      pz      :    -0.000278  p :    -0.000278
      px      :     0.000000
      py      :     0.000000
      dz2     :     0.013124  d :     0.013124
      dxz     :    -0.000000
      dyz     :    -0.000000
      dx2y2   :    -0.000000
      dxy     :    -0.000000
      f0      :     0.004341  f :     0.004341
      f+1     :     0.000000
      f-1     :     0.000000
      f+2     :    -0.000000
      f-2     :    -0.000000
      f+3     :     0.000000
      f-3     :    -0.000000
      g0      :     0.000423  g :     0.000423
      g+1     :    -0.000000
      g-1     :    -0.000000
      g+2     :    -0.000000
      g-2     :    -0.000000
      g+3     :     0.000000
      g-3     :     0.000000
      g+4     :     0.000000
      g-4     :     0.000000

SPIN
  0 Bes       :    -0.000000  s :    -0.000000
      pz      :     0.000000  p :     0.000000
      px      :    -0.000000
      py      :    -0.000000
      dz2     :     0.000000  d :     0.000000
      dxz     :     0.000000
      dyz     :     0.000000
      dx2y2   :     0.000000
      dxy     :     0.000000
      f0      :    -0.000000  f :    -0.000000
      f+1     :     0.000000
      f-1     :    -0.000000
      f+2     :     0.000000
      f-2     :    -0.000000
      f+3     :     0.000000
      f-3     :     0.000000
      g0      :    -0.000000  g :    -0.000000
      g+1     :     0.000000
      g-1     :     0.000000
      g+2     :    -0.000000
      g-2     :    -0.000000
      g+3     :     0.000000
      g-3     :     0.000000
      g+4     :     0.000000
      g-4     :    -0.000000
  1 H s       :     0.000000  s :     0.000000
      pz      :     0.000000  p :     0.000000
      px      :    -0.000000
      py      :    -0.000000
      dz2     :     0.000000  d :     0.000000
      dxz     :    -0.000000
      dyz     :    -0.000000
      dx2y2   :    -0.000000
      dxy     :     0.000000
      f0      :     0.000000  f :     0.000000
      f+1     :     0.000000
      f-1     :     0.000000
      f+2     :    -0.000000
      f-2     :    -0.000000
      f+3     :     0.000000
      f-3     :     0.000000
      g0      :     0.000000  g :     0.000000
      g+1     :     0.000000
      g-1     :    -0.000000
      g+2     :    -0.000000
      g-2     :    -0.000000
      g+3     :     0.000000
      g-3     :     0.000000
      g+4     :     0.000000
      g-4     :     0.000000
  2 H s       :    -0.000000  s :    -0.000000
      pz      :     0.000000  p :     0.000000
      px      :    -0.000000
      py      :     0.000000
      dz2     :     0.000000  d :     0.000000
      dxz     :    -0.000000
      dyz     :     0.000000
      dx2y2   :     0.000000
      dxy     :     0.000000
      f0      :     0.000000  f :     0.000000
      f+1     :     0.000000
      f-1     :     0.000000
      f+2     :     0.000000
      f-2     :    -0.000000
      f+3     :    -0.000000
      f-3     :     0.000000
      g0      :     0.000000  g :     0.000000
      g+1     :     0.000000
      g-1     :     0.000000
      g+2     :     0.000000
      g-2     :    -0.000000
      g+3     :    -0.000000
      g-3     :     0.000000
      g+4     :    -0.000000
      g-4     :    -0.000000


                     *******************************
                     * LOEWDIN POPULATION ANALYSIS *
                     *******************************

-------------------------------------------
LOEWDIN ATOMIC CHARGES AND SPIN POPULATIONS
-------------------------------------------
   0 Be:    0.534957    0.000000
   1 H :   -0.267478    0.000000
   2 H :   -0.267478   -0.000000

----------------------------------------------------
LOEWDIN REDUCED ORBITAL CHARGES AND SPIN POPULATIONS
----------------------------------------------------
CHARGE
  0 Bes       :     2.590407  s :     2.590407
      pz      :     0.788079  p :     0.788079
      px      :     0.000000
      py      :     0.000000
      dz2     :     0.058321  d :     0.058321
      dxz     :     0.000000
      dyz     :     0.000000
      dx2y2   :     0.000000
      dxy     :     0.000000
      f0      :     0.025810  f :     0.025810
      f+1     :     0.000000
      f-1     :     0.000000
      f+2     :     0.000000
      f-2     :     0.000000
      f+3     :     0.000000
      f-3     :     0.000000
      g0      :     0.002427  g :     0.002427
      g+1     :     0.000000
      g-1     :     0.000000
      g+2     :     0.000000
      g-2     :     0.000000
      g+3     :     0.000000
      g-3     :     0.000000
      g+4     :     0.000000
      g-4     :     0.000000
  1 H s       :     1.000710  s :     1.000710
      pz      :     0.108591  p :     0.108591
      px      :     0.000000
      py      :     0.000000
      dz2     :     0.086282  d :     0.086282
      dxz     :     0.000000
      dyz     :     0.000000
      dx2y2   :     0.000000
      dxy     :     0.000000
      f0      :     0.050060  f :     0.050060
      f+1     :     0.000000
      f-1     :     0.000000
      f+2     :     0.000000
      f-2     :     0.000000
      f+3     :     0.000000
      f-3     :     0.000000
      g0      :     0.021834  g :     0.021834
      g+1     :     0.000000
      g-1     :     0.000000
      g+2     :     0.000000
      g-2     :     0.000000
      g+3     :     0.000000
      g-3     :     0.000000
      g+4     :     0.000000
      g-4     :     0.000000
  2 H s       :     1.000710  s :     1.000710
      pz      :     0.108591  p :     0.108591
      px      :     0.000000
      py      :     0.000000
      dz2     :     0.086282  d :     0.086282
      dxz     :     0.000000
      dyz     :     0.000000
      dx2y2   :     0.000000
      dxy     :     0.000000
      f0      :     0.050060  f :     0.050060
      f+1     :     0.000000
      f-1     :     0.000000
      f+2     :     0.000000
      f-2     :     0.000000
      f+3     :     0.000000
      f-3     :     0.000000
      g0      :     0.021834  g :     0.021834
      g+1     :     0.000000
      g-1     :     0.000000
      g+2     :     0.000000
      g-2     :     0.000000
      g+3     :     0.000000
      g-3     :     0.000000
      g+4     :     0.000000
      g-4     :     0.000000

SPIN
  0 Bes       :    -0.000000  s :    -0.000000
      pz      :     0.000000  p :     0.000000
      px      :    -0.000000
      py      :     0.000000
      dz2     :    -0.000000  d :    -0.000000
      dxz     :     0.000000
      dyz     :     0.000000
      dx2y2   :     0.000000
      dxy     :     0.000000
      f0      :    -0.000000  f :    -0.000000
      f+1     :     0.000000
      f-1     :     0.000000
      f+2     :     0.000000
      f-2     :    -0.000000
      f+3     :     0.000000
      f-3     :    -0.000000
      g0      :    -0.000000  g :    -0.000000
      g+1     :     0.000000
      g-1     :     0.000000
      g+2     :    -0.000000
      g-2     :    -0.000000
      g+3     :    -0.000000
      g-3     :    -0.000000
      g+4     :     0.000000
      g-4     :    -0.000000
  1 H s       :     0.000000  s :     0.000000
      pz      :    -0.000000  p :    -0.000000
      px      :     0.000000
      py      :     0.000000
      dz2     :    -0.000000  d :    -0.000000
      dxz     :     0.000000
      dyz     :     0.000000
      dx2y2   :    -0.000000
      dxy     :     0.000000
      f0      :     0.000000  f :     0.000000
      f+1     :     0.000000
      f-1     :     0.000000
      f+2     :    -0.000000
      f-2     :    -0.000000
      f+3     :     0.000000
      f-3     :    -0.000000
      g0      :    -0.000000  g :    -0.000000
      g+1     :    -0.000000
      g-1     :    -0.000000
      g+2     :    -0.000000
      g-2     :    -0.000000
      g+3     :     0.000000
      g-3     :     0.000000
      g+4     :     0.000000
      g-4     :     0.000000
  2 H s       :    -0.000000  s :    -0.000000
      pz      :     0.000000  p :     0.000000
      px      :     0.000000
      py      :     0.000000
      dz2     :     0.000000  d :     0.000000
      dxz     :    -0.000000
      dyz     :    -0.000000
      dx2y2   :     0.000000
      dxy     :     0.000000
      f0      :     0.000000  f :     0.000000
      f+1     :     0.000000
      f-1     :     0.000000
      f+2     :     0.000000
      f-2     :    -0.000000
      f+3     :     0.000000
      f-3     :     0.000000
      g0      :     0.000000  g :     0.000000
      g+1     :     0.000000
      g-1     :     0.000000
      g+2     :     0.000000
      g-2     :    -0.000000
      g+3     :    -0.000000
      g-3     :     0.000000
      g+4     :    -0.000000
      g-4     :    -0.000000


                      *****************************
                      * MAYER POPULATION ANALYSIS *
                      *****************************

  NA   - Mulliken gross atomic population
  ZA   - Total nuclear charge
  QA   - Mulliken gross atomic charge
  VA   - Mayer's total valence
  BVA  - Mayer's bonded valence
  FA   - Mayer's free valence

  ATOM       NA         ZA         QA         VA         BVA        FA
  0 Be     3.4793     4.0000     0.5207     1.7938     1.7938     0.0000
  1 H      1.2604     1.0000    -0.2604     0.9312     0.9312     0.0000
  2 H      1.2603     1.0000    -0.2603     0.9312     0.9312     0.0000

  Mayer bond orders larger than 0.1
B(  0-Be,  1-H ) :   0.8969 B(  0-Be,  2-H ) :   0.8969 

-------
TIMINGS
-------

Total SCF time: 0 days 0 hours 1 min 43 sec 

Total time                  ....     103.639 sec
Sum of individual times     ....      98.332 sec  ( 94.9%)

Fock matrix formation       ....      96.934 sec  ( 93.5%)
  XC integration            ....       4.668 sec  (  4.8% of F)
    Basis function eval.    ....       0.415 sec  (  8.9% of XC)
    Density eval.           ....       0.925 sec  ( 19.8% of XC)
    XC-Functional eval.     ....       0.092 sec  (  2.0% of XC)
    XC-Potential eval.      ....       2.892 sec  ( 62.0% of XC)
Diagonalization             ....       0.444 sec  (  0.4%)
Density matrix formation    ....       0.009 sec  (  0.0%)
Population analysis         ....       0.084 sec  (  0.1%)
Initial guess               ....       0.351 sec  (  0.3%)
Orbital Transformation      ....       0.000 sec  (  0.0%)
Orbital Orthonormalization  ....       0.000 sec  (  0.0%)
DIIS solution               ....       0.284 sec  (  0.3%)
Grid generation             ....       0.227 sec  (  0.2%)

-------------------------   --------------------
FINAL SINGLE POINT ENERGY       -15.865667623422
-------------------------   --------------------


                            ***************************************
                            *     ORCA property calculations      *
                            ***************************************

                                    ---------------------
                                    Active property flags
                                    ---------------------
   (+) Dipole Moment
   (+) Polarizability


------------------------------------------------------------------------------
                       ORCA ELECTRIC PROPERTIES CALCULATION
------------------------------------------------------------------------------

Dipole Moment Calculation                       ... on
Quadrupole Moment Calculation                   ... off
Polarizability Calculation                      ... Analytic (CP-SCF)
GBWName                                         ... beh2_pbe.gbw
Electron density file                           ... beh2_pbe.scfp.tmp
The origin for moment calculation is the CENTER OF MASS  = ( 0.000000,  0.000000  0.000000)

-------------
DIPOLE MOMENT
-------------
                                X             Y             Z
Electronic contribution:      0.00000      -0.00000      -0.00000
Nuclear contribution   :      0.00000       0.00000       0.00000
                        -----------------------------------------
Total Dipole Moment    :      0.00000      -0.00000      -0.00000
                        -----------------------------------------
Magnitude (a.u.)       :      0.00000
Magnitude (Debye)      :      0.00000



--------------------
Rotational spectrum 
--------------------
 
Rotational constants in cm-1:     0.000000     4.752885     4.752885 
Rotational constants in MHz :     0.000000 142487.920971 142487.920971 

 Dipole components along the rotational axes: 
x,y,z [a.u.] :    -0.000000    -0.000000     0.000000 
x,y,z [Debye]:    -0.000000    -0.000000     0.000000 

 
Transforming and storing MO dipole integrals   ... done

                ... starting polarizability calculation

Opening the Dipole integral file               ... (beh2_pbe.dmo.tmp) done
Reading Dipole-MO integrals                    ... done
Solving CP-SCF equations                       ... 

           ************************************************************
           *        Program running with 4 parallel MPI-processes     *
           *              working on a common directory               *
           ************************************************************

------------------------------------------------------------------------------
                           ORCA CP-SCF CALCULATION
------------------------------------------------------------------------------

Input orbitals are from        ... beh2_pbe.gbw
Input Perturbation             ... beh2_pbe.cpv.tmp
Wavefunction output            ... beh2_pbe.cpu.tmp
Perturbation mode              ... Real perturbation (singlet)
Solver                         ... POPLE
Max. number of iterations      ... 200
Convergence tolerance          ... 1.000e-06
Integral handling              ... Direct
Number of perturbations        ... 3
Number of operators            ... 2
Orbital ranges used for CP-SCF:
 Operator 0:  Orbitals   0...  2  to   3...258
 Operator 1:  Orbitals   0...  2  to   3...258
DFT calculation                         ... on
Exchange functional (SCF)               ... PBE
Exchange functional (CP-SCF)            ... PBE
   PBE kappa parameter  XKappa (SCF)    ...  0.804000
   PBE kappa parameter  XKappa (CP-SCF) ...  0.804000
   PBE mue parameter   XMuePBE (SCF)    ...  0.219520
   PBE mue parameter   XMuePBE (CP-SCF) ...  0.219520
Correlation functional (SCF)            ... PBE
Correlation functional (CP-SCF)         ... PBE
   PBE beta parameter CBetaPBE (SCF)    ...  0.066725
   PBE beta parameter CBetaPBE (CP-SCF) ...  0.066725
 LDA part of GGA corr.  LDAOpt (SCF)    ... PW91-LDA
 LDA part of GGA corr.  LDAOpt (CP-SCF) ... PW91-LDA
Variables per vector in CP-SCF ... 1536
Number of vectors sought       ... 3
Recalculating density on grid  ... done
Calculating the xc-kernel      ... done
     CP-SCF ITERATION   0: 
     CP-SCF ITERATION   1:      0.010869705074
     CP-SCF ITERATION   2:      0.000050365852
     CP-SCF ITERATION   3:      0.000000383895
done
Reading CP-SCF coefficients                    ... done
Doing the polarizability tensor   ... done
Cleaning up                                    ... done

-------------------------
THE POLARIZABILITY TENSOR
-------------------------

The raw cartesian tensor (atomic units):
   21.51495      0.00000      0.00000  
    0.00000     21.51495     -0.00000  
    0.00000     -0.00000     21.64207  
diagonalized tensor: 
   21.51495     21.51495     21.64207  

    0.30775      0.95147      0.00000  
   -0.95147      0.30775     -0.00000  
   -0.00000     -0.00000      1.00000  

Isotropic polarizability :  21.55732


Timings for individual modules:

Sum of individual times         ...      166.779 sec (=   2.780 min)
GTO integral calculation        ...        2.542 sec (=   0.042 min)   1.5 %
SCF iterations                  ...      104.795 sec (=   1.747 min)  62.8 %
Solution of CP-SCF eqns.        ...       59.442 sec (=   0.991 min)  35.6 %
                             ****ORCA TERMINATED NORMALLY****
TOTAL RUN TIME: 0 days 0 hours 2 minutes 47 seconds 550 msec
