
                                 *****************
                                 * O   R   C   A *
                                 *****************

           --- An Ab Initio, DFT and Semiempirical electronic structure package ---

                  #######################################################
                  #                        -***-                        #
                  #          Department of theory and spectroscopy      #
                  #               Directorship: Frank Neese             #
                  #        Max Planck Institute fuer Kohlenforschung    #
                  #                Kaiser Wilhelm Platz 1               #
                  #                 D-45470 Muelheim/Ruhr               #
                  #                      Germany                        #
                  #                                                     #
                  #                  All rights reserved                #
                  #                        -***-                        #
                  #######################################################


                         Program Version 4.1.2  - RELEASE  -


 With contributions from (in alphabetic order):
   Daniel Aravena         : Magnetic Properties
   Michael Atanasov       : Ab Initio Ligand Field Theory
   Alexander A. Auer      : GIAO ZORA
   Ute Becker             : Parallelization
   Giovanni Bistoni       : ED, Open-shell LED
   Martin Brehm           : Molecular dynamics
   Dmytro Bykov           : SCF Hessian
   Vijay G. Chilkuri      : MRCI spin determinant printing
   Dipayan Datta          : RHF DLPNO-CCSD density
   Achintya Kumar Dutta   : EOM-CC, STEOM-CC
   Dmitry Ganyushin       : Spin-Orbit,Spin-Spin,Magnetic field MRCI
   Miquel Garcia          : C-PCM Hessian
   Yang Guo               : DLPNO-NEVPT2, CIM, IAO-localization
   Andreas Hansen         : Spin unrestricted coupled pair/coupled cluster methods
   Benjamin Helmich-Paris : CASSCF linear response (MC-RPA)
   Lee Huntington         : MR-EOM, pCC
   Robert Izsak           : Overlap fitted RIJCOSX, COSX-SCS-MP3, EOM
   Christian Kollmar      : KDIIS, OOCD, Brueckner-CCSD(T), CCSD density
   Simone Kossmann        : Meta GGA functionals, TD-DFT gradient, OOMP2, MP2 Hessian
   Martin Krupicka        : AUTO-CI
   Lucas Lang             : DCDCAS
   Dagmar Lenk            : GEPOL surface, SMD
   Dimitrios Liakos       : Extrapolation schemes; parallel MDCI
   Dimitrios Manganas     : ROCIS; embedding schemes
   Dimitrios Pantazis     : SARC Basis sets
   Taras Petrenko         : DFT Hessian,TD-DFT gradient, ASA, ECA, R-Raman, ABS, FL, XAS/XES, NRVS
   Peter Pinski           : DLPNO-MP2, DLPNO-MP2 Gradient
   Christoph Reimann      : Effective Core Potentials
   Marius Retegan         : Local ZFS, SOC
   Christoph Riplinger    : Optimizer, TS searches, QM/MM, DLPNO-CCSD(T), (RO)-DLPNO pert. Triples
   Tobias Risthaus        : Range-separated hybrids, TD-DFT gradient, RPA, STAB
   Michael Roemelt        : Restricted open shell CIS
   Masaaki Saitow         : Open-shell DLPNO
   Barbara Sandhoefer     : DKH picture change effects
   Avijit Sen             : IP-ROCIS
   Kantharuban Sivalingam : CASSCF convergence, NEVPT2, FIC-MRCI
   Bernardo de Souza      : ESD, SOC TD-DFT
   Georgi Stoychev        : AutoAux, RI-MP2 NMR
   Willem Van den Heuvel  : Paramagnetic NMR
   Boris Wezisla          : Elementary symmetry handling
   Frank Wennmohs         : Technical directorship


 We gratefully acknowledge several colleagues who have allowed us to
 interface, adapt or use parts of their codes:
   Stefan Grimme, W. Hujo, H. Kruse,             : VdW corrections, initial TS optimization,
                  C. Bannwarth                     DFT functionals, gCP, sTDA/sTD-DF
   Ed Valeev                                     : LibInt (2-el integral package), F12 methods
   Garnet Chan, S. Sharma, J. Yang, R. Olivares  : DMRG
   Ulf Ekstrom                                   : XCFun DFT Library
   Mihaly Kallay                                 : mrcc  (arbitrary order and MRCC methods)
   Andreas Klamt, Michael Diedenhofen            : otool_cosmo (COSMO solvation model)
   Jiri Pittner, Ondrej Demel                    : Mk-CCSD
   Frank Weinhold                                : gennbo (NPA and NBO analysis)
   Christopher J. Cramer and Donald G. Truhlar   : smd solvation model
   Lars Goerigk                                  : TD-DFT with DH, B97 family of functionals
   V. Asgeirsson, H. Jonsson                     : NEB implementation
   FAccTs GmbH                                   : IRC, NEB, NEB-TS, Multilevel


 Your calculation uses the libint2 library for the computation of 2-el integrals
 For citations please refer to: http://libint.valeyev.net

 This ORCA versions uses:
   CBLAS   interface :  Fast vector & matrix operations
   LAPACKE interface :  Fast linear algebra routines
   SCALAPACK package :  Parallel linear algebra routines


----- Orbital basis set information -----
Your calculation utilizes the basis: aug-pc-4
   H, C-F              : F. Jensen, J. Chem. Phys. 115, 9113 (2001).
                         F. Jensen, J. Chem. Phys. 116, 7372 (2002).
                         F. Jensen, J. Chem. Phys. 117, 9234 (2002).
   Si-Cl               : F. Jensen, T. Helgaker, J. Chem. Phys. 121, 3463 (2004).
   He-B, Ne-Mg, Al, Ar : F. Jensen, J. Phys. Chem. A 111, 11198 (2007).
   K, Ca, Ga-Kr        : F. Jensen, J. Chem. Phys. 136, 094110 (2012).
   Sc-Zn               : F. Jensen, J. Chem. Phys. 138, 014107 (2013).

================================================================================
                                        WARNINGS
                       Please study these warnings very carefully!
================================================================================


INFO   : the flag for use of LIBINT has been found!

================================================================================
                                       INPUT FILE
================================================================================
NAME = bh2cl_pbe.inp
|  1> !uks pbe nori aug-pc-4 grid5 nofinalgrid verytightscf
|  2> 
|  3> %maxcore 1500
|  4> 
|  5> %pal nprocs 4 end
|  6> 
|  7> %scf
|  8> 	maxiter 200
|  9> end
| 10> %elprop
| 11> 	dipole true
| 12> 	 polar 1
| 13> 	 maxiter 200
| 14> end
| 15> 
| 16> * xyz 0 1
| 17> B 0.0000000000 0.0000000000 0.0000000000
| 18> Cl 0.0000000000 0.0000000000 1.7353000000
| 19> H 0.0000000000 1.0532000000 -0.5574000000
| 20> H 0.0000000000 -1.0532000000 -0.5574000000
| 21> *
| 22> 
| 23>                          ****END OF INPUT****
================================================================================

                       ****************************
                       * Single Point Calculation *
                       ****************************

---------------------------------
CARTESIAN COORDINATES (ANGSTROEM)
---------------------------------
  B      0.000000    0.000000    0.000000
  Cl     0.000000    0.000000    1.735300
  H      0.000000    1.053200   -0.557400
  H      0.000000   -1.053200   -0.557400

----------------------------
CARTESIAN COORDINATES (A.U.)
----------------------------
  NO LB      ZA    FRAG     MASS         X           Y           Z
   0 B     5.0000    0    10.810    0.000000    0.000000    0.000000
   1 Cl   17.0000    0    35.453    0.000000    0.000000    3.279242
   2 H     1.0000    0     1.008    0.000000    1.990260   -1.053333
   3 H     1.0000    0     1.008    0.000000   -1.990260   -1.053333

--------------------------------
INTERNAL COORDINATES (ANGSTROEM)
--------------------------------
 B      0   0   0     0.000000000000     0.00000000     0.00000000
 Cl     1   0   0     1.735300000000     0.00000000     0.00000000
 H      1   2   0     1.191606059065   117.88977191     0.00000000
 H      1   2   3     1.191606059065   117.88977191   180.00000000

---------------------------
INTERNAL COORDINATES (A.U.)
---------------------------
 B      0   0   0     0.000000000000     0.00000000     0.00000000
 Cl     1   0   0     3.279241760194     0.00000000     0.00000000
 H      1   2   0     2.251809111154   117.88977191     0.00000000
 H      1   2   3     2.251809111154   117.88977191   180.00000000

---------------------
BASIS SET INFORMATION
---------------------
There are 3 groups of distinct atoms

 Group   1 Type B   : 27s12p7d4f3g2h contracted to 9s8p7d4f3g2h pattern {1191111111/51111111/1111111/1111/111/11}
 Group   2 Type Cl  : 44s27p7d4f3g2h contracted to 8s7p7d4f3g2h pattern {15121211111/111111111/1111111/1111/111/11}
 Group   3 Type H   : 12s7p4d3f2g contracted to 8s7p4d3f2g pattern {51111111/1111111/1111/111/11}

Atom   0B    basis set group =>   1
Atom   1Cl   basis set group =>   2
Atom   2H    basis set group =>   3
Atom   3H    basis set group =>   3


           ************************************************************
           *        Program running with 4 parallel MPI-processes     *
           *              working on a common directory               *
           ************************************************************
------------------------------------------------------------------------------
                           ORCA GTO INTEGRAL CALCULATION
------------------------------------------------------------------------------

                         BASIS SET STATISTICS AND STARTUP INFO

 # of primitive gaussian shells          ...  198
 # of primitive gaussian functions       ...  596
 # of contracted shells                  ...  112
 # of contracted basis functions         ...  462
 Highest angular momentum                ...    5
 Maximum contraction depth               ...   15
 Integral package used                   ... LIBINT
 Integral threshhold            Thresh   ...  1.000e-12
 Primitive cut-off              TCut     ...  1.000e-14


------------------------------ INTEGRAL EVALUATION ----------------------------


 * One electron integrals 
 Pre-screening matrix                    ... done
 Shell pair data                         ... done (   0.002 sec)



           ************************************************************
           *        Program running with 4 parallel MPI-processes     *
           *              working on a common directory               *
           ************************************************************
-------------------------------------------------------------------------------
                                 ORCA SCF
-------------------------------------------------------------------------------

------------
SCF SETTINGS
------------
Hamiltonian:
 Density Functional     Method          .... DFT(GTOs)
 Exchange Functional    Exchange        .... PBE
   PBE kappa parameter   XKappa         ....  0.804000
   PBE mue parameter    XMuePBE         ....  0.219520
 Correlation Functional Correlation     .... PBE
   PBE beta parameter  CBetaPBE         ....  0.066725
 LDA part of GGA corr.  LDAOpt          .... PW91-LDA
 Gradients option       PostSCFGGA      .... off
   Density functional embedding theory  .... OFF
   NL short-range parameter             ....  6.400000


General Settings:
 Integral files         IntName         .... bh2cl_pbe
 Hartree-Fock type      HFTyp           .... UHF
 Total Charge           Charge          ....    0
 Multiplicity           Mult            ....    1
 Number of Electrons    NEL             ....   24
 Basis Dimension        Dim             ....  462
 Nuclear Repulsion      ENuc            ....     37.7438287167 Eh

Convergence Acceleration:
 DIIS                   CNVDIIS         .... on
   Start iteration      DIISMaxIt       ....    12
   Startup error        DIISStart       ....  0.200000
   # of expansion vecs  DIISMaxEq       ....     5
   Bias factor          DIISBfac        ....   1.050
   Max. coefficient     DIISMaxC        ....  10.000
 Newton-Raphson         CNVNR           .... off
 SOSCF                  CNVSOSCF        .... off
 Level Shifting         CNVShift        .... on
   Level shift para.    LevelShift      ....    0.2500
   Turn off err/grad.   ShiftErr        ....    0.0010
 Zerner damping         CNVZerner       .... off
 Static damping         CNVDamp         .... on
   Fraction old density DampFac         ....    0.7000
   Max. Damping (<1)    DampMax         ....    0.9800
   Min. Damping (>=0)   DampMin         ....    0.0000
   Turn off err/grad.   DampErr         ....    0.1000
 Fernandez-Rico         CNVRico         .... off

SCF Procedure:
 Maximum # iterations   MaxIter         ....   200
 SCF integral mode      SCFMode         .... Direct
   Integral package                     .... LIBINT
 Reset frequency        DirectResetFreq ....    20
 Integral Threshold     Thresh          ....  1.000e-12 Eh
 Primitive CutOff       TCut            ....  1.000e-14 Eh

Convergence Tolerance:
 Convergence Check Mode ConvCheckMode   .... Total+1el-Energy
 Convergence forced     ConvForced      .... 0
 Energy Change          TolE            ....  1.000e-09 Eh
 1-El. energy change                    ....  1.000e-06 Eh
 DIIS Error             TolErr          ....  1.000e-08


Diagonalization of the overlap matrix:
Smallest eigenvalue                        ... 4.903e-07
Time for diagonalization                   ...    0.063 sec
Threshold for overlap eigenvalues          ... 1.000e-08
Number of eigenvalues below threshold      ... 0
Time for construction of square roots      ...    0.040 sec
Total time needed                          ...    0.105 sec

-------------------
DFT GRID GENERATION
-------------------

General Integration Accuracy     IntAcc      ...  5.010
Radial Grid Type                 RadialGrid  ... Gauss-Chebyshev
Angular Grid (max. acc.)         AngularGrid ... Lebedev-434
Angular grid pruning method      GridPruning ... 3 (G Style)
Weight generation scheme         WeightScheme... Becke
Basis function cutoff            BFCut       ...    1.0000e-12
Integration weight cutoff        WCut        ...    1.0000e-14
Grids for H and He will be reduced by one unit

# of grid points (after initial pruning)     ...  35858 (   0.0 sec)
# of grid points (after weights+screening)   ...  35264 (   0.0 sec)
nearest neighbour list constructed           ...    0.0 sec
Grid point re-assignment to atoms done       ...    0.0 sec
Grid point division into batches done        ...    0.3 sec
Reduced shell lists constructed in    0.4 sec

Total number of grid points                  ...    35264
Total number of batches                      ...      554
Average number of points per batch           ...       63
Average number of grid points per atom       ...     8816
Average number of shells per batch           ...    80.42 (71.80%)
Average number of basis functions per batch  ...   340.18 (73.63%)
Average number of large shells per batch     ...    72.56 (90.23%)
Average number of large basis fcns per batch ...   309.44 (90.96%)
Maximum spatial batch extension              ...  21.43, 22.22, 17.96 au
Average spatial batch extension              ...   1.04,  1.00,  0.90 au

Time for grid setup =    0.475 sec

------------------------------
INITIAL GUESS: MODEL POTENTIAL
------------------------------
Loading Hartree-Fock densities                     ... done
Calculating cut-offs                               ... done
Setting up the integral package                    ... done
Initializing the effective Hamiltonian             ... done
Starting the Coulomb interaction                   ... done (   0.1 sec)
Reading the grid                                   ... done
Mapping shells                                     ... done
Starting the XC term evaluation                    ... done (   1.0 sec)
  promolecular density results
     # of electrons  =     23.999026969
     EX              =    -31.734474639
     EC              =     -0.858049728
     EX+EC           =    -32.592524367
Transforming the Hamiltonian                       ... done (   0.0 sec)
Diagonalizing the Hamiltonian                      ... done (   0.1 sec)
Back transforming the eigenvectors                 ... done (   0.0 sec)
Now organizing SCF variables                       ... done
                      ------------------
                      INITIAL GUESS DONE (   1.7 sec)
                      ------------------
--------------
SCF ITERATIONS
--------------
ITER       Energy         Delta-E        Max-DP      RMS-DP      [F,P]     Damp
               ***  Starting incremental Fock matrix formation  ***
  0   -486.0411616063   0.000000000000 0.01591028  0.00011710  0.0873101 0.7000
  1   -486.0530755658  -0.011913959500 0.00779412  0.00008946  0.0434329 0.7000
                               ***Turning on DIIS***
  2   -486.0580796101  -0.005004044368 0.01804105  0.00018916  0.0263700 0.0000
  3   -486.0644710766  -0.006391466477 0.00745242  0.00006203  0.0334674 0.0000
  4   -486.0669000901  -0.002429013441 0.00540641  0.00002743  0.0058255 0.0000
  5   -486.0670333371  -0.000133247002 0.00135855  0.00001374  0.0014804 0.0000
  6   -486.0670409831  -0.000007646054 0.00052750  0.00000429  0.0005406 0.0000
  7   -486.0670422993  -0.000001316171 0.00021496  0.00000107  0.0002687 0.0000
  8   -486.0670424714  -0.000000172089 0.00003389  0.00000032  0.0000713 0.0000
  9   -486.0670424832  -0.000000011838 0.00000946  0.00000008  0.0000236 0.0000
 10   -486.0670424845  -0.000000001236 0.00000968  0.00000005  0.0000073 0.0000
 11   -486.0670424845  -0.000000000063 0.00001001  0.00000006  0.0000029 0.0000
 12   -486.0670424845  -0.000000000035 0.00000881  0.00000008  0.0000004 0.0000
 13   -486.0670424845   0.000000000004 0.00003009  0.00000033  0.0000001 0.0000
                 **** Energy Check signals convergence ****

               *****************************************************
               *                     SUCCESS                       *
               *           SCF CONVERGED AFTER  14 CYCLES          *
               *****************************************************


----------------
TOTAL SCF ENERGY
----------------

Total Energy       :         -486.06704248 Eh          -13226.55665 eV

Components:
Nuclear Repulsion  :           37.74382872 Eh            1027.06179 eV
Electronic Energy  :         -523.81087120 Eh          -14253.61845 eV
One Electron Energy:         -744.36563291 Eh          -20255.21863 eV
Two Electron Energy:          220.55476171 Eh            6001.60018 eV

Virial components:
Potential Energy   :         -971.61321031 Eh          -26438.93958 eV
Kinetic Energy     :          485.54616783 Eh           13212.38293 eV
Virial Ratio       :            2.00107276


DFT components:
N(Alpha)           :       12.000003001466 electrons
N(Beta)            :       12.000003001466 electrons
N(Total)           :       24.000006002933 electrons
E(X)               :      -31.935405183976 Eh       
E(C)               :       -0.858465049024 Eh       
E(XC)              :      -32.793870233000 Eh       
DFET-embed. en.    :        0.000000000000 Eh       

---------------
SCF CONVERGENCE
---------------

  Last Energy change         ...    5.1159e-12  Tolerance :   1.0000e-09
  Last MAX-Density change    ...    3.0195e-05  Tolerance :   1.0000e-08
  Last RMS-Density change    ...    1.7588e-07  Tolerance :   1.0000e-09
  Last DIIS Error            ...    1.3910e-08  Tolerance :   1.0000e-08

             **** THE GBW FILE WAS UPDATED (bh2cl_pbe.gbw) ****
             **** DENSITY FILE WAS UPDATED (bh2cl_pbe.scfp.tmp) ****
             **** ENERGY FILE WAS UPDATED (bh2cl_pbe.en.tmp) ****
----------------------
UHF SPIN CONTAMINATION
----------------------

Warning: in a DFT calculation there is little theoretical justification to 
         calculate <S**2> as in Hartree-Fock theory. We will do it anyways
         but you should keep in mind that the values have only limited relevance

Expectation value of <S**2>     :    -0.000000
Ideal value S*(S+1) for S=0.0   :     0.000000
Deviation                       :    -0.000000

----------------
ORBITAL ENERGIES
----------------
                 SPIN UP ORBITALS
  NO   OCC          E(Eh)            E(eV) 
   0   1.0000    -100.665459     -2739.2464 
   1   1.0000      -9.190900      -250.0971 
   2   1.0000      -7.009858      -190.7479 
   3   1.0000      -7.007065      -190.6719 
   4   1.0000      -7.003070      -190.5632 
   5   1.0000      -6.563091      -178.5908 
   6   1.0000      -0.779149       -21.2017 
   7   1.0000      -0.472111       -12.8468 
   8   1.0000      -0.364098        -9.9076 
   9   1.0000      -0.360997        -9.8232 
  10   1.0000      -0.326664        -8.8890 
  11   1.0000      -0.268509        -7.3065 
  12   0.0000      -0.106536        -2.8990 
  13   0.0000      -0.009392        -0.2556 
  14   0.0000       0.001229         0.0334 
  15   0.0000       0.008984         0.2445 
  16   0.0000       0.012740         0.3467 
  17   0.0000       0.029515         0.8031 
  18   0.0000       0.033097         0.9006 
  19   0.0000       0.035175         0.9571 
  20   0.0000       0.041102         1.1184 
  21   0.0000       0.041216         1.1215 
  22   0.0000       0.043236         1.1765 
  23   0.0000       0.044944         1.2230 
  24   0.0000       0.047723         1.2986 
  25   0.0000       0.054933         1.4948 
  26   0.0000       0.072041         1.9603 
  27   0.0000       0.079342         2.1590 
  28   0.0000       0.081176         2.2089 
  29   0.0000       0.082757         2.2519 
  30   0.0000       0.087559         2.3826 
  31   0.0000       0.095171         2.5897 
  32   0.0000       0.103263         2.8099 
  33   0.0000       0.104045         2.8312 
  34   0.0000       0.105018         2.8577 
  35   0.0000       0.112445         3.0598 
  36   0.0000       0.116446         3.1687 
  37   0.0000       0.124097         3.3769 
  38   0.0000       0.124985         3.4010 
  39   0.0000       0.126447         3.4408 
  40   0.0000       0.136805         3.7227 
  41   0.0000       0.141770         3.8577 
  42   0.0000       0.142462         3.8766 
  43   0.0000       0.151104         4.1118 
  44   0.0000       0.161273         4.3884 
  45   0.0000       0.169679         4.6172 
  46   0.0000       0.171446         4.6653 
  47   0.0000       0.180698         4.9170 
  48   0.0000       0.181369         4.9353 
  49   0.0000       0.184044         5.0081 
  50   0.0000       0.189141         5.1468 
  51   0.0000       0.192844         5.2476 
  52   0.0000       0.196486         5.3467 
  53   0.0000       0.197945         5.3863 
  54   0.0000       0.204394         5.5619 
  55   0.0000       0.205424         5.5899 
  56   0.0000       0.214081         5.8254 
  57   0.0000       0.215933         5.8758 
  58   0.0000       0.217971         5.9313 
  59   0.0000       0.224957         6.1214 
  60   0.0000       0.237243         6.4557 
  61   0.0000       0.254542         6.9264 
  62   0.0000       0.256621         6.9830 
  63   0.0000       0.259116         7.0509 
  64   0.0000       0.267424         7.2770 
  65   0.0000       0.267907         7.2901 
  66   0.0000       0.276686         7.5290 
  67   0.0000       0.282205         7.6792 
  68   0.0000       0.290958         7.9174 
  69   0.0000       0.294252         8.0070 
  70   0.0000       0.295174         8.0321 
  71   0.0000       0.304111         8.2753 
  72   0.0000       0.306716         8.3462 
  73   0.0000       0.310281         8.4432 
  74   0.0000       0.317751         8.6465 
  75   0.0000       0.319740         8.7006 
  76   0.0000       0.320779         8.7288 
  77   0.0000       0.321922         8.7599 
  78   0.0000       0.322628         8.7791 
  79   0.0000       0.327806         8.9201 
  80   0.0000       0.337278         9.1778 
  81   0.0000       0.338016         9.1979 
  82   0.0000       0.346777         9.4363 
  83   0.0000       0.351945         9.5769 
  84   0.0000       0.357354         9.7241 
  85   0.0000       0.362730         9.8704 
  86   0.0000       0.372902        10.1472 
  87   0.0000       0.374268        10.1844 
  88   0.0000       0.380266        10.3476 
  89   0.0000       0.383160        10.4263 
  90   0.0000       0.384446        10.4613 
  91   0.0000       0.386257        10.5106 
  92   0.0000       0.399610        10.8739 
  93   0.0000       0.401858        10.9351 
  94   0.0000       0.401886        10.9359 
  95   0.0000       0.405796        11.0423 
  96   0.0000       0.424929        11.5629 
  97   0.0000       0.457217        12.4415 
  98   0.0000       0.466250        12.6873 
  99   0.0000       0.466848        12.7036 
 100   0.0000       0.480347        13.0709 
 101   0.0000       0.498601        13.5676 
 102   0.0000       0.505063        13.7435 
 103   0.0000       0.512708        13.9515 
 104   0.0000       0.516880        14.0650 
 105   0.0000       0.517784        14.0896 
 106   0.0000       0.523404        14.2425 
 107   0.0000       0.524000        14.2588 
 108   0.0000       0.525227        14.2922 
 109   0.0000       0.530304        14.4303 
 110   0.0000       0.548601        14.9282 
 111   0.0000       0.564549        15.3622 
 112   0.0000       0.565241        15.3810 
 113   0.0000       0.570813        15.5326 
 114   0.0000       0.580436        15.7945 
 115   0.0000       0.581307        15.8182 
 116   0.0000       0.592825        16.1316 
 117   0.0000       0.594091        16.1660 
 118   0.0000       0.599513        16.3136 
 119   0.0000       0.609221        16.5778 
 120   0.0000       0.612647        16.6710 
 121   0.0000       0.622300        16.9337 
 122   0.0000       0.627739        17.0817 
 123   0.0000       0.634799        17.2738 
 124   0.0000       0.644957        17.5502 
 125   0.0000       0.653038        17.7701 
 126   0.0000       0.653312        17.7775 
 127   0.0000       0.659344        17.9417 
 128   0.0000       0.660652        17.9772 
 129   0.0000       0.668799        18.1990 
 130   0.0000       0.673465        18.3259 
 131   0.0000       0.679240        18.4831 
 132   0.0000       0.687515        18.7082 
 133   0.0000       0.690075        18.7779 
 134   0.0000       0.705219        19.1900 
 135   0.0000       0.707604        19.2549 
 136   0.0000       0.708846        19.2887 
 137   0.0000       0.709910        19.3176 
 138   0.0000       0.710149        19.3241 
 139   0.0000       0.714996        19.4560 
 140   0.0000       0.722596        19.6628 
 141   0.0000       0.725498        19.7418 
 142   0.0000       0.743045        20.2193 
 143   0.0000       0.754270        20.5247 
 144   0.0000       0.762737        20.7551 
 145   0.0000       0.774331        21.0706 
 146   0.0000       0.776159        21.1204 
 147   0.0000       0.790776        21.5181 
 148   0.0000       0.799204        21.7474 
 149   0.0000       0.802164        21.8280 
 150   0.0000       0.809411        22.0252 
 151   0.0000       0.815814        22.1994 
 152   0.0000       0.828906        22.5557 
 153   0.0000       0.829339        22.5675 
 154   0.0000       0.836227        22.7549 
 155   0.0000       0.850136        23.1334 
 156   0.0000       0.851146        23.1609 
 157   0.0000       0.857630        23.3373 
 158   0.0000       0.885807        24.1040 
 159   0.0000       0.889997        24.2181 
 160   0.0000       0.894349        24.3365 
 161   0.0000       0.898397        24.4466 
 162   0.0000       0.903354        24.5815 
 163   0.0000       0.912316        24.8254 
 164   0.0000       0.917341        24.9621 
 165   0.0000       0.929557        25.2945 
 166   0.0000       0.954987        25.9865 
 167   0.0000       0.978188        26.6178 
 168   0.0000       0.980977        26.6937 
 169   0.0000       0.995142        27.0792 
 170   0.0000       0.996917        27.1275 
 171   0.0000       1.010578        27.4992 
 172   0.0000       1.027161        27.9505 
 173   0.0000       1.034407        28.1476 
 174   0.0000       1.042587        28.3702 
 175   0.0000       1.059140        28.8207 
 176   0.0000       1.064899        28.9774 
 177   0.0000       1.078416        29.3452 
 178   0.0000       1.105197        30.0739 
 179   0.0000       1.137779        30.9605 
 180   0.0000       1.143331        31.1116 
 181   0.0000       1.150184        31.2981 
 182   0.0000       1.150465        31.3057 
 183   0.0000       1.150859        31.3165 
 184   0.0000       1.203443        32.7474 
 185   0.0000       1.261740        34.3337 
 186   0.0000       1.311828        35.6967 
 187   0.0000       1.328684        36.1553 
 188   0.0000       1.347118        36.6569 
 189   0.0000       1.377731        37.4900 
 190   0.0000       1.377864        37.4936 
 191   0.0000       1.380048        37.5530 
 192   0.0000       1.386854        37.7382 
 193   0.0000       1.415398        38.5149 
 194   0.0000       1.424836        38.7718 
 195   0.0000       1.453292        39.5461 
 196   0.0000       1.456922        39.6449 
 197   0.0000       1.482244        40.3339 
 198   0.0000       1.526741        41.5447 
 199   0.0000       1.534663        41.7603 
 200   0.0000       1.539262        41.8854 
 201   0.0000       1.543940        42.0127 
 202   0.0000       1.544264        42.0216 
 203   0.0000       1.571807        42.7710 
 204   0.0000       1.575040        42.8590 
 205   0.0000       1.634912        44.4882 
 206   0.0000       1.642321        44.6898 
 207   0.0000       1.656477        45.0750 
 208   0.0000       1.710332        46.5405 
 209   0.0000       1.712035        46.5868 
 210   0.0000       1.749685        47.6113 
 211   0.0000       1.755200        47.7614 
 212   0.0000       1.764263        48.0080 
 213   0.0000       1.842921        50.1484 
 214   0.0000       1.868744        50.8511 
 215   0.0000       1.872875        50.9635 
 216   0.0000       1.942280        52.8521 
 217   0.0000       1.972917        53.6858 
 218   0.0000       2.002582        54.4930 
 219   0.0000       2.026140        55.1341 
 220   0.0000       2.052558        55.8529 
 221   0.0000       2.063904        56.1617 
 222   0.0000       2.091866        56.9226 
 223   0.0000       2.129937        57.9585 
 224   0.0000       2.144903        58.3658 
 225   0.0000       2.171319        59.0846 
 226   0.0000       2.234700        60.8093 
 227   0.0000       2.338670        63.6385 
 228   0.0000       2.390806        65.0571 
 229   0.0000       2.434218        66.2384 
 230   0.0000       2.480766        67.5051 
 231   0.0000       2.482848        67.5617 
 232   0.0000       2.501664        68.0737 
 233   0.0000       2.604743        70.8787 
 234   0.0000       2.747293        74.7576 
 235   0.0000       2.862504        77.8927 
 236   0.0000       2.862737        77.8990 
 237   0.0000       2.865987        77.9875 
 238   0.0000       2.876315        78.2685 
 239   0.0000       2.899275        78.8933 
 240   0.0000       2.902752        78.9879 
 241   0.0000       3.004609        81.7596 
 242   0.0000       3.024897        82.3116 
 243   0.0000       3.045417        82.8700 
 244   0.0000       3.046278        82.8934 
 245   0.0000       3.086639        83.9917 
 246   0.0000       3.092821        84.1599 
 247   0.0000       3.186598        86.7117 
 248   0.0000       3.206315        87.2483 
 249   0.0000       3.251398        88.4750 
 250   0.0000       3.283723        89.3546 
 251   0.0000       3.331632        90.6583 
 252   0.0000       3.362648        91.5023 
 253   0.0000       3.381598        92.0180 
 254   0.0000       3.402831        92.5957 
 255   0.0000       3.434860        93.4673 
 256   0.0000       3.469276        94.4038 
 257   0.0000       3.514307        95.6291 
 258   0.0000       3.524974        95.9194 
 259   0.0000       3.596418        97.8635 
 260   0.0000       3.611207        98.2660 
 261   0.0000       3.618961        98.4769 
 262   0.0000       3.624587        98.6300 
 263   0.0000       3.635604        98.9298 
 264   0.0000       3.694733       100.5388 
 265   0.0000       3.704722       100.8106 
 266   0.0000       3.718529       101.1863 
 267   0.0000       3.737922       101.7140 
 268   0.0000       3.763933       102.4218 
 269   0.0000       3.788427       103.0883 
 270   0.0000       3.794707       103.2592 
 271   0.0000       3.879763       105.5737 
 272   0.0000       3.886197       105.7488 
 273   0.0000       3.904198       106.2386 
 274   0.0000       3.917180       106.5919 
 275   0.0000       3.918182       106.6191 
 276   0.0000       3.980065       108.3031 
 277   0.0000       4.000894       108.8699 
 278   0.0000       4.031342       109.6984 
 279   0.0000       4.033701       109.7626 
 280   0.0000       4.112263       111.9004 
 281   0.0000       4.165464       113.3480 
 282   0.0000       4.191341       114.0522 
 283   0.0000       4.198485       114.2466 
 284   0.0000       4.236936       115.2929 
 285   0.0000       4.247317       115.5754 
 286   0.0000       4.364608       118.7670 
 287   0.0000       4.457292       121.2891 
 288   0.0000       4.499222       122.4301 
 289   0.0000       4.509772       122.7171 
 290   0.0000       4.562758       124.1590 
 291   0.0000       4.664728       126.9337 
 292   0.0000       4.733705       128.8107 
 293   0.0000       4.740061       128.9836 
 294   0.0000       4.796681       130.5243 
 295   0.0000       4.870558       132.5346 
 296   0.0000       4.927866       134.0941 
 297   0.0000       4.952486       134.7640 
 298   0.0000       5.019988       136.6008 
 299   0.0000       5.070616       137.9785 
 300   0.0000       5.194152       141.3401 
 301   0.0000       5.309110       144.4682 
 302   0.0000       5.436134       147.9247 
 303   0.0000       5.520616       150.2236 
 304   0.0000       5.522836       150.2840 
 305   0.0000       5.660721       154.0361 
 306   0.0000       5.667336       154.2161 
 307   0.0000       5.668492       154.2475 
 308   0.0000       5.711465       155.4169 
 309   0.0000       5.813429       158.1914 
 310   0.0000       5.826743       158.5537 
 311   0.0000       5.838192       158.8653 
 312   0.0000       5.849107       159.1623 
 313   0.0000       5.886087       160.1686 
 314   0.0000       5.916018       160.9830 
 315   0.0000       5.934009       161.4726 
 316   0.0000       6.094189       165.8313 
 317   0.0000       6.106567       166.1681 
 318   0.0000       6.158028       167.5684 
 319   0.0000       6.281034       170.9156 
 320   0.0000       6.348274       172.7453 
 321   0.0000       6.399176       174.1304 
 322   0.0000       6.413005       174.5067 
 323   0.0000       6.519722       177.4106 
 324   0.0000       6.718843       182.8290 
 325   0.0000       6.870995       186.9693 
 326   0.0000       6.897823       187.6993 
 327   0.0000       7.035015       191.4325 
 328   0.0000       7.698070       209.4751 
 329   0.0000       7.800305       212.2571 
 330   0.0000       7.872940       214.2336 
 331   0.0000       8.318577       226.3600 
 332   0.0000       8.437079       229.5846 
 333   0.0000       8.498348       231.2518 
 334   0.0000       8.502209       231.3569 
 335   0.0000       8.569021       233.1749 
 336   0.0000       8.659672       235.6416 
 337   0.0000       8.693608       236.5651 
 338   0.0000       8.694327       236.5847 
 339   0.0000       8.698579       236.7004 
 340   0.0000       8.772109       238.7012 
 341   0.0000       8.890168       241.9138 
 342   0.0000       8.906103       242.3474 
 343   0.0000       8.932920       243.0771 
 344   0.0000       8.934896       243.1309 
 345   0.0000       9.052739       246.3375 
 346   0.0000       9.098108       247.5721 
 347   0.0000       9.101477       247.6638 
 348   0.0000       9.138859       248.6810 
 349   0.0000       9.206417       250.5193 
 350   0.0000       9.257316       251.9044 
 351   0.0000       9.287912       252.7369 
 352   0.0000       9.444636       257.0016 
 353   0.0000       9.569587       260.4017 
 354   0.0000       9.612691       261.5746 
 355   0.0000       9.637821       262.2584 
 356   0.0000       9.661529       262.9036 
 357   0.0000       9.686259       263.5765 
 358   0.0000       9.753445       265.4047 
 359   0.0000       9.761722       265.6300 
 360   0.0000       9.761806       265.6323 
 361   0.0000       9.779539       266.1148 
 362   0.0000       9.930076       270.2111 
 363   0.0000       9.941599       270.5247 
 364   0.0000       9.957230       270.9500 
 365   0.0000      10.030033       272.9311 
 366   0.0000      10.054816       273.6054 
 367   0.0000      10.095498       274.7125 
 368   0.0000      10.104186       274.9489 
 369   0.0000      10.137987       275.8686 
 370   0.0000      10.267371       279.3894 
 371   0.0000      10.311422       280.5881 
 372   0.0000      10.503627       285.8182 
 373   0.0000      10.672577       290.4156 
 374   0.0000      10.723065       291.7894 
 375   0.0000      10.738771       292.2168 
 376   0.0000      10.819573       294.4155 
 377   0.0000      11.006712       299.5079 
 378   0.0000      11.194967       304.6305 
 379   0.0000      11.271798       306.7212 
 380   0.0000      11.345030       308.7140 
 381   0.0000      11.444074       311.4091 
 382   0.0000      11.444370       311.4171 
 383   0.0000      11.592768       315.4552 
 384   0.0000      11.677374       317.7575 
 385   0.0000      11.721499       318.9582 
 386   0.0000      11.906208       323.9844 
 387   0.0000      12.315178       335.1130 
 388   0.0000      12.367126       336.5266 
 389   0.0000      12.405348       337.5667 
 390   0.0000      12.423427       338.0586 
 391   0.0000      12.483518       339.6938 
 392   0.0000      12.688862       345.2815 
 393   0.0000      12.725761       346.2856 
 394   0.0000      12.855718       349.8219 
 395   0.0000      12.870664       350.2286 
 396   0.0000      12.895794       350.9124 
 397   0.0000      12.964355       352.7780 
 398   0.0000      12.989742       353.4688 
 399   0.0000      13.024160       354.4054 
 400   0.0000      13.032966       354.6450 
 401   0.0000      13.236862       360.1933 
 402   0.0000      13.237896       360.2215 
 403   0.0000      13.395873       364.5202 
 404   0.0000      13.784629       375.0988 
 405   0.0000      14.075941       383.0258 
 406   0.0000      14.103041       383.7633 
 407   0.0000      14.198993       386.3743 
 408   0.0000      14.293836       388.9551 
 409   0.0000      14.422337       392.4517 
 410   0.0000      15.448766       420.3823 
 411   0.0000      16.086201       437.7278 
 412   0.0000      16.751904       455.8425 
 413   0.0000      16.753482       455.8854 
 414   0.0000      16.760584       456.0787 
 415   0.0000      16.760616       456.0796 
 416   0.0000      16.894747       459.7294 
 417   0.0000      16.935347       460.8342 
 418   0.0000      16.938983       460.9332 
 419   0.0000      16.951897       461.2846 
 420   0.0000      17.662529       480.6219 
 421   0.0000      17.703175       481.7279 
 422   0.0000      17.711090       481.9433 
 423   0.0000      17.730191       482.4630 
 424   0.0000      17.800143       484.3665 
 425   0.0000      17.905674       487.2382 
 426   0.0000      17.968556       488.9493 
 427   0.0000      18.056276       491.3363 
 428   0.0000      18.473835       502.6986 
 429   0.0000      18.828362       512.3458 
 430   0.0000      19.100468       519.7502 
 431   0.0000      19.272292       524.4257 
 432   0.0000      19.403295       527.9905 
 433   0.0000      19.543754       531.8126 
 434   0.0000      19.652146       534.7621 
 435   0.0000      20.271995       551.6290 
 436   0.0000      20.544009       559.0309 
 437   0.0000      20.782674       565.5253 
 438   0.0000      21.073359       573.4353 
 439   0.0000      22.144547       602.5837 
 440   0.0000      22.229367       604.8918 
 441   0.0000      23.407441       636.9488 
 442   0.0000      23.424760       637.4201 
 443   0.0000      23.572548       641.4416 
 444   0.0000      23.716903       645.3698 
 445   0.0000      24.705551       672.2722 
 446   0.0000      25.053248       681.7335 
 447   0.0000      40.632063      1105.6547 
 448   0.0000      40.759476      1109.1217 
 449   0.0000      41.123424      1119.0253 
 450   0.0000      65.851810      1791.9188 
 451   0.0000      65.852371      1791.9341 
 452   0.0000      65.906353      1793.4030 
 453   0.0000      65.983492      1795.5021 
 454   0.0000      66.292745      1803.9173 
 455   0.0000      79.499892      2163.3020 
 456   0.0000      90.997387      2476.1648 
 457   0.0000      91.012374      2476.5726 
 458   0.0000      91.109912      2479.2267 
 459   0.0000      91.210739      2481.9704 
 460   0.0000      91.877395      2500.1110 
 461   0.0000      92.146707      2507.4394 

                 SPIN DOWN ORBITALS
  NO   OCC          E(Eh)            E(eV) 
   0   1.0000    -100.665459     -2739.2464 
   1   1.0000      -9.190900      -250.0971 
   2   1.0000      -7.009858      -190.7479 
   3   1.0000      -7.007065      -190.6719 
   4   1.0000      -7.003070      -190.5632 
   5   1.0000      -6.563091      -178.5908 
   6   1.0000      -0.779149       -21.2017 
   7   1.0000      -0.472111       -12.8468 
   8   1.0000      -0.364098        -9.9076 
   9   1.0000      -0.360997        -9.8232 
  10   1.0000      -0.326664        -8.8890 
  11   1.0000      -0.268509        -7.3065 
  12   0.0000      -0.106536        -2.8990 
  13   0.0000      -0.009392        -0.2556 
  14   0.0000       0.001229         0.0334 
  15   0.0000       0.008984         0.2445 
  16   0.0000       0.012740         0.3467 
  17   0.0000       0.029515         0.8031 
  18   0.0000       0.033097         0.9006 
  19   0.0000       0.035175         0.9571 
  20   0.0000       0.041102         1.1184 
  21   0.0000       0.041216         1.1215 
  22   0.0000       0.043236         1.1765 
  23   0.0000       0.044944         1.2230 
  24   0.0000       0.047723         1.2986 
  25   0.0000       0.054933         1.4948 
  26   0.0000       0.072041         1.9603 
  27   0.0000       0.079342         2.1590 
  28   0.0000       0.081176         2.2089 
  29   0.0000       0.082757         2.2519 
  30   0.0000       0.087559         2.3826 
  31   0.0000       0.095171         2.5897 
  32   0.0000       0.103263         2.8099 
  33   0.0000       0.104045         2.8312 
  34   0.0000       0.105018         2.8577 
  35   0.0000       0.112445         3.0598 
  36   0.0000       0.116446         3.1687 
  37   0.0000       0.124097         3.3769 
  38   0.0000       0.124985         3.4010 
  39   0.0000       0.126447         3.4408 
  40   0.0000       0.136805         3.7227 
  41   0.0000       0.141770         3.8577 
  42   0.0000       0.142462         3.8766 
  43   0.0000       0.151104         4.1118 
  44   0.0000       0.161273         4.3884 
  45   0.0000       0.169679         4.6172 
  46   0.0000       0.171446         4.6653 
  47   0.0000       0.180698         4.9170 
  48   0.0000       0.181369         4.9353 
  49   0.0000       0.184044         5.0081 
  50   0.0000       0.189141         5.1468 
  51   0.0000       0.192844         5.2476 
  52   0.0000       0.196486         5.3467 
  53   0.0000       0.197945         5.3863 
  54   0.0000       0.204394         5.5619 
  55   0.0000       0.205424         5.5899 
  56   0.0000       0.214081         5.8254 
  57   0.0000       0.215933         5.8758 
  58   0.0000       0.217971         5.9313 
  59   0.0000       0.224957         6.1214 
  60   0.0000       0.237243         6.4557 
  61   0.0000       0.254542         6.9264 
  62   0.0000       0.256621         6.9830 
  63   0.0000       0.259116         7.0509 
  64   0.0000       0.267424         7.2770 
  65   0.0000       0.267907         7.2901 
  66   0.0000       0.276686         7.5290 
  67   0.0000       0.282205         7.6792 
  68   0.0000       0.290958         7.9174 
  69   0.0000       0.294252         8.0070 
  70   0.0000       0.295174         8.0321 
  71   0.0000       0.304111         8.2753 
  72   0.0000       0.306716         8.3462 
  73   0.0000       0.310281         8.4432 
  74   0.0000       0.317751         8.6465 
  75   0.0000       0.319740         8.7006 
  76   0.0000       0.320779         8.7288 
  77   0.0000       0.321922         8.7599 
  78   0.0000       0.322628         8.7791 
  79   0.0000       0.327806         8.9201 
  80   0.0000       0.337278         9.1778 
  81   0.0000       0.338016         9.1979 
  82   0.0000       0.346777         9.4363 
  83   0.0000       0.351945         9.5769 
  84   0.0000       0.357354         9.7241 
  85   0.0000       0.362730         9.8704 
  86   0.0000       0.372902        10.1472 
  87   0.0000       0.374268        10.1844 
  88   0.0000       0.380266        10.3476 
  89   0.0000       0.383160        10.4263 
  90   0.0000       0.384446        10.4613 
  91   0.0000       0.386257        10.5106 
  92   0.0000       0.399610        10.8739 
  93   0.0000       0.401858        10.9351 
  94   0.0000       0.401886        10.9359 
  95   0.0000       0.405796        11.0423 
  96   0.0000       0.424929        11.5629 
  97   0.0000       0.457217        12.4415 
  98   0.0000       0.466250        12.6873 
  99   0.0000       0.466848        12.7036 
 100   0.0000       0.480347        13.0709 
 101   0.0000       0.498601        13.5676 
 102   0.0000       0.505063        13.7435 
 103   0.0000       0.512708        13.9515 
 104   0.0000       0.516880        14.0650 
 105   0.0000       0.517784        14.0896 
 106   0.0000       0.523404        14.2425 
 107   0.0000       0.524000        14.2588 
 108   0.0000       0.525227        14.2922 
 109   0.0000       0.530304        14.4303 
 110   0.0000       0.548601        14.9282 
 111   0.0000       0.564549        15.3622 
 112   0.0000       0.565241        15.3810 
 113   0.0000       0.570813        15.5326 
 114   0.0000       0.580436        15.7945 
 115   0.0000       0.581307        15.8182 
 116   0.0000       0.592825        16.1316 
 117   0.0000       0.594091        16.1660 
 118   0.0000       0.599513        16.3136 
 119   0.0000       0.609221        16.5778 
 120   0.0000       0.612647        16.6710 
 121   0.0000       0.622300        16.9337 
 122   0.0000       0.627739        17.0817 
 123   0.0000       0.634799        17.2738 
 124   0.0000       0.644957        17.5502 
 125   0.0000       0.653038        17.7701 
 126   0.0000       0.653312        17.7775 
 127   0.0000       0.659344        17.9417 
 128   0.0000       0.660652        17.9772 
 129   0.0000       0.668799        18.1990 
 130   0.0000       0.673465        18.3259 
 131   0.0000       0.679240        18.4831 
 132   0.0000       0.687515        18.7082 
 133   0.0000       0.690075        18.7779 
 134   0.0000       0.705219        19.1900 
 135   0.0000       0.707604        19.2549 
 136   0.0000       0.708846        19.2887 
 137   0.0000       0.709910        19.3176 
 138   0.0000       0.710149        19.3241 
 139   0.0000       0.714996        19.4560 
 140   0.0000       0.722596        19.6628 
 141   0.0000       0.725498        19.7418 
 142   0.0000       0.743045        20.2193 
 143   0.0000       0.754270        20.5247 
 144   0.0000       0.762737        20.7551 
 145   0.0000       0.774331        21.0706 
 146   0.0000       0.776159        21.1204 
 147   0.0000       0.790776        21.5181 
 148   0.0000       0.799204        21.7474 
 149   0.0000       0.802164        21.8280 
 150   0.0000       0.809411        22.0252 
 151   0.0000       0.815814        22.1994 
 152   0.0000       0.828906        22.5557 
 153   0.0000       0.829339        22.5675 
 154   0.0000       0.836227        22.7549 
 155   0.0000       0.850136        23.1334 
 156   0.0000       0.851146        23.1609 
 157   0.0000       0.857630        23.3373 
 158   0.0000       0.885807        24.1040 
 159   0.0000       0.889997        24.2181 
 160   0.0000       0.894349        24.3365 
 161   0.0000       0.898397        24.4466 
 162   0.0000       0.903354        24.5815 
 163   0.0000       0.912316        24.8254 
 164   0.0000       0.917341        24.9621 
 165   0.0000       0.929557        25.2945 
 166   0.0000       0.954987        25.9865 
 167   0.0000       0.978188        26.6178 
 168   0.0000       0.980977        26.6937 
 169   0.0000       0.995142        27.0792 
 170   0.0000       0.996917        27.1275 
 171   0.0000       1.010578        27.4992 
 172   0.0000       1.027161        27.9505 
 173   0.0000       1.034407        28.1476 
 174   0.0000       1.042587        28.3702 
 175   0.0000       1.059140        28.8207 
 176   0.0000       1.064899        28.9774 
 177   0.0000       1.078416        29.3452 
 178   0.0000       1.105197        30.0739 
 179   0.0000       1.137779        30.9605 
 180   0.0000       1.143331        31.1116 
 181   0.0000       1.150184        31.2981 
 182   0.0000       1.150465        31.3057 
 183   0.0000       1.150859        31.3165 
 184   0.0000       1.203443        32.7474 
 185   0.0000       1.261740        34.3337 
 186   0.0000       1.311828        35.6967 
 187   0.0000       1.328684        36.1553 
 188   0.0000       1.347118        36.6569 
 189   0.0000       1.377731        37.4900 
 190   0.0000       1.377864        37.4936 
 191   0.0000       1.380048        37.5530 
 192   0.0000       1.386854        37.7382 
 193   0.0000       1.415398        38.5149 
 194   0.0000       1.424836        38.7718 
 195   0.0000       1.453292        39.5461 
 196   0.0000       1.456922        39.6449 
 197   0.0000       1.482244        40.3339 
 198   0.0000       1.526741        41.5447 
 199   0.0000       1.534663        41.7603 
 200   0.0000       1.539262        41.8854 
 201   0.0000       1.543940        42.0127 
 202   0.0000       1.544264        42.0216 
 203   0.0000       1.571807        42.7710 
 204   0.0000       1.575040        42.8590 
 205   0.0000       1.634912        44.4882 
 206   0.0000       1.642321        44.6898 
 207   0.0000       1.656477        45.0750 
 208   0.0000       1.710332        46.5405 
 209   0.0000       1.712035        46.5868 
 210   0.0000       1.749685        47.6113 
 211   0.0000       1.755200        47.7614 
 212   0.0000       1.764263        48.0080 
 213   0.0000       1.842921        50.1484 
 214   0.0000       1.868744        50.8511 
 215   0.0000       1.872875        50.9635 
 216   0.0000       1.942280        52.8521 
 217   0.0000       1.972917        53.6858 
 218   0.0000       2.002582        54.4930 
 219   0.0000       2.026140        55.1341 
 220   0.0000       2.052558        55.8529 
 221   0.0000       2.063904        56.1617 
 222   0.0000       2.091866        56.9226 
 223   0.0000       2.129937        57.9585 
 224   0.0000       2.144903        58.3658 
 225   0.0000       2.171319        59.0846 
 226   0.0000       2.234700        60.8093 
 227   0.0000       2.338670        63.6385 
 228   0.0000       2.390806        65.0571 
 229   0.0000       2.434218        66.2384 
 230   0.0000       2.480766        67.5051 
 231   0.0000       2.482848        67.5617 
 232   0.0000       2.501664        68.0737 
 233   0.0000       2.604743        70.8787 
 234   0.0000       2.747293        74.7576 
 235   0.0000       2.862504        77.8927 
 236   0.0000       2.862737        77.8990 
 237   0.0000       2.865987        77.9875 
 238   0.0000       2.876315        78.2685 
 239   0.0000       2.899275        78.8933 
 240   0.0000       2.902752        78.9879 
 241   0.0000       3.004609        81.7596 
 242   0.0000       3.024897        82.3116 
 243   0.0000       3.045417        82.8700 
 244   0.0000       3.046278        82.8934 
 245   0.0000       3.086639        83.9917 
 246   0.0000       3.092821        84.1599 
 247   0.0000       3.186598        86.7117 
 248   0.0000       3.206315        87.2483 
 249   0.0000       3.251398        88.4750 
 250   0.0000       3.283723        89.3546 
 251   0.0000       3.331632        90.6583 
 252   0.0000       3.362648        91.5023 
 253   0.0000       3.381598        92.0180 
 254   0.0000       3.402831        92.5957 
 255   0.0000       3.434860        93.4673 
 256   0.0000       3.469276        94.4038 
 257   0.0000       3.514307        95.6291 
 258   0.0000       3.524974        95.9194 
 259   0.0000       3.596418        97.8635 
 260   0.0000       3.611207        98.2660 
 261   0.0000       3.618961        98.4769 
 262   0.0000       3.624587        98.6300 
 263   0.0000       3.635604        98.9298 
 264   0.0000       3.694733       100.5388 
 265   0.0000       3.704722       100.8106 
 266   0.0000       3.718529       101.1863 
 267   0.0000       3.737922       101.7140 
 268   0.0000       3.763933       102.4218 
 269   0.0000       3.788427       103.0883 
 270   0.0000       3.794707       103.2592 
 271   0.0000       3.879763       105.5737 
 272   0.0000       3.886197       105.7488 
 273   0.0000       3.904198       106.2386 
 274   0.0000       3.917180       106.5919 
 275   0.0000       3.918182       106.6191 
 276   0.0000       3.980065       108.3031 
 277   0.0000       4.000894       108.8699 
 278   0.0000       4.031342       109.6984 
 279   0.0000       4.033701       109.7626 
 280   0.0000       4.112263       111.9004 
 281   0.0000       4.165464       113.3480 
 282   0.0000       4.191341       114.0522 
 283   0.0000       4.198485       114.2466 
 284   0.0000       4.236936       115.2929 
 285   0.0000       4.247317       115.5754 
 286   0.0000       4.364608       118.7670 
 287   0.0000       4.457292       121.2891 
 288   0.0000       4.499222       122.4301 
 289   0.0000       4.509772       122.7171 
 290   0.0000       4.562758       124.1590 
 291   0.0000       4.664728       126.9337 
 292   0.0000       4.733705       128.8107 
 293   0.0000       4.740061       128.9836 
 294   0.0000       4.796681       130.5243 
 295   0.0000       4.870558       132.5346 
 296   0.0000       4.927866       134.0941 
 297   0.0000       4.952486       134.7640 
 298   0.0000       5.019988       136.6008 
 299   0.0000       5.070616       137.9785 
 300   0.0000       5.194152       141.3401 
 301   0.0000       5.309110       144.4682 
 302   0.0000       5.436134       147.9247 
 303   0.0000       5.520616       150.2236 
 304   0.0000       5.522836       150.2840 
 305   0.0000       5.660721       154.0361 
 306   0.0000       5.667336       154.2161 
 307   0.0000       5.668492       154.2475 
 308   0.0000       5.711465       155.4169 
 309   0.0000       5.813429       158.1914 
 310   0.0000       5.826743       158.5537 
 311   0.0000       5.838192       158.8653 
 312   0.0000       5.849107       159.1623 
 313   0.0000       5.886087       160.1686 
 314   0.0000       5.916018       160.9830 
 315   0.0000       5.934009       161.4726 
 316   0.0000       6.094189       165.8313 
 317   0.0000       6.106567       166.1681 
 318   0.0000       6.158028       167.5684 
 319   0.0000       6.281034       170.9156 
 320   0.0000       6.348274       172.7453 
 321   0.0000       6.399176       174.1304 
 322   0.0000       6.413005       174.5067 
 323   0.0000       6.519722       177.4106 
 324   0.0000       6.718843       182.8290 
 325   0.0000       6.870995       186.9693 
 326   0.0000       6.897823       187.6993 
 327   0.0000       7.035015       191.4325 
 328   0.0000       7.698070       209.4751 
 329   0.0000       7.800305       212.2571 
 330   0.0000       7.872940       214.2336 
 331   0.0000       8.318577       226.3600 
 332   0.0000       8.437079       229.5846 
 333   0.0000       8.498348       231.2518 
 334   0.0000       8.502209       231.3569 
 335   0.0000       8.569021       233.1749 
 336   0.0000       8.659672       235.6416 
 337   0.0000       8.693608       236.5651 
 338   0.0000       8.694327       236.5847 
 339   0.0000       8.698579       236.7004 
 340   0.0000       8.772109       238.7012 
 341   0.0000       8.890168       241.9138 
 342   0.0000       8.906103       242.3474 
 343   0.0000       8.932920       243.0771 
 344   0.0000       8.934896       243.1309 
 345   0.0000       9.052739       246.3375 
 346   0.0000       9.098108       247.5721 
 347   0.0000       9.101477       247.6638 
 348   0.0000       9.138859       248.6810 
 349   0.0000       9.206417       250.5193 
 350   0.0000       9.257316       251.9044 
 351   0.0000       9.287912       252.7369 
 352   0.0000       9.444636       257.0016 
 353   0.0000       9.569587       260.4017 
 354   0.0000       9.612691       261.5746 
 355   0.0000       9.637821       262.2584 
 356   0.0000       9.661529       262.9036 
 357   0.0000       9.686259       263.5765 
 358   0.0000       9.753445       265.4047 
 359   0.0000       9.761722       265.6300 
 360   0.0000       9.761806       265.6323 
 361   0.0000       9.779539       266.1148 
 362   0.0000       9.930076       270.2111 
 363   0.0000       9.941599       270.5247 
 364   0.0000       9.957230       270.9500 
 365   0.0000      10.030033       272.9311 
 366   0.0000      10.054816       273.6054 
 367   0.0000      10.095498       274.7125 
 368   0.0000      10.104186       274.9489 
 369   0.0000      10.137987       275.8686 
 370   0.0000      10.267371       279.3894 
 371   0.0000      10.311422       280.5881 
 372   0.0000      10.503627       285.8182 
 373   0.0000      10.672577       290.4156 
 374   0.0000      10.723065       291.7894 
 375   0.0000      10.738771       292.2168 
 376   0.0000      10.819573       294.4155 
 377   0.0000      11.006712       299.5079 
 378   0.0000      11.194967       304.6305 
 379   0.0000      11.271798       306.7212 
 380   0.0000      11.345030       308.7140 
 381   0.0000      11.444074       311.4091 
 382   0.0000      11.444370       311.4171 
 383   0.0000      11.592768       315.4552 
 384   0.0000      11.677374       317.7575 
 385   0.0000      11.721499       318.9582 
 386   0.0000      11.906208       323.9844 
 387   0.0000      12.315178       335.1130 
 388   0.0000      12.367126       336.5266 
 389   0.0000      12.405348       337.5667 
 390   0.0000      12.423427       338.0586 
 391   0.0000      12.483518       339.6938 
 392   0.0000      12.688862       345.2815 
 393   0.0000      12.725761       346.2856 
 394   0.0000      12.855718       349.8219 
 395   0.0000      12.870664       350.2286 
 396   0.0000      12.895794       350.9124 
 397   0.0000      12.964355       352.7780 
 398   0.0000      12.989742       353.4688 
 399   0.0000      13.024160       354.4054 
 400   0.0000      13.032966       354.6450 
 401   0.0000      13.236862       360.1933 
 402   0.0000      13.237896       360.2215 
 403   0.0000      13.395873       364.5202 
 404   0.0000      13.784629       375.0988 
 405   0.0000      14.075941       383.0258 
 406   0.0000      14.103041       383.7633 
 407   0.0000      14.198993       386.3743 
 408   0.0000      14.293836       388.9551 
 409   0.0000      14.422337       392.4517 
 410   0.0000      15.448766       420.3823 
 411   0.0000      16.086201       437.7278 
 412   0.0000      16.751904       455.8425 
 413   0.0000      16.753482       455.8854 
 414   0.0000      16.760584       456.0787 
 415   0.0000      16.760616       456.0796 
 416   0.0000      16.894747       459.7294 
 417   0.0000      16.935347       460.8342 
 418   0.0000      16.938983       460.9332 
 419   0.0000      16.951897       461.2846 
 420   0.0000      17.662529       480.6219 
 421   0.0000      17.703175       481.7279 
 422   0.0000      17.711090       481.9433 
 423   0.0000      17.730191       482.4630 
 424   0.0000      17.800143       484.3665 
 425   0.0000      17.905674       487.2382 
 426   0.0000      17.968556       488.9493 
 427   0.0000      18.056276       491.3363 
 428   0.0000      18.473835       502.6986 
 429   0.0000      18.828362       512.3458 
 430   0.0000      19.100468       519.7502 
 431   0.0000      19.272292       524.4257 
 432   0.0000      19.403295       527.9905 
 433   0.0000      19.543754       531.8126 
 434   0.0000      19.652146       534.7621 
 435   0.0000      20.271995       551.6290 
 436   0.0000      20.544009       559.0309 
 437   0.0000      20.782674       565.5253 
 438   0.0000      21.073359       573.4353 
 439   0.0000      22.144547       602.5837 
 440   0.0000      22.229367       604.8918 
 441   0.0000      23.407441       636.9488 
 442   0.0000      23.424760       637.4201 
 443   0.0000      23.572548       641.4416 
 444   0.0000      23.716903       645.3698 
 445   0.0000      24.705551       672.2722 
 446   0.0000      25.053248       681.7335 
 447   0.0000      40.632063      1105.6547 
 448   0.0000      40.759476      1109.1217 
 449   0.0000      41.123424      1119.0253 
 450   0.0000      65.851810      1791.9188 
 451   0.0000      65.852371      1791.9341 
 452   0.0000      65.906353      1793.4030 
 453   0.0000      65.983492      1795.5021 
 454   0.0000      66.292745      1803.9173 
 455   0.0000      79.499892      2163.3020 
 456   0.0000      90.997387      2476.1648 
 457   0.0000      91.012374      2476.5726 
 458   0.0000      91.109912      2479.2267 
 459   0.0000      91.210739      2481.9704 
 460   0.0000      91.877395      2500.1110 
 461   0.0000      92.146707      2507.4394 

                    ********************************
                    * MULLIKEN POPULATION ANALYSIS *
                    ********************************

--------------------------------------------
MULLIKEN ATOMIC CHARGES AND SPIN POPULATIONS
--------------------------------------------
   0 B :    0.012525   -0.000000
   1 Cl:   -0.107364    0.000000
   2 H :    0.047369    0.000000
   3 H :    0.047470   -0.000000
Sum of atomic charges         :   -0.0000000
Sum of atomic spin populations:   -0.0000000

-----------------------------------------------------
MULLIKEN REDUCED ORBITAL CHARGES AND SPIN POPULATIONS
-----------------------------------------------------
CHARGE
  0 B s       :     3.225581  s :     3.225581
      pz      :     0.587019  p :     1.589950
      px      :     0.242693
      py      :     0.760238
      dz2     :     0.011838  d :     0.153579
      dxz     :     0.073874
      dyz     :     0.056135
      dx2y2   :     0.011732
      dxy     :     0.000000
      f0      :     0.001966  f :     0.013742
      f+1     :     0.005535
      f-1     :     0.003752
      f+2     :     0.001722
      f-2     :    -0.000000
      f+3     :    -0.000010
      f-3     :     0.000777
      g0      :     0.000267  g :     0.003690
      g+1     :     0.001646
      g-1     :     0.001482
      g+2     :     0.000082
      g-2     :     0.000000
      g+3     :    -0.000005
      g-3     :     0.000185
      g+4     :     0.000033
      g-4     :     0.000000
      h0      :    -0.000034  h :     0.000933
      h+1     :     0.000311
      h-1     :     0.000643
      h+2     :     0.000011
      h-2     :    -0.000000
      h+3     :     0.000001
      h-3     :    -0.000004
      h+4     :     0.000006
      h-4     :    -0.000000
      h+5     :    -0.000000
      h-5     :    -0.000000
  1 Cls       :     5.902562  s :     5.902562
      pz      :     3.392889  p :    11.108531
      px      :     3.712711
      py      :     4.002931
      dz2     :     0.022938  d :     0.081237
      dxz     :     0.009549
      dyz     :     0.049661
      dx2y2   :    -0.000911
      dxy     :     0.000000
      f0      :     0.003226  f :     0.013239
      f+1     :     0.001617
      f-1     :     0.008575
      f+2     :    -0.000214
      f-2     :    -0.000000
      f+3     :     0.000011
      f-3     :     0.000025
      g0      :     0.000427  g :     0.001623
      g+1     :     0.000093
      g-1     :     0.001176
      g+2     :    -0.000020
      g-2     :     0.000000
      g+3     :    -0.000007
      g-3     :    -0.000046
      g+4     :     0.000000
      g-4     :    -0.000000
      h0      :     0.000030  h :     0.000172
      h+1     :    -0.000006
      h-1     :     0.000188
      h+2     :     0.000001
      h-2     :    -0.000000
      h+3     :    -0.000005
      h-3     :    -0.000035
      h+4     :     0.000000
      h-4     :    -0.000000
      h+5     :    -0.000000
      h-5     :    -0.000000
  2 H s       :     0.962884  s :     0.962884
      pz      :     0.013067  p :     0.018153
      px      :     0.000953
      py      :     0.004133
      dz2     :    -0.006009  d :    -0.024523
      dxz     :    -0.015995
      dyz     :     0.001464
      dx2y2   :    -0.001389
      dxy     :    -0.002594
      f0      :     0.002510  f :    -0.003427
      f+1     :    -0.001546
      f-1     :     0.000823
      f+2     :    -0.001133
      f-2     :    -0.003193
      f+3     :    -0.000670
      f-3     :    -0.000219
      g0      :     0.000679  g :    -0.000456
      g+1     :     0.000036
      g-1     :    -0.000030
      g+2     :     0.000022
      g-2     :    -0.000715
      g+3     :    -0.000211
      g-3     :    -0.000109
      g+4     :    -0.000060
      g-4     :    -0.000069
  3 H s       :     0.962802  s :     0.962802
      pz      :     0.013058  p :     0.018129
      px      :     0.000953
      py      :     0.004117
      dz2     :    -0.006007  d :    -0.024519
      dxz     :    -0.015995
      dyz     :     0.001466
      dx2y2   :    -0.001389
      dxy     :    -0.002594
      f0      :     0.002511  f :    -0.003426
      f+1     :    -0.001546
      f-1     :     0.000823
      f+2     :    -0.001133
      f-2     :    -0.003193
      f+3     :    -0.000670
      f-3     :    -0.000219
      g0      :     0.000679  g :    -0.000456
      g+1     :     0.000036
      g-1     :    -0.000030
      g+2     :     0.000022
      g-2     :    -0.000715
      g+3     :    -0.000211
      g-3     :    -0.000109
      g+4     :    -0.000060
      g-4     :    -0.000069

SPIN
  0 B s       :    -0.000000  s :    -0.000000
      pz      :     0.000000  p :    -0.000000
      px      :     0.000000
      py      :    -0.000000
      dz2     :     0.000000  d :     0.000000
      dxz     :    -0.000000
      dyz     :    -0.000000
      dx2y2   :     0.000000
      dxy     :     0.000000
      f0      :    -0.000000  f :    -0.000000
      f+1     :    -0.000000
      f-1     :    -0.000000
      f+2     :     0.000000
      f-2     :     0.000000
      f+3     :     0.000000
      f-3     :    -0.000000
      g0      :     0.000000  g :    -0.000000
      g+1     :     0.000000
      g-1     :    -0.000000
      g+2     :     0.000000
      g-2     :    -0.000000
      g+3     :     0.000000
      g-3     :    -0.000000
      g+4     :     0.000000
      g-4     :     0.000000
      h0      :    -0.000000  h :    -0.000000
      h+1     :     0.000000
      h-1     :    -0.000000
      h+2     :    -0.000000
      h-2     :    -0.000000
      h+3     :    -0.000000
      h-3     :    -0.000000
      h+4     :    -0.000000
      h-4     :    -0.000000
      h+5     :    -0.000000
      h-5     :    -0.000000
  1 Cls       :     0.000000  s :     0.000000
      pz      :     0.000000  p :     0.000000
      px      :     0.000000
      py      :     0.000000
      dz2     :     0.000000  d :     0.000000
      dxz     :     0.000000
      dyz     :     0.000000
      dx2y2   :    -0.000000
      dxy     :    -0.000000
      f0      :     0.000000  f :     0.000000
      f+1     :    -0.000000
      f-1     :     0.000000
      f+2     :    -0.000000
      f-2     :    -0.000000
      f+3     :     0.000000
      f-3     :    -0.000000
      g0      :     0.000000  g :     0.000000
      g+1     :    -0.000000
      g-1     :     0.000000
      g+2     :    -0.000000
      g-2     :     0.000000
      g+3     :    -0.000000
      g-3     :    -0.000000
      g+4     :    -0.000000
      g-4     :     0.000000
      h0      :     0.000000  h :     0.000000
      h+1     :    -0.000000
      h-1     :     0.000000
      h+2     :     0.000000
      h-2     :     0.000000
      h+3     :    -0.000000
      h-3     :    -0.000000
      h+4     :    -0.000000
      h-4     :    -0.000000
      h+5     :    -0.000000
      h-5     :    -0.000000
  2 H s       :     0.000000  s :     0.000000
      pz      :    -0.000000  p :     0.000000
      px      :    -0.000000
      py      :     0.000000
      dz2     :     0.000000  d :    -0.000000
      dxz     :    -0.000000
      dyz     :    -0.000000
      dx2y2   :     0.000000
      dxy     :     0.000000
      f0      :     0.000000  f :     0.000000
      f+1     :     0.000000
      f-1     :     0.000000
      f+2     :    -0.000000
      f-2     :    -0.000000
      f+3     :     0.000000
      f-3     :     0.000000
      g0      :    -0.000000  g :     0.000000
      g+1     :    -0.000000
      g-1     :     0.000000
      g+2     :     0.000000
      g-2     :    -0.000000
      g+3     :     0.000000
      g-3     :    -0.000000
      g+4     :     0.000000
      g-4     :    -0.000000
  3 H s       :    -0.000000  s :    -0.000000
      pz      :     0.000000  p :    -0.000000
      px      :    -0.000000
      py      :    -0.000000
      dz2     :     0.000000  d :     0.000000
      dxz     :     0.000000
      dyz     :     0.000000
      dx2y2   :     0.000000
      dxy     :    -0.000000
      f0      :    -0.000000  f :     0.000000
      f+1     :    -0.000000
      f-1     :     0.000000
      f+2     :     0.000000
      f-2     :    -0.000000
      f+3     :    -0.000000
      f-3     :     0.000000
      g0      :     0.000000  g :     0.000000
      g+1     :    -0.000000
      g-1     :    -0.000000
      g+2     :     0.000000
      g-2     :    -0.000000
      g+3     :    -0.000000
      g-3     :     0.000000
      g+4     :     0.000000
      g-4     :    -0.000000


                     *******************************
                     * LOEWDIN POPULATION ANALYSIS *
                     *******************************

-------------------------------------------
LOEWDIN ATOMIC CHARGES AND SPIN POPULATIONS
-------------------------------------------
   0 B :    0.040273   -0.000000
   1 Cl:    1.160287    0.000000
   2 H :   -0.600280    0.000000
   3 H :   -0.600280    0.000000

----------------------------------------------------
LOEWDIN REDUCED ORBITAL CHARGES AND SPIN POPULATIONS
----------------------------------------------------
CHARGE
  0 B s       :     2.468842  s :     2.468842
      pz      :     0.707014  p :     1.671457
      px      :     0.176595
      py      :     0.787848
      dz2     :     0.212756  d :     0.589197
      dxz     :     0.113971
      dyz     :     0.236321
      dx2y2   :     0.026149
      dxy     :     0.000000
      f0      :     0.053620  f :     0.171132
      f+1     :     0.045758
      f-1     :     0.059126
      f+2     :     0.006949
      f-2     :     0.000000
      f+3     :     0.000138
      f-3     :     0.005541
      g0      :     0.015007  g :     0.043768
      g+1     :     0.012058
      g-1     :     0.014473
      g+2     :     0.000100
      g-2     :     0.000000
      g+3     :     0.000013
      g-3     :     0.001582
      g+4     :     0.000535
      g-4     :     0.000000
      h0      :     0.006082  h :     0.015331
      h+1     :     0.005467
      h-1     :     0.003219
      h+2     :     0.000310
      h-2     :     0.000000
      h+3     :     0.000105
      h-3     :     0.000036
      h+4     :     0.000048
      h-4     :     0.000000
      h+5     :     0.000001
      h-5     :     0.000062
  1 Cls       :     5.170633  s :     5.170633
      pz      :     3.376940  p :    10.223947
      px      :     3.346317
      py      :     3.500690
      dz2     :     0.105483  d :     0.220048
      dxz     :     0.004692
      dyz     :     0.109535
      dx2y2   :     0.000338
      dxy     :     0.000000
      f0      :     0.039303  f :     0.119368
      f+1     :     0.003026
      f-1     :     0.075212
      f+2     :     0.001696
      f-2     :     0.000000
      f+3     :     0.000024
      f-3     :     0.000106
      g0      :     0.012431  g :     0.070200
      g+1     :     0.002566
      g-1     :     0.051793
      g+2     :     0.003087
      g-2     :     0.000000
      g+3     :     0.000002
      g-3     :     0.000254
      g+4     :     0.000067
      g-4     :     0.000000
      h0      :     0.004139  h :     0.035517
      h+1     :     0.001030
      h-1     :     0.026527
      h+2     :     0.002972
      h-2     :    -0.000000
      h+3     :     0.000019
      h-3     :     0.000750
      h+4     :     0.000074
      h-4     :     0.000000
      h+5     :     0.000004
      h-5     :     0.000001
  2 H s       :     0.789939  s :     0.789939
      pz      :     0.085048  p :     0.244608
      px      :     0.023725
      py      :     0.135835
      dz2     :     0.069442  d :     0.219727
      dxz     :     0.022384
      dyz     :     0.062661
      dx2y2   :     0.051465
      dxy     :     0.013775
      f0      :     0.051373  f :     0.191995
      f+1     :     0.021048
      f-1     :     0.059388
      f+2     :     0.020155
      f-2     :     0.018445
      f+3     :     0.003136
      f-3     :     0.018450
      g0      :     0.044206  g :     0.154011
      g+1     :     0.015809
      g-1     :     0.030318
      g+2     :     0.026964
      g-2     :     0.018959
      g+3     :     0.006393
      g-3     :     0.004870
      g+4     :     0.006058
      g-4     :     0.000434
  3 H s       :     0.789939  s :     0.789939
      pz      :     0.085048  p :     0.244608
      px      :     0.023725
      py      :     0.135835
      dz2     :     0.069442  d :     0.219727
      dxz     :     0.022384
      dyz     :     0.062661
      dx2y2   :     0.051465
      dxy     :     0.013775
      f0      :     0.051373  f :     0.191995
      f+1     :     0.021048
      f-1     :     0.059388
      f+2     :     0.020155
      f-2     :     0.018445
      f+3     :     0.003136
      f-3     :     0.018450
      g0      :     0.044206  g :     0.154011
      g+1     :     0.015809
      g-1     :     0.030318
      g+2     :     0.026964
      g-2     :     0.018959
      g+3     :     0.006393
      g-3     :     0.004870
      g+4     :     0.006058
      g-4     :     0.000434

SPIN
  0 B s       :    -0.000000  s :    -0.000000
      pz      :     0.000000  p :    -0.000000
      px      :     0.000000
      py      :    -0.000000
      dz2     :     0.000000  d :     0.000000
      dxz     :     0.000000
      dyz     :    -0.000000
      dx2y2   :     0.000000
      dxy     :    -0.000000
      f0      :    -0.000000  f :    -0.000000
      f+1     :     0.000000
      f-1     :    -0.000000
      f+2     :     0.000000
      f-2     :     0.000000
      f+3     :    -0.000000
      f-3     :    -0.000000
      g0      :     0.000000  g :     0.000000
      g+1     :     0.000000
      g-1     :    -0.000000
      g+2     :     0.000000
      g-2     :     0.000000
      g+3     :    -0.000000
      g-3     :    -0.000000
      g+4     :    -0.000000
      g-4     :    -0.000000
      h0      :    -0.000000  h :    -0.000000
      h+1     :    -0.000000
      h-1     :    -0.000000
      h+2     :    -0.000000
      h-2     :    -0.000000
      h+3     :     0.000000
      h-3     :    -0.000000
      h+4     :    -0.000000
      h-4     :    -0.000000
      h+5     :     0.000000
      h-5     :     0.000000
  1 Cls       :     0.000000  s :     0.000000
      pz      :     0.000000  p :     0.000000
      px      :    -0.000000
      py      :     0.000000
      dz2     :     0.000000  d :     0.000000
      dxz     :     0.000000
      dyz     :    -0.000000
      dx2y2   :     0.000000
      dxy     :     0.000000
      f0      :    -0.000000  f :    -0.000000
      f+1     :    -0.000000
      f-1     :    -0.000000
      f+2     :     0.000000
      f-2     :     0.000000
      f+3     :    -0.000000
      f-3     :    -0.000000
      g0      :     0.000000  g :     0.000000
      g+1     :     0.000000
      g-1     :    -0.000000
      g+2     :    -0.000000
      g-2     :     0.000000
      g+3     :    -0.000000
      g-3     :     0.000000
      g+4     :    -0.000000
      g-4     :     0.000000
      h0      :    -0.000000  h :     0.000000
      h+1     :    -0.000000
      h-1     :     0.000000
      h+2     :     0.000000
      h-2     :     0.000000
      h+3     :     0.000000
      h-3     :    -0.000000
      h+4     :    -0.000000
      h-4     :     0.000000
      h+5     :     0.000000
      h-5     :     0.000000
  2 H s       :     0.000000  s :     0.000000
      pz      :    -0.000000  p :    -0.000000
      px      :    -0.000000
      py      :    -0.000000
      dz2     :    -0.000000  d :    -0.000000
      dxz     :     0.000000
      dyz     :    -0.000000
      dx2y2   :    -0.000000
      dxy     :    -0.000000
      f0      :     0.000000  f :     0.000000
      f+1     :    -0.000000
      f-1     :    -0.000000
      f+2     :     0.000000
      f-2     :    -0.000000
      f+3     :     0.000000
      f-3     :     0.000000
      g0      :    -0.000000  g :    -0.000000
      g+1     :    -0.000000
      g-1     :    -0.000000
      g+2     :     0.000000
      g-2     :    -0.000000
      g+3     :    -0.000000
      g-3     :    -0.000000
      g+4     :     0.000000
      g-4     :    -0.000000
  3 H s       :    -0.000000  s :    -0.000000
      pz      :     0.000000  p :     0.000000
      px      :    -0.000000
      py      :    -0.000000
      dz2     :     0.000000  d :     0.000000
      dxz     :     0.000000
      dyz     :    -0.000000
      dx2y2   :     0.000000
      dxy     :    -0.000000
      f0      :    -0.000000  f :     0.000000
      f+1     :    -0.000000
      f-1     :    -0.000000
      f+2     :     0.000000
      f-2     :    -0.000000
      f+3     :    -0.000000
      f-3     :     0.000000
      g0      :    -0.000000  g :     0.000000
      g+1     :    -0.000000
      g-1     :     0.000000
      g+2     :    -0.000000
      g-2     :    -0.000000
      g+3     :     0.000000
      g-3     :     0.000000
      g+4     :     0.000000
      g-4     :    -0.000000


                      *****************************
                      * MAYER POPULATION ANALYSIS *
                      *****************************

  NA   - Mulliken gross atomic population
  ZA   - Total nuclear charge
  QA   - Mulliken gross atomic charge
  VA   - Mayer's total valence
  BVA  - Mayer's bonded valence
  FA   - Mayer's free valence

  ATOM       NA         ZA         QA         VA         BVA        FA
  0 B      4.9875     5.0000     0.0125     3.2250     3.2250    -0.0000
  1 Cl    17.1074    17.0000    -0.1074     1.3817     1.3817    -0.0000
  2 H      0.9526     1.0000     0.0474     0.9499     0.9499    -0.0000
  3 H      0.9525     1.0000     0.0475     0.9498     0.9498    -0.0000

  Mayer bond orders larger than 0.1
B(  0-B ,  1-Cl) :   1.3517 B(  0-B ,  2-H ) :   0.9367 B(  0-B ,  3-H ) :   0.9366 


-------
TIMINGS
-------

Total SCF time: 0 days 0 hours 35 min 46 sec 

Total time                  ....    2146.815 sec
Sum of individual times     ....    2145.479 sec  ( 99.9%)

Fock matrix formation       ....    2138.902 sec  ( 99.6%)
  XC integration            ....      30.897 sec  (  1.4% of F)
    Basis function eval.    ....       1.980 sec  (  6.4% of XC)
    Density eval.           ....       8.043 sec  ( 26.0% of XC)
    XC-Functional eval.     ....       0.217 sec  (  0.7% of XC)
    XC-Potential eval.      ....      19.309 sec  ( 62.5% of XC)
Diagonalization             ....       2.921 sec  (  0.1%)
Density matrix formation    ....       0.059 sec  (  0.0%)
Population analysis         ....       0.207 sec  (  0.0%)
Initial guess               ....       1.257 sec  (  0.1%)
Orbital Transformation      ....       0.000 sec  (  0.0%)
Orbital Orthonormalization  ....       0.000 sec  (  0.0%)
DIIS solution               ....       1.657 sec  (  0.1%)
Grid generation             ....       0.475 sec  (  0.0%)

-------------------------   --------------------
FINAL SINGLE POINT ENERGY      -486.067042484540
-------------------------   --------------------


                            ***************************************
                            *     ORCA property calculations      *
                            ***************************************

                                    ---------------------
                                    Active property flags
                                    ---------------------
   (+) Dipole Moment
   (+) Polarizability


------------------------------------------------------------------------------
                       ORCA ELECTRIC PROPERTIES CALCULATION
------------------------------------------------------------------------------

Dipole Moment Calculation                       ... on
Quadrupole Moment Calculation                   ... off
Polarizability Calculation                      ... Analytic (CP-SCF)
GBWName                                         ... bh2cl_pbe.gbw
Electron density file                           ... bh2cl_pbe.scfp.tmp
The origin for moment calculation is the CENTER OF MASS  = ( 0.000000,  0.000000  2.364080)

-------------
DIPOLE MOMENT
-------------
                                X             Y             Z
Electronic contribution:      0.00000      -0.00000       2.92515
Nuclear contribution   :      0.00000       0.00000      -3.09749
                        -----------------------------------------
Total Dipole Moment    :      0.00000      -0.00000      -0.17233
                        -----------------------------------------
Magnitude (a.u.)       :      0.17233
Magnitude (Debye)      :      0.43804



--------------------
Rotational spectrum 
--------------------
 
Rotational constants in cm-1:     7.538495     0.529682     0.494908 
Rotational constants in MHz : 225998.405632 15879.461453 14836.963026 

 Dipole components along the rotational axes: 
x,y,z [a.u.] :    -0.172334    -0.000000     0.000000 
x,y,z [Debye]:    -0.438039    -0.000000     0.000000 

 
Transforming and storing MO dipole integrals   ... done

                ... starting polarizability calculation

Opening the Dipole integral file               ... (bh2cl_pbe.dmo.tmp) done
Reading Dipole-MO integrals                    ... done
Solving CP-SCF equations                       ... 

           ************************************************************
           *        Program running with 4 parallel MPI-processes     *
           *              working on a common directory               *
           ************************************************************

------------------------------------------------------------------------------
                           ORCA CP-SCF CALCULATION
------------------------------------------------------------------------------

Input orbitals are from        ... bh2cl_pbe.gbw
Input Perturbation             ... bh2cl_pbe.cpv.tmp
Wavefunction output            ... bh2cl_pbe.cpu.tmp
Perturbation mode              ... Real perturbation (singlet)
Solver                         ... POPLE
Max. number of iterations      ... 200
Convergence tolerance          ... 1.000e-06
Integral handling              ... Direct
Number of perturbations        ... 3
Number of operators            ... 2
Orbital ranges used for CP-SCF:
 Operator 0:  Orbitals   0... 11  to  12...461
 Operator 1:  Orbitals   0... 11  to  12...461
DFT calculation                         ... on
Exchange functional (SCF)               ... PBE
Exchange functional (CP-SCF)            ... PBE
   PBE kappa parameter  XKappa (SCF)    ...  0.804000
   PBE kappa parameter  XKappa (CP-SCF) ...  0.804000
   PBE mue parameter   XMuePBE (SCF)    ...  0.219520
   PBE mue parameter   XMuePBE (CP-SCF) ...  0.219520
Correlation functional (SCF)            ... PBE
Correlation functional (CP-SCF)         ... PBE
   PBE beta parameter CBetaPBE (SCF)    ...  0.066725
   PBE beta parameter CBetaPBE (CP-SCF) ...  0.066725
 LDA part of GGA corr.  LDAOpt (SCF)    ... PW91-LDA
 LDA part of GGA corr.  LDAOpt (CP-SCF) ... PW91-LDA
Variables per vector in CP-SCF ... 10800
Number of vectors sought       ... 3
Recalculating density on grid  ... done
Calculating the xc-kernel      ... done
     CP-SCF ITERATION   0: 
     CP-SCF ITERATION   1:      0.256041513882
     CP-SCF ITERATION   2:      0.005963027790
     CP-SCF ITERATION   3:      0.000196471467
     CP-SCF ITERATION   4:      0.000006719833
     CP-SCF ITERATION   5:      0.000000165894
done
Reading CP-SCF coefficients                    ... done
Doing the polarizability tensor   ... done
Cleaning up                                    ... done

-------------------------
THE POLARIZABILITY TENSOR
-------------------------

The raw cartesian tensor (atomic units):
   25.21628      0.00000     -0.00000  
    0.00000     28.97392     -0.00000  
   -0.00000     -0.00000     39.68953  
diagonalized tensor: 
   25.21628     28.97392     39.68953  

    1.00000      0.00000     -0.00000  
   -0.00000      1.00000     -0.00000  
    0.00000      0.00000      1.00000  

Isotropic polarizability :  31.29325


Timings for individual modules:

Sum of individual times         ...     3514.871 sec (=  58.581 min)
GTO integral calculation        ...        3.067 sec (=   0.051 min)   0.1 %
SCF iterations                  ...     2147.213 sec (=  35.787 min)  61.1 %
Solution of CP-SCF eqns.        ...     1364.591 sec (=  22.743 min)  38.8 %
                             ****ORCA TERMINATED NORMALLY****
TOTAL RUN TIME: 0 days 0 hours 58 minutes 35 seconds 950 msec
