
                                 *****************
                                 * O   R   C   A *
                                 *****************

           --- An Ab Initio, DFT and Semiempirical electronic structure package ---

                  #######################################################
                  #                        -***-                        #
                  #          Department of theory and spectroscopy      #
                  #               Directorship: Frank Neese             #
                  #        Max Planck Institute fuer Kohlenforschung    #
                  #                Kaiser Wilhelm Platz 1               #
                  #                 D-45470 Muelheim/Ruhr               #
                  #                      Germany                        #
                  #                                                     #
                  #                  All rights reserved                #
                  #                        -***-                        #
                  #######################################################


                         Program Version 4.1.2  - RELEASE  -


 With contributions from (in alphabetic order):
   Daniel Aravena         : Magnetic Properties
   Michael Atanasov       : Ab Initio Ligand Field Theory
   Alexander A. Auer      : GIAO ZORA
   Ute Becker             : Parallelization
   Giovanni Bistoni       : ED, Open-shell LED
   Martin Brehm           : Molecular dynamics
   Dmytro Bykov           : SCF Hessian
   Vijay G. Chilkuri      : MRCI spin determinant printing
   Dipayan Datta          : RHF DLPNO-CCSD density
   Achintya Kumar Dutta   : EOM-CC, STEOM-CC
   Dmitry Ganyushin       : Spin-Orbit,Spin-Spin,Magnetic field MRCI
   Miquel Garcia          : C-PCM Hessian
   Yang Guo               : DLPNO-NEVPT2, CIM, IAO-localization
   Andreas Hansen         : Spin unrestricted coupled pair/coupled cluster methods
   Benjamin Helmich-Paris : CASSCF linear response (MC-RPA)
   Lee Huntington         : MR-EOM, pCC
   Robert Izsak           : Overlap fitted RIJCOSX, COSX-SCS-MP3, EOM
   Christian Kollmar      : KDIIS, OOCD, Brueckner-CCSD(T), CCSD density
   Simone Kossmann        : Meta GGA functionals, TD-DFT gradient, OOMP2, MP2 Hessian
   Martin Krupicka        : AUTO-CI
   Lucas Lang             : DCDCAS
   Dagmar Lenk            : GEPOL surface, SMD
   Dimitrios Liakos       : Extrapolation schemes; parallel MDCI
   Dimitrios Manganas     : ROCIS; embedding schemes
   Dimitrios Pantazis     : SARC Basis sets
   Taras Petrenko         : DFT Hessian,TD-DFT gradient, ASA, ECA, R-Raman, ABS, FL, XAS/XES, NRVS
   Peter Pinski           : DLPNO-MP2, DLPNO-MP2 Gradient
   Christoph Reimann      : Effective Core Potentials
   Marius Retegan         : Local ZFS, SOC
   Christoph Riplinger    : Optimizer, TS searches, QM/MM, DLPNO-CCSD(T), (RO)-DLPNO pert. Triples
   Tobias Risthaus        : Range-separated hybrids, TD-DFT gradient, RPA, STAB
   Michael Roemelt        : Restricted open shell CIS
   Masaaki Saitow         : Open-shell DLPNO
   Barbara Sandhoefer     : DKH picture change effects
   Avijit Sen             : IP-ROCIS
   Kantharuban Sivalingam : CASSCF convergence, NEVPT2, FIC-MRCI
   Bernardo de Souza      : ESD, SOC TD-DFT
   Georgi Stoychev        : AutoAux, RI-MP2 NMR
   Willem Van den Heuvel  : Paramagnetic NMR
   Boris Wezisla          : Elementary symmetry handling
   Frank Wennmohs         : Technical directorship


 We gratefully acknowledge several colleagues who have allowed us to
 interface, adapt or use parts of their codes:
   Stefan Grimme, W. Hujo, H. Kruse,             : VdW corrections, initial TS optimization,
                  C. Bannwarth                     DFT functionals, gCP, sTDA/sTD-DF
   Ed Valeev                                     : LibInt (2-el integral package), F12 methods
   Garnet Chan, S. Sharma, J. Yang, R. Olivares  : DMRG
   Ulf Ekstrom                                   : XCFun DFT Library
   Mihaly Kallay                                 : mrcc  (arbitrary order and MRCC methods)
   Andreas Klamt, Michael Diedenhofen            : otool_cosmo (COSMO solvation model)
   Jiri Pittner, Ondrej Demel                    : Mk-CCSD
   Frank Weinhold                                : gennbo (NPA and NBO analysis)
   Christopher J. Cramer and Donald G. Truhlar   : smd solvation model
   Lars Goerigk                                  : TD-DFT with DH, B97 family of functionals
   V. Asgeirsson, H. Jonsson                     : NEB implementation
   FAccTs GmbH                                   : IRC, NEB, NEB-TS, Multilevel


 Your calculation uses the libint2 library for the computation of 2-el integrals
 For citations please refer to: http://libint.valeyev.net

 This ORCA versions uses:
   CBLAS   interface :  Fast vector & matrix operations
   LAPACKE interface :  Fast linear algebra routines
   SCALAPACK package :  Parallel linear algebra routines


----- Orbital basis set information -----
Your calculation utilizes the basis: aug-pc-4
   H, C-F              : F. Jensen, J. Chem. Phys. 115, 9113 (2001).
                         F. Jensen, J. Chem. Phys. 116, 7372 (2002).
                         F. Jensen, J. Chem. Phys. 117, 9234 (2002).
   Si-Cl               : F. Jensen, T. Helgaker, J. Chem. Phys. 121, 3463 (2004).
   He-B, Ne-Mg, Al, Ar : F. Jensen, J. Phys. Chem. A 111, 11198 (2007).
   K, Ca, Ga-Kr        : F. Jensen, J. Chem. Phys. 136, 094110 (2012).
   Sc-Zn               : F. Jensen, J. Chem. Phys. 138, 014107 (2013).

================================================================================
                                        WARNINGS
                       Please study these warnings very carefully!
================================================================================


INFO   : the flag for use of LIBINT has been found!

================================================================================
                                       INPUT FILE
================================================================================
NAME = bh2f_pbe.inp
|  1> !uks pbe nori aug-pc-4 grid5 nofinalgrid verytightscf
|  2> 
|  3> %maxcore 1500
|  4> 
|  5> %pal nprocs 4 end
|  6> 
|  7> %scf
|  8> 	maxiter 200
|  9> end
| 10> %elprop
| 11> 	dipole true
| 12> 	 polar 1
| 13> 	 maxiter 200
| 14> end
| 15> 
| 16> * xyz 0 1
| 17> B 0.0000000000 0.0000000000 0.0000000000
| 18> F 0.0000000000 0.0000000000 1.3157000000
| 19> H 0.0000000000 1.0599000000 -0.5569000000
| 20> H 0.0000000000 -1.0599000000 -0.5569000000
| 21> *
| 22> 
| 23>                          ****END OF INPUT****
================================================================================

                       ****************************
                       * Single Point Calculation *
                       ****************************

---------------------------------
CARTESIAN COORDINATES (ANGSTROEM)
---------------------------------
  B      0.000000    0.000000    0.000000
  F      0.000000    0.000000    1.315700
  H      0.000000    1.059900   -0.556900
  H      0.000000   -1.059900   -0.556900

----------------------------
CARTESIAN COORDINATES (A.U.)
----------------------------
  NO LB      ZA    FRAG     MASS         X           Y           Z
   0 B     5.0000    0    10.810    0.000000    0.000000    0.000000
   1 F     9.0000    0    18.998    0.000000    0.000000    2.486313
   2 H     1.0000    0     1.008    0.000000    2.002921   -1.052388
   3 H     1.0000    0     1.008    0.000000   -2.002921   -1.052388

--------------------------------
INTERNAL COORDINATES (ANGSTROEM)
--------------------------------
 B      0   0   0     0.000000000000     0.00000000     0.00000000
 F      1   0   0     1.315700000000     0.00000000     0.00000000
 H      1   2   0     1.197299302597   117.71864523     0.00000000
 H      1   2   3     1.197299302597   117.71864523   180.00000000

---------------------------
INTERNAL COORDINATES (A.U.)
---------------------------
 B      0   0   0     0.000000000000     0.00000000     0.00000000
 F      1   0   0     2.486312674400     0.00000000     0.00000000
 H      1   2   0     2.262567782244   117.71864523     0.00000000
 H      1   2   3     2.262567782244   117.71864523   180.00000000

---------------------
BASIS SET INFORMATION
---------------------
There are 3 groups of distinct atoms

 Group   1 Type B   : 27s12p7d4f3g2h contracted to 9s8p7d4f3g2h pattern {1191111111/51111111/1111111/1111/111/11}
 Group   2 Type F   : 27s12p7d4f3g2h contracted to 9s8p7d4f3g2h pattern {1191111111/51111111/1111111/1111/111/11}
 Group   3 Type H   : 12s7p4d3f2g contracted to 8s7p4d3f2g pattern {51111111/1111111/1111/111/11}

Atom   0B    basis set group =>   1
Atom   1F    basis set group =>   2
Atom   2H    basis set group =>   3
Atom   3H    basis set group =>   3


           ************************************************************
           *        Program running with 4 parallel MPI-processes     *
           *              working on a common directory               *
           ************************************************************
------------------------------------------------------------------------------
                           ORCA GTO INTEGRAL CALCULATION
------------------------------------------------------------------------------

                         BASIS SET STATISTICS AND STARTUP INFO

 # of primitive gaussian shells          ...  166
 # of primitive gaussian functions       ...  534
 # of contracted shells                  ...  114
 # of contracted basis functions         ...  466
 Highest angular momentum                ...    5
 Maximum contraction depth               ...   11
 Integral package used                   ... LIBINT
 Integral threshhold            Thresh   ...  1.000e-12
 Primitive cut-off              TCut     ...  1.000e-14


------------------------------ INTEGRAL EVALUATION ----------------------------


 * One electron integrals 
 Pre-screening matrix                    ... done
 Shell pair data                         ... done (   0.002 sec)



           ************************************************************
           *        Program running with 4 parallel MPI-processes     *
           *              working on a common directory               *
           ************************************************************
-------------------------------------------------------------------------------
                                 ORCA SCF
-------------------------------------------------------------------------------

------------
SCF SETTINGS
------------
Hamiltonian:
 Density Functional     Method          .... DFT(GTOs)
 Exchange Functional    Exchange        .... PBE
   PBE kappa parameter   XKappa         ....  0.804000
   PBE mue parameter    XMuePBE         ....  0.219520
 Correlation Functional Correlation     .... PBE
   PBE beta parameter  CBetaPBE         ....  0.066725
 LDA part of GGA corr.  LDAOpt          .... PW91-LDA
 Gradients option       PostSCFGGA      .... off
   Density functional embedding theory  .... OFF
   NL short-range parameter             ....  6.400000


General Settings:
 Integral files         IntName         .... bh2f_pbe
 Hartree-Fock type      HFTyp           .... UHF
 Total Charge           Charge          ....    0
 Multiplicity           Mult            ....    1
 Number of Electrons    NEL             ....   16
 Basis Dimension        Dim             ....  466
 Nuclear Repulsion      ENuc            ....     27.1952059082 Eh

Convergence Acceleration:
 DIIS                   CNVDIIS         .... on
   Start iteration      DIISMaxIt       ....    12
   Startup error        DIISStart       ....  0.200000
   # of expansion vecs  DIISMaxEq       ....     5
   Bias factor          DIISBfac        ....   1.050
   Max. coefficient     DIISMaxC        ....  10.000
 Newton-Raphson         CNVNR           .... off
 SOSCF                  CNVSOSCF        .... off
 Level Shifting         CNVShift        .... on
   Level shift para.    LevelShift      ....    0.2500
   Turn off err/grad.   ShiftErr        ....    0.0010
 Zerner damping         CNVZerner       .... off
 Static damping         CNVDamp         .... on
   Fraction old density DampFac         ....    0.7000
   Max. Damping (<1)    DampMax         ....    0.9800
   Min. Damping (>=0)   DampMin         ....    0.0000
   Turn off err/grad.   DampErr         ....    0.1000
 Fernandez-Rico         CNVRico         .... off

SCF Procedure:
 Maximum # iterations   MaxIter         ....   200
 SCF integral mode      SCFMode         .... Direct
   Integral package                     .... LIBINT
 Reset frequency        DirectResetFreq ....    20
 Integral Threshold     Thresh          ....  1.000e-12 Eh
 Primitive CutOff       TCut            ....  1.000e-14 Eh

Convergence Tolerance:
 Convergence Check Mode ConvCheckMode   .... Total+1el-Energy
 Convergence forced     ConvForced      .... 0
 Energy Change          TolE            ....  1.000e-09 Eh
 1-El. energy change                    ....  1.000e-06 Eh
 DIIS Error             TolErr          ....  1.000e-08


Diagonalization of the overlap matrix:
Smallest eigenvalue                        ... 4.444e-07
Time for diagonalization                   ...    0.056 sec
Threshold for overlap eigenvalues          ... 1.000e-08
Number of eigenvalues below threshold      ... 0
Time for construction of square roots      ...    0.036 sec
Total time needed                          ...    0.093 sec

-------------------
DFT GRID GENERATION
-------------------

General Integration Accuracy     IntAcc      ...  5.010
Radial Grid Type                 RadialGrid  ... Gauss-Chebyshev
Angular Grid (max. acc.)         AngularGrid ... Lebedev-434
Angular grid pruning method      GridPruning ... 3 (G Style)
Weight generation scheme         WeightScheme... Becke
Basis function cutoff            BFCut       ...    1.0000e-12
Integration weight cutoff        WCut        ...    1.0000e-14
Grids for H and He will be reduced by one unit

# of grid points (after initial pruning)     ...  34792 (   0.0 sec)
# of grid points (after weights+screening)   ...  34194 (   0.0 sec)
nearest neighbour list constructed           ...    0.0 sec
Grid point re-assignment to atoms done       ...    0.0 sec
Grid point division into batches done        ...    0.3 sec
Reduced shell lists constructed in    0.4 sec

Total number of grid points                  ...    34194
Total number of batches                      ...      536
Average number of points per batch           ...       63
Average number of grid points per atom       ...     8548
Average number of shells per batch           ...    80.98 (71.03%)
Average number of basis functions per batch  ...   343.04 (73.61%)
Average number of large shells per batch     ...    72.84 (89.95%)
Average number of large basis fcns per batch ...   310.39 (90.48%)
Maximum spatial batch extension              ...  22.62, 22.62, 18.28 au
Average spatial batch extension              ...   1.03,  0.96,  0.87 au

Time for grid setup =    0.442 sec

------------------------------
INITIAL GUESS: MODEL POTENTIAL
------------------------------
Loading Hartree-Fock densities                     ... done
Calculating cut-offs                               ... done
Setting up the integral package                    ... done
Initializing the effective Hamiltonian             ... done
Starting the Coulomb interaction                   ... done (   0.0 sec)
Reading the grid                                   ... done
Mapping shells                                     ... done
Starting the XC term evaluation                    ... done (   1.0 sec)
  promolecular density results
     # of electrons  =     15.999013811
     EX              =    -14.338819299
     EC              =     -0.500273814
     EX+EC           =    -14.839093113
Transforming the Hamiltonian                       ... done (   0.0 sec)
Diagonalizing the Hamiltonian                      ... done (   0.1 sec)
Back transforming the eigenvectors                 ... done (   0.0 sec)
Now organizing SCF variables                       ... done
                      ------------------
                      INITIAL GUESS DONE (   1.7 sec)
                      ------------------
--------------
SCF ITERATIONS
--------------
ITER       Energy         Delta-E        Max-DP      RMS-DP      [F,P]     Damp
               ***  Starting incremental Fock matrix formation  ***
  0   -125.8161907110   0.000000000000 0.00719595  0.00008860  0.1506899 0.7000
  1   -125.8274197779  -0.011229066875 0.00628761  0.00007309  0.0517431 0.7000
                               ***Turning on DIIS***
  2   -125.8319108954  -0.004491117510 0.01374407  0.00015289  0.0294892 0.0000
  3   -125.8405966336  -0.008685738211 0.00525881  0.00004685  0.0218112 0.0000
  4   -125.8412897866  -0.000693152945 0.00107257  0.00001284  0.0152850 0.0000
  5   -125.8414698621  -0.000180075563 0.00040577  0.00000328  0.0015157 0.0000
  6   -125.8414761474  -0.000006285303 0.00012000  0.00000167  0.0002613 0.0000
  7   -125.8414764205  -0.000000273127 0.00001858  0.00000026  0.0000758 0.0000
  8   -125.8414764262  -0.000000005615 0.00000440  0.00000006  0.0000190 0.0000
  9   -125.8414764265  -0.000000000318 0.00000312  0.00000002  0.0000077 0.0000
 10   -125.8414764265  -0.000000000043 0.00000643  0.00000003  0.0000028 0.0000
 11   -125.8414764265  -0.000000000010 0.00000497  0.00000006  0.0000007 0.0000
                 **** Energy Check signals convergence ****

               *****************************************************
               *                     SUCCESS                       *
               *           SCF CONVERGED AFTER  12 CYCLES          *
               *****************************************************


----------------
TOTAL SCF ENERGY
----------------

Total Energy       :         -125.84147643 Eh           -3424.32066 eV

Components:
Nuclear Repulsion  :           27.19520591 Eh             740.01917 eV
Electronic Energy  :         -153.03668233 Eh           -4164.33984 eV
One Electron Energy:         -227.24841178 Eh           -6183.74366 eV
Two Electron Energy:           74.21172944 Eh            2019.40382 eV

Virial components:
Potential Energy   :         -251.29254765 Eh           -6838.01786 eV
Kinetic Energy     :          125.45107123 Eh            3413.69720 eV
Virial Ratio       :            2.00311201


DFT components:
N(Alpha)           :        7.999997435898 electrons
N(Beta)            :        7.999997435898 electrons
N(Total)           :       15.999994871796 electrons
E(X)               :      -14.608303856726 Eh       
E(C)               :       -0.503174442306 Eh       
E(XC)              :      -15.111478299032 Eh       
DFET-embed. en.    :        0.000000000000 Eh       

---------------
SCF CONVERGENCE
---------------

  Last Energy change         ...    5.4570e-12  Tolerance :   1.0000e-09
  Last MAX-Density change    ...    2.3191e-05  Tolerance :   1.0000e-08
  Last RMS-Density change    ...    1.4908e-07  Tolerance :   1.0000e-09
  Last DIIS Error            ...    1.0077e-07  Tolerance :   1.0000e-08

             **** THE GBW FILE WAS UPDATED (bh2f_pbe.gbw) ****
             **** DENSITY FILE WAS UPDATED (bh2f_pbe.scfp.tmp) ****
             **** ENERGY FILE WAS UPDATED (bh2f_pbe.en.tmp) ****
----------------------
UHF SPIN CONTAMINATION
----------------------

Warning: in a DFT calculation there is little theoretical justification to 
         calculate <S**2> as in Hartree-Fock theory. We will do it anyways
         but you should keep in mind that the values have only limited relevance

Expectation value of <S**2>     :     0.000000
Ideal value S*(S+1) for S=0.0   :     0.000000
Deviation                       :     0.000000

----------------
ORBITAL ENERGIES
----------------
                 SPIN UP ORBITALS
  NO   OCC          E(Eh)            E(eV) 
   0   1.0000     -24.279454      -660.6775 
   1   1.0000      -6.567050      -178.6985 
   2   1.0000      -1.127650       -30.6849 
   3   1.0000      -0.510419       -13.8892 
   4   1.0000      -0.426179       -11.5969 
   5   1.0000      -0.416031       -11.3208 
   6   1.0000      -0.403062       -10.9679 
   7   1.0000      -0.285786        -7.7766 
   8   0.0000      -0.084090        -2.2882 
   9   0.0000      -0.005516        -0.1501 
  10   0.0000       0.006241         0.1698 
  11   0.0000       0.011173         0.3040 
  12   0.0000       0.016516         0.4494 
  13   0.0000       0.032928         0.8960 
  14   0.0000       0.034096         0.9278 
  15   0.0000       0.042425         1.1544 
  16   0.0000       0.045889         1.2487 
  17   0.0000       0.052105         1.4179 
  18   0.0000       0.052771         1.4360 
  19   0.0000       0.058590         1.5943 
  20   0.0000       0.059001         1.6055 
  21   0.0000       0.061522         1.6741 
  22   0.0000       0.083360         2.2683 
  23   0.0000       0.092553         2.5185 
  24   0.0000       0.094434         2.5697 
  25   0.0000       0.098224         2.6728 
  26   0.0000       0.100159         2.7255 
  27   0.0000       0.102199         2.7810 
  28   0.0000       0.107787         2.9330 
  29   0.0000       0.117391         3.1944 
  30   0.0000       0.121787         3.3140 
  31   0.0000       0.129205         3.5158 
  32   0.0000       0.129818         3.5325 
  33   0.0000       0.133776         3.6402 
  34   0.0000       0.137874         3.7517 
  35   0.0000       0.154100         4.1933 
  36   0.0000       0.159486         4.3398 
  37   0.0000       0.161311         4.3895 
  38   0.0000       0.165347         4.4993 
  39   0.0000       0.165851         4.5130 
  40   0.0000       0.177042         4.8176 
  41   0.0000       0.186923         5.0864 
  42   0.0000       0.191095         5.2000 
  43   0.0000       0.191883         5.2214 
  44   0.0000       0.194468         5.2918 
  45   0.0000       0.200955         5.4683 
  46   0.0000       0.212959         5.7949 
  47   0.0000       0.218941         5.9577 
  48   0.0000       0.220143         5.9904 
  49   0.0000       0.221985         6.0405 
  50   0.0000       0.224289         6.1032 
  51   0.0000       0.224660         6.1133 
  52   0.0000       0.232947         6.3388 
  53   0.0000       0.234812         6.3896 
  54   0.0000       0.255344         6.9483 
  55   0.0000       0.263510         7.1705 
  56   0.0000       0.275782         7.5044 
  57   0.0000       0.283438         7.7127 
  58   0.0000       0.290797         7.9130 
  59   0.0000       0.296249         8.0613 
  60   0.0000       0.298370         8.1191 
  61   0.0000       0.298596         8.1252 
  62   0.0000       0.302160         8.2222 
  63   0.0000       0.308419         8.3925 
  64   0.0000       0.315606         8.5881 
  65   0.0000       0.316958         8.6249 
  66   0.0000       0.320921         8.7327 
  67   0.0000       0.325343         8.8530 
  68   0.0000       0.326497         8.8844 
  69   0.0000       0.332264         9.0414 
  70   0.0000       0.338441         9.2095 
  71   0.0000       0.340358         9.2616 
  72   0.0000       0.340608         9.2684 
  73   0.0000       0.341458         9.2915 
  74   0.0000       0.354644         9.6504 
  75   0.0000       0.364239         9.9115 
  76   0.0000       0.370779        10.0894 
  77   0.0000       0.382804        10.4166 
  78   0.0000       0.385836        10.4991 
  79   0.0000       0.387861        10.5542 
  80   0.0000       0.401933        10.9372 
  81   0.0000       0.406130        11.0514 
  82   0.0000       0.420637        11.4461 
  83   0.0000       0.422538        11.4979 
  84   0.0000       0.430438        11.7128 
  85   0.0000       0.451895        12.2967 
  86   0.0000       0.459297        12.4981 
  87   0.0000       0.474592        12.9143 
  88   0.0000       0.479529        13.0486 
  89   0.0000       0.486382        13.2351 
  90   0.0000       0.487865        13.2755 
  91   0.0000       0.495728        13.4894 
  92   0.0000       0.496096        13.4995 
  93   0.0000       0.520663        14.1680 
  94   0.0000       0.520843        14.1729 
  95   0.0000       0.550306        14.9746 
  96   0.0000       0.552164        15.0252 
  97   0.0000       0.556895        15.1539 
  98   0.0000       0.564996        15.3743 
  99   0.0000       0.574227        15.6255 
 100   0.0000       0.578994        15.7552 
 101   0.0000       0.579048        15.7567 
 102   0.0000       0.584893        15.9157 
 103   0.0000       0.589049        16.0288 
 104   0.0000       0.591793        16.1035 
 105   0.0000       0.603304        16.4167 
 106   0.0000       0.616726        16.7820 
 107   0.0000       0.620709        16.8903 
 108   0.0000       0.623001        16.9527 
 109   0.0000       0.637937        17.3592 
 110   0.0000       0.651546        17.7295 
 111   0.0000       0.652160        17.7462 
 112   0.0000       0.663202        18.0467 
 113   0.0000       0.663908        18.0658 
 114   0.0000       0.680014        18.5041 
 115   0.0000       0.680683        18.5223 
 116   0.0000       0.685419        18.6512 
 117   0.0000       0.692179        18.8351 
 118   0.0000       0.697652        18.9841 
 119   0.0000       0.706864        19.2348 
 120   0.0000       0.708394        19.2764 
 121   0.0000       0.709063        19.2946 
 122   0.0000       0.709214        19.2987 
 123   0.0000       0.728387        19.8204 
 124   0.0000       0.738874        20.1058 
 125   0.0000       0.756051        20.5732 
 126   0.0000       0.760352        20.6902 
 127   0.0000       0.765590        20.8328 
 128   0.0000       0.773140        21.0382 
 129   0.0000       0.773735        21.0544 
 130   0.0000       0.774960        21.0877 
 131   0.0000       0.793910        21.6034 
 132   0.0000       0.816085        22.2068 
 133   0.0000       0.823580        22.4108 
 134   0.0000       0.825344        22.4587 
 135   0.0000       0.846442        23.0329 
 136   0.0000       0.852451        23.1964 
 137   0.0000       0.857083        23.3224 
 138   0.0000       0.878616        23.9083 
 139   0.0000       0.885690        24.1008 
 140   0.0000       0.890153        24.2223 
 141   0.0000       0.897848        24.4317 
 142   0.0000       0.907260        24.6878 
 143   0.0000       0.934445        25.4275 
 144   0.0000       0.974923        26.5290 
 145   0.0000       0.979661        26.6579 
 146   0.0000       0.990215        26.9451 
 147   0.0000       0.990900        26.9638 
 148   0.0000       1.009904        27.4809 
 149   0.0000       1.025647        27.9093 
 150   0.0000       1.027616        27.9629 
 151   0.0000       1.050999        28.5991 
 152   0.0000       1.066775        29.0284 
 153   0.0000       1.076157        29.2837 
 154   0.0000       1.077470        29.3194 
 155   0.0000       1.089437        29.6451 
 156   0.0000       1.094214        29.7751 
 157   0.0000       1.106266        30.1030 
 158   0.0000       1.140776        31.0421 
 159   0.0000       1.161098        31.5951 
 160   0.0000       1.188214        32.3330 
 161   0.0000       1.230731        33.4899 
 162   0.0000       1.246202        33.9109 
 163   0.0000       1.273723        34.6598 
 164   0.0000       1.277052        34.7503 
 165   0.0000       1.302606        35.4457 
 166   0.0000       1.307450        35.5775 
 167   0.0000       1.316344        35.8195 
 168   0.0000       1.318258        35.8716 
 169   0.0000       1.339436        36.4479 
 170   0.0000       1.345655        36.6171 
 171   0.0000       1.357133        36.9295 
 172   0.0000       1.376031        37.4437 
 173   0.0000       1.394783        37.9540 
 174   0.0000       1.397810        38.0363 
 175   0.0000       1.399454        38.0811 
 176   0.0000       1.408699        38.3327 
 177   0.0000       1.411923        38.4204 
 178   0.0000       1.421963        38.6936 
 179   0.0000       1.495492        40.6944 
 180   0.0000       1.507770        41.0285 
 181   0.0000       1.514170        41.2027 
 182   0.0000       1.521744        41.4088 
 183   0.0000       1.566899        42.6375 
 184   0.0000       1.576537        42.8998 
 185   0.0000       1.576790        42.9066 
 186   0.0000       1.615429        43.9581 
 187   0.0000       1.640306        44.6350 
 188   0.0000       1.656254        45.0690 
 189   0.0000       1.676844        45.6292 
 190   0.0000       1.707747        46.4702 
 191   0.0000       1.717590        46.7380 
 192   0.0000       1.718591        46.7652 
 193   0.0000       1.727311        47.0025 
 194   0.0000       1.733950        47.1832 
 195   0.0000       1.737957        47.2922 
 196   0.0000       1.822601        49.5955 
 197   0.0000       1.889371        51.4124 
 198   0.0000       1.924349        52.3642 
 199   0.0000       1.942948        52.8703 
 200   0.0000       2.004080        54.5338 
 201   0.0000       2.006297        54.5941 
 202   0.0000       2.058908        56.0257 
 203   0.0000       2.086947        56.7887 
 204   0.0000       2.091198        56.9044 
 205   0.0000       2.147680        58.4413 
 206   0.0000       2.202592        59.9356 
 207   0.0000       2.336140        63.5696 
 208   0.0000       2.340860        63.6980 
 209   0.0000       2.363202        64.3060 
 210   0.0000       2.369938        64.4893 
 211   0.0000       2.434595        66.2487 
 212   0.0000       2.477658        67.4205 
 213   0.0000       2.489223        67.7352 
 214   0.0000       2.528301        68.7986 
 215   0.0000       2.564347        69.7794 
 216   0.0000       2.651989        72.1643 
 217   0.0000       2.660629        72.3994 
 218   0.0000       2.686583        73.1057 
 219   0.0000       2.764754        75.2328 
 220   0.0000       2.817014        76.6548 
 221   0.0000       2.900583        78.9289 
 222   0.0000       2.962570        80.6156 
 223   0.0000       3.048377        82.9506 
 224   0.0000       3.052171        83.0538 
 225   0.0000       3.103248        84.4437 
 226   0.0000       3.113270        84.7164 
 227   0.0000       3.150411        85.7270 
 228   0.0000       3.185388        86.6788 
 229   0.0000       3.199472        87.0621 
 230   0.0000       3.276749        89.1649 
 231   0.0000       3.279414        89.2374 
 232   0.0000       3.337098        90.8070 
 233   0.0000       3.346687        91.0680 
 234   0.0000       3.412586        92.8612 
 235   0.0000       3.437481        93.5386 
 236   0.0000       3.456942        94.0682 
 237   0.0000       3.499892        95.2369 
 238   0.0000       3.569481        97.1305 
 239   0.0000       3.607543        98.1662 
 240   0.0000       3.617927        98.4488 
 241   0.0000       3.644045        99.1595 
 242   0.0000       3.664592        99.7186 
 243   0.0000       3.688057       100.3571 
 244   0.0000       3.812995       103.7569 
 245   0.0000       3.817381       103.8762 
 246   0.0000       3.822523       104.0161 
 247   0.0000       3.838492       104.4507 
 248   0.0000       3.883014       105.6622 
 249   0.0000       3.905714       106.2799 
 250   0.0000       3.930799       106.9625 
 251   0.0000       3.934250       107.0564 
 252   0.0000       3.947149       107.4074 
 253   0.0000       4.015528       109.2681 
 254   0.0000       4.034058       109.7723 
 255   0.0000       4.127697       112.3203 
 256   0.0000       4.142163       112.7140 
 257   0.0000       4.190345       114.0251 
 258   0.0000       4.235800       115.2620 
 259   0.0000       4.239267       115.3563 
 260   0.0000       4.323994       117.6619 
 261   0.0000       4.433565       120.6434 
 262   0.0000       4.521288       123.0305 
 263   0.0000       4.533437       123.3611 
 264   0.0000       4.555621       123.9647 
 265   0.0000       4.738788       128.9490 
 266   0.0000       4.744670       129.1090 
 267   0.0000       4.748768       129.2205 
 268   0.0000       4.900424       133.3473 
 269   0.0000       4.920203       133.8855 
 270   0.0000       4.976693       135.4227 
 271   0.0000       5.083360       138.3253 
 272   0.0000       5.206549       141.6774 
 273   0.0000       5.295639       144.1017 
 274   0.0000       5.374722       146.2536 
 275   0.0000       5.416153       147.3810 
 276   0.0000       5.452575       148.3721 
 277   0.0000       5.512725       150.0089 
 278   0.0000       5.538379       150.7069 
 279   0.0000       5.631732       153.2472 
 280   0.0000       5.762356       156.8017 
 281   0.0000       5.796821       157.7395 
 282   0.0000       5.800837       157.8488 
 283   0.0000       5.900713       160.5666 
 284   0.0000       5.903299       160.6369 
 285   0.0000       6.011785       163.5890 
 286   0.0000       6.048296       164.5825 
 287   0.0000       6.159632       167.6121 
 288   0.0000       6.176180       168.0624 
 289   0.0000       6.227402       169.4562 
 290   0.0000       6.349908       172.7898 
 291   0.0000       6.488541       176.5622 
 292   0.0000       6.598077       179.5428 
 293   0.0000       6.813067       185.3930 
 294   0.0000       6.820440       185.5936 
 295   0.0000       6.845355       186.2716 
 296   0.0000       7.098269       193.1537 
 297   0.0000       7.139206       194.2677 
 298   0.0000       7.155993       194.7245 
 299   0.0000       7.216827       196.3798 
 300   0.0000       7.429014       202.1538 
 301   0.0000       7.517175       204.5527 
 302   0.0000       7.656427       208.3420 
 303   0.0000       7.676572       208.8901 
 304   0.0000       7.720925       210.0970 
 305   0.0000       7.873204       214.2408 
 306   0.0000       8.082540       219.9371 
 307   0.0000       8.144821       221.6319 
 308   0.0000       8.342510       227.0112 
 309   0.0000       8.537694       232.3225 
 310   0.0000       8.541386       232.4229 
 311   0.0000       8.599911       234.0155 
 312   0.0000       8.649081       235.3535 
 313   0.0000       8.788924       239.1588 
 314   0.0000       8.804145       239.5730 
 315   0.0000       8.807293       239.6586 
 316   0.0000       8.842396       240.6138 
 317   0.0000       8.843615       240.6470 
 318   0.0000       8.909332       242.4353 
 319   0.0000       8.931995       243.0519 
 320   0.0000       8.953395       243.6343 
 321   0.0000       9.012025       245.2297 
 322   0.0000       9.016638       245.3552 
 323   0.0000       9.126554       248.3462 
 324   0.0000       9.212180       250.6762 
 325   0.0000       9.363539       254.7948 
 326   0.0000       9.574081       260.5240 
 327   0.0000       9.643264       262.4066 
 328   0.0000       9.648779       262.5566 
 329   0.0000       9.710918       264.2475 
 330   0.0000       9.714967       264.3577 
 331   0.0000       9.722818       264.5713 
 332   0.0000       9.748092       265.2591 
 333   0.0000       9.810565       266.9591 
 334   0.0000       9.865413       268.4515 
 335   0.0000       9.868431       268.5337 
 336   0.0000       9.965854       271.1847 
 337   0.0000       9.972603       271.3683 
 338   0.0000      10.067383       273.9474 
 339   0.0000      10.073198       274.1057 
 340   0.0000      10.392432       282.7924 
 341   0.0000      10.412372       283.3351 
 342   0.0000      10.461769       284.6792 
 343   0.0000      10.603253       288.5292 
 344   0.0000      10.739102       292.2258 
 345   0.0000      10.836543       294.8773 
 346   0.0000      11.002492       299.3930 
 347   0.0000      11.063983       301.0663 
 348   0.0000      11.104042       302.1563 
 349   0.0000      11.306062       307.6536 
 350   0.0000      11.368971       309.3654 
 351   0.0000      11.539397       314.0029 
 352   0.0000      11.554820       314.4226 
 353   0.0000      11.711537       318.6871 
 354   0.0000      11.798134       321.0435 
 355   0.0000      12.018876       327.0502 
 356   0.0000      12.031196       327.3855 
 357   0.0000      12.230153       332.7994 
 358   0.0000      12.232780       332.8709 
 359   0.0000      12.341981       335.8424 
 360   0.0000      12.399502       337.4076 
 361   0.0000      12.423075       338.0491 
 362   0.0000      12.447175       338.7049 
 363   0.0000      12.451727       338.8287 
 364   0.0000      12.655023       344.3607 
 365   0.0000      12.656703       344.4064 
 366   0.0000      12.686871       345.2273 
 367   0.0000      12.688456       345.2705 
 368   0.0000      12.703201       345.6717 
 369   0.0000      12.760461       347.2298 
 370   0.0000      12.791842       348.0837 
 371   0.0000      12.834695       349.2498 
 372   0.0000      12.888835       350.7230 
 373   0.0000      12.936560       352.0217 
 374   0.0000      12.972909       353.0108 
 375   0.0000      13.029692       354.5559 
 376   0.0000      13.153433       357.9231 
 377   0.0000      13.300994       361.9384 
 378   0.0000      13.330041       362.7288 
 379   0.0000      13.442377       365.7857 
 380   0.0000      13.811656       375.8343 
 381   0.0000      13.838497       376.5646 
 382   0.0000      13.969703       380.1349 
 383   0.0000      14.131884       384.5481 
 384   0.0000      14.162897       385.3920 
 385   0.0000      14.171659       385.6304 
 386   0.0000      14.354268       390.5995 
 387   0.0000      14.416219       392.2853 
 388   0.0000      14.571512       396.5110 
 389   0.0000      14.629641       398.0928 
 390   0.0000      14.799221       402.7073 
 391   0.0000      14.814707       403.1287 
 392   0.0000      15.013091       408.5270 
 393   0.0000      15.069529       410.0627 
 394   0.0000      15.085229       410.4899 
 395   0.0000      15.371974       418.2927 
 396   0.0000      15.461080       420.7174 
 397   0.0000      15.739521       428.2941 
 398   0.0000      16.126817       438.8330 
 399   0.0000      16.225502       441.5184 
 400   0.0000      16.749741       455.7836 
 401   0.0000      16.757604       455.9976 
 402   0.0000      16.766523       456.2403 
 403   0.0000      16.767288       456.2611 
 404   0.0000      16.879821       459.3233 
 405   0.0000      16.902146       459.9308 
 406   0.0000      16.929407       460.6726 
 407   0.0000      16.982906       462.1284 
 408   0.0000      16.998475       462.5520 
 409   0.0000      17.204304       468.1529 
 410   0.0000      17.687305       481.2960 
 411   0.0000      17.812797       484.7109 
 412   0.0000      17.971168       489.0203 
 413   0.0000      18.007905       490.0200 
 414   0.0000      18.724004       509.5061 
 415   0.0000      19.141066       520.8549 
 416   0.0000      19.241590       523.5903 
 417   0.0000      19.257812       524.0317 
 418   0.0000      19.359729       526.8050 
 419   0.0000      19.758206       537.6481 
 420   0.0000      19.838781       539.8407 
 421   0.0000      20.102078       547.0054 
 422   0.0000      20.102171       547.0079 
 423   0.0000      20.288474       552.0774 
 424   0.0000      20.374503       554.4184 
 425   0.0000      20.402432       555.1784 
 426   0.0000      20.652217       561.9754 
 427   0.0000      20.770530       565.1948 
 428   0.0000      20.998506       571.3984 
 429   0.0000      21.121030       574.7324 
 430   0.0000      22.000822       598.6728 
 431   0.0000      22.004732       598.7792 
 432   0.0000      22.129538       602.1754 
 433   0.0000      22.198899       604.0628 
 434   0.0000      22.511871       612.5791 
 435   0.0000      23.032620       626.7494 
 436   0.0000      23.433137       637.6481 
 437   0.0000      23.443461       637.9290 
 438   0.0000      23.760279       646.5501 
 439   0.0000      23.832008       648.5019 
 440   0.0000      24.755447       673.6300 
 441   0.0000      25.032120       681.1586 
 442   0.0000      30.371313       826.4454 
 443   0.0000      30.477197       829.3267 
 444   0.0000      30.755902       836.9107 
 445   0.0000      31.050974       844.9400 
 446   0.0000      32.001873       870.8152 
 447   0.0000      40.683800      1107.0625 
 448   0.0000      40.882183      1112.4608 
 449   0.0000      41.676223      1134.0677 
 450   0.0000      41.874344      1139.4588 
 451   0.0000      42.067525      1144.7155 
 452   0.0000      44.378917      1207.6117 
 453   0.0000      80.006388      2177.0845 
 454   0.0000      91.019680      2476.7714 
 455   0.0000      91.020466      2476.7928 
 456   0.0000      91.240524      2482.7809 
 457   0.0000      91.271055      2483.6117 
 458   0.0000      91.291952      2484.1803 
 459   0.0000      91.362060      2486.0880 
 460   0.0000      91.538915      2490.9005 
 461   0.0000      91.740734      2496.3923 
 462   0.0000      91.903228      2500.8140 
 463   0.0000      92.134821      2507.1159 
 464   0.0000      92.451120      2515.7229 
 465   0.0000     202.492634      5510.1047 

                 SPIN DOWN ORBITALS
  NO   OCC          E(Eh)            E(eV) 
   0   1.0000     -24.279454      -660.6775 
   1   1.0000      -6.567050      -178.6985 
   2   1.0000      -1.127650       -30.6849 
   3   1.0000      -0.510419       -13.8892 
   4   1.0000      -0.426179       -11.5969 
   5   1.0000      -0.416031       -11.3208 
   6   1.0000      -0.403062       -10.9679 
   7   1.0000      -0.285786        -7.7766 
   8   0.0000      -0.084090        -2.2882 
   9   0.0000      -0.005516        -0.1501 
  10   0.0000       0.006241         0.1698 
  11   0.0000       0.011173         0.3040 
  12   0.0000       0.016516         0.4494 
  13   0.0000       0.032928         0.8960 
  14   0.0000       0.034096         0.9278 
  15   0.0000       0.042425         1.1544 
  16   0.0000       0.045889         1.2487 
  17   0.0000       0.052105         1.4179 
  18   0.0000       0.052771         1.4360 
  19   0.0000       0.058590         1.5943 
  20   0.0000       0.059001         1.6055 
  21   0.0000       0.061522         1.6741 
  22   0.0000       0.083360         2.2683 
  23   0.0000       0.092553         2.5185 
  24   0.0000       0.094434         2.5697 
  25   0.0000       0.098224         2.6728 
  26   0.0000       0.100159         2.7255 
  27   0.0000       0.102199         2.7810 
  28   0.0000       0.107787         2.9330 
  29   0.0000       0.117391         3.1944 
  30   0.0000       0.121787         3.3140 
  31   0.0000       0.129205         3.5158 
  32   0.0000       0.129818         3.5325 
  33   0.0000       0.133776         3.6402 
  34   0.0000       0.137874         3.7517 
  35   0.0000       0.154100         4.1933 
  36   0.0000       0.159486         4.3398 
  37   0.0000       0.161311         4.3895 
  38   0.0000       0.165347         4.4993 
  39   0.0000       0.165851         4.5130 
  40   0.0000       0.177042         4.8176 
  41   0.0000       0.186923         5.0864 
  42   0.0000       0.191095         5.2000 
  43   0.0000       0.191883         5.2214 
  44   0.0000       0.194468         5.2918 
  45   0.0000       0.200955         5.4683 
  46   0.0000       0.212959         5.7949 
  47   0.0000       0.218941         5.9577 
  48   0.0000       0.220143         5.9904 
  49   0.0000       0.221985         6.0405 
  50   0.0000       0.224289         6.1032 
  51   0.0000       0.224660         6.1133 
  52   0.0000       0.232947         6.3388 
  53   0.0000       0.234812         6.3896 
  54   0.0000       0.255344         6.9483 
  55   0.0000       0.263510         7.1705 
  56   0.0000       0.275782         7.5044 
  57   0.0000       0.283438         7.7127 
  58   0.0000       0.290797         7.9130 
  59   0.0000       0.296249         8.0613 
  60   0.0000       0.298370         8.1191 
  61   0.0000       0.298596         8.1252 
  62   0.0000       0.302160         8.2222 
  63   0.0000       0.308419         8.3925 
  64   0.0000       0.315606         8.5881 
  65   0.0000       0.316958         8.6249 
  66   0.0000       0.320921         8.7327 
  67   0.0000       0.325343         8.8530 
  68   0.0000       0.326497         8.8844 
  69   0.0000       0.332264         9.0414 
  70   0.0000       0.338441         9.2095 
  71   0.0000       0.340358         9.2616 
  72   0.0000       0.340608         9.2684 
  73   0.0000       0.341458         9.2915 
  74   0.0000       0.354644         9.6504 
  75   0.0000       0.364239         9.9115 
  76   0.0000       0.370779        10.0894 
  77   0.0000       0.382804        10.4166 
  78   0.0000       0.385836        10.4991 
  79   0.0000       0.387861        10.5542 
  80   0.0000       0.401933        10.9372 
  81   0.0000       0.406130        11.0514 
  82   0.0000       0.420637        11.4461 
  83   0.0000       0.422538        11.4979 
  84   0.0000       0.430438        11.7128 
  85   0.0000       0.451895        12.2967 
  86   0.0000       0.459297        12.4981 
  87   0.0000       0.474592        12.9143 
  88   0.0000       0.479529        13.0486 
  89   0.0000       0.486382        13.2351 
  90   0.0000       0.487865        13.2755 
  91   0.0000       0.495728        13.4894 
  92   0.0000       0.496096        13.4995 
  93   0.0000       0.520663        14.1680 
  94   0.0000       0.520843        14.1729 
  95   0.0000       0.550306        14.9746 
  96   0.0000       0.552164        15.0252 
  97   0.0000       0.556895        15.1539 
  98   0.0000       0.564996        15.3743 
  99   0.0000       0.574227        15.6255 
 100   0.0000       0.578994        15.7552 
 101   0.0000       0.579048        15.7567 
 102   0.0000       0.584893        15.9157 
 103   0.0000       0.589049        16.0288 
 104   0.0000       0.591793        16.1035 
 105   0.0000       0.603304        16.4167 
 106   0.0000       0.616726        16.7820 
 107   0.0000       0.620709        16.8903 
 108   0.0000       0.623001        16.9527 
 109   0.0000       0.637937        17.3592 
 110   0.0000       0.651546        17.7295 
 111   0.0000       0.652160        17.7462 
 112   0.0000       0.663202        18.0467 
 113   0.0000       0.663908        18.0658 
 114   0.0000       0.680014        18.5041 
 115   0.0000       0.680683        18.5223 
 116   0.0000       0.685419        18.6512 
 117   0.0000       0.692179        18.8351 
 118   0.0000       0.697652        18.9841 
 119   0.0000       0.706864        19.2348 
 120   0.0000       0.708394        19.2764 
 121   0.0000       0.709063        19.2946 
 122   0.0000       0.709214        19.2987 
 123   0.0000       0.728387        19.8204 
 124   0.0000       0.738874        20.1058 
 125   0.0000       0.756051        20.5732 
 126   0.0000       0.760352        20.6902 
 127   0.0000       0.765590        20.8328 
 128   0.0000       0.773140        21.0382 
 129   0.0000       0.773735        21.0544 
 130   0.0000       0.774960        21.0877 
 131   0.0000       0.793910        21.6034 
 132   0.0000       0.816085        22.2068 
 133   0.0000       0.823580        22.4108 
 134   0.0000       0.825344        22.4587 
 135   0.0000       0.846442        23.0329 
 136   0.0000       0.852451        23.1964 
 137   0.0000       0.857083        23.3224 
 138   0.0000       0.878616        23.9083 
 139   0.0000       0.885690        24.1008 
 140   0.0000       0.890153        24.2223 
 141   0.0000       0.897848        24.4317 
 142   0.0000       0.907260        24.6878 
 143   0.0000       0.934445        25.4275 
 144   0.0000       0.974923        26.5290 
 145   0.0000       0.979661        26.6579 
 146   0.0000       0.990215        26.9451 
 147   0.0000       0.990900        26.9638 
 148   0.0000       1.009904        27.4809 
 149   0.0000       1.025647        27.9093 
 150   0.0000       1.027616        27.9629 
 151   0.0000       1.050999        28.5991 
 152   0.0000       1.066775        29.0284 
 153   0.0000       1.076157        29.2837 
 154   0.0000       1.077470        29.3194 
 155   0.0000       1.089437        29.6451 
 156   0.0000       1.094214        29.7751 
 157   0.0000       1.106266        30.1030 
 158   0.0000       1.140776        31.0421 
 159   0.0000       1.161098        31.5951 
 160   0.0000       1.188214        32.3330 
 161   0.0000       1.230731        33.4899 
 162   0.0000       1.246202        33.9109 
 163   0.0000       1.273723        34.6598 
 164   0.0000       1.277052        34.7503 
 165   0.0000       1.302606        35.4457 
 166   0.0000       1.307450        35.5775 
 167   0.0000       1.316344        35.8195 
 168   0.0000       1.318258        35.8716 
 169   0.0000       1.339436        36.4479 
 170   0.0000       1.345655        36.6171 
 171   0.0000       1.357133        36.9295 
 172   0.0000       1.376031        37.4437 
 173   0.0000       1.394783        37.9540 
 174   0.0000       1.397810        38.0363 
 175   0.0000       1.399454        38.0811 
 176   0.0000       1.408699        38.3327 
 177   0.0000       1.411923        38.4204 
 178   0.0000       1.421963        38.6936 
 179   0.0000       1.495492        40.6944 
 180   0.0000       1.507770        41.0285 
 181   0.0000       1.514170        41.2027 
 182   0.0000       1.521744        41.4088 
 183   0.0000       1.566899        42.6375 
 184   0.0000       1.576537        42.8998 
 185   0.0000       1.576790        42.9066 
 186   0.0000       1.615429        43.9581 
 187   0.0000       1.640306        44.6350 
 188   0.0000       1.656254        45.0690 
 189   0.0000       1.676844        45.6292 
 190   0.0000       1.707747        46.4702 
 191   0.0000       1.717590        46.7380 
 192   0.0000       1.718591        46.7652 
 193   0.0000       1.727311        47.0025 
 194   0.0000       1.733950        47.1832 
 195   0.0000       1.737957        47.2922 
 196   0.0000       1.822601        49.5955 
 197   0.0000       1.889371        51.4124 
 198   0.0000       1.924349        52.3642 
 199   0.0000       1.942948        52.8703 
 200   0.0000       2.004080        54.5338 
 201   0.0000       2.006297        54.5941 
 202   0.0000       2.058908        56.0257 
 203   0.0000       2.086947        56.7887 
 204   0.0000       2.091198        56.9044 
 205   0.0000       2.147680        58.4413 
 206   0.0000       2.202592        59.9356 
 207   0.0000       2.336140        63.5696 
 208   0.0000       2.340860        63.6980 
 209   0.0000       2.363202        64.3060 
 210   0.0000       2.369938        64.4893 
 211   0.0000       2.434595        66.2487 
 212   0.0000       2.477658        67.4205 
 213   0.0000       2.489223        67.7352 
 214   0.0000       2.528301        68.7986 
 215   0.0000       2.564347        69.7794 
 216   0.0000       2.651989        72.1643 
 217   0.0000       2.660629        72.3994 
 218   0.0000       2.686583        73.1057 
 219   0.0000       2.764754        75.2328 
 220   0.0000       2.817014        76.6548 
 221   0.0000       2.900583        78.9289 
 222   0.0000       2.962570        80.6156 
 223   0.0000       3.048377        82.9506 
 224   0.0000       3.052171        83.0538 
 225   0.0000       3.103248        84.4437 
 226   0.0000       3.113270        84.7164 
 227   0.0000       3.150411        85.7270 
 228   0.0000       3.185388        86.6788 
 229   0.0000       3.199472        87.0621 
 230   0.0000       3.276749        89.1649 
 231   0.0000       3.279414        89.2374 
 232   0.0000       3.337098        90.8070 
 233   0.0000       3.346687        91.0680 
 234   0.0000       3.412586        92.8612 
 235   0.0000       3.437481        93.5386 
 236   0.0000       3.456942        94.0682 
 237   0.0000       3.499892        95.2369 
 238   0.0000       3.569481        97.1305 
 239   0.0000       3.607543        98.1662 
 240   0.0000       3.617927        98.4488 
 241   0.0000       3.644045        99.1595 
 242   0.0000       3.664592        99.7186 
 243   0.0000       3.688057       100.3571 
 244   0.0000       3.812995       103.7569 
 245   0.0000       3.817381       103.8762 
 246   0.0000       3.822523       104.0161 
 247   0.0000       3.838492       104.4507 
 248   0.0000       3.883014       105.6622 
 249   0.0000       3.905714       106.2799 
 250   0.0000       3.930799       106.9625 
 251   0.0000       3.934250       107.0564 
 252   0.0000       3.947149       107.4074 
 253   0.0000       4.015528       109.2681 
 254   0.0000       4.034058       109.7723 
 255   0.0000       4.127697       112.3203 
 256   0.0000       4.142163       112.7140 
 257   0.0000       4.190345       114.0251 
 258   0.0000       4.235800       115.2620 
 259   0.0000       4.239267       115.3563 
 260   0.0000       4.323994       117.6619 
 261   0.0000       4.433565       120.6434 
 262   0.0000       4.521288       123.0305 
 263   0.0000       4.533437       123.3611 
 264   0.0000       4.555621       123.9647 
 265   0.0000       4.738788       128.9490 
 266   0.0000       4.744670       129.1090 
 267   0.0000       4.748768       129.2205 
 268   0.0000       4.900424       133.3473 
 269   0.0000       4.920203       133.8855 
 270   0.0000       4.976693       135.4227 
 271   0.0000       5.083360       138.3253 
 272   0.0000       5.206549       141.6774 
 273   0.0000       5.295639       144.1017 
 274   0.0000       5.374722       146.2536 
 275   0.0000       5.416153       147.3810 
 276   0.0000       5.452575       148.3721 
 277   0.0000       5.512725       150.0089 
 278   0.0000       5.538379       150.7069 
 279   0.0000       5.631732       153.2472 
 280   0.0000       5.762356       156.8017 
 281   0.0000       5.796821       157.7395 
 282   0.0000       5.800837       157.8488 
 283   0.0000       5.900713       160.5666 
 284   0.0000       5.903299       160.6369 
 285   0.0000       6.011785       163.5890 
 286   0.0000       6.048296       164.5825 
 287   0.0000       6.159632       167.6121 
 288   0.0000       6.176180       168.0624 
 289   0.0000       6.227402       169.4562 
 290   0.0000       6.349908       172.7898 
 291   0.0000       6.488541       176.5622 
 292   0.0000       6.598077       179.5428 
 293   0.0000       6.813067       185.3930 
 294   0.0000       6.820440       185.5936 
 295   0.0000       6.845355       186.2716 
 296   0.0000       7.098269       193.1537 
 297   0.0000       7.139206       194.2677 
 298   0.0000       7.155993       194.7245 
 299   0.0000       7.216827       196.3798 
 300   0.0000       7.429014       202.1538 
 301   0.0000       7.517175       204.5527 
 302   0.0000       7.656427       208.3420 
 303   0.0000       7.676572       208.8901 
 304   0.0000       7.720925       210.0970 
 305   0.0000       7.873204       214.2408 
 306   0.0000       8.082540       219.9371 
 307   0.0000       8.144821       221.6319 
 308   0.0000       8.342510       227.0112 
 309   0.0000       8.537694       232.3225 
 310   0.0000       8.541386       232.4229 
 311   0.0000       8.599911       234.0155 
 312   0.0000       8.649081       235.3535 
 313   0.0000       8.788924       239.1588 
 314   0.0000       8.804145       239.5730 
 315   0.0000       8.807293       239.6586 
 316   0.0000       8.842396       240.6138 
 317   0.0000       8.843615       240.6470 
 318   0.0000       8.909332       242.4353 
 319   0.0000       8.931995       243.0519 
 320   0.0000       8.953395       243.6343 
 321   0.0000       9.012025       245.2297 
 322   0.0000       9.016638       245.3552 
 323   0.0000       9.126554       248.3462 
 324   0.0000       9.212180       250.6762 
 325   0.0000       9.363539       254.7948 
 326   0.0000       9.574081       260.5240 
 327   0.0000       9.643264       262.4066 
 328   0.0000       9.648779       262.5566 
 329   0.0000       9.710918       264.2475 
 330   0.0000       9.714967       264.3577 
 331   0.0000       9.722818       264.5713 
 332   0.0000       9.748092       265.2591 
 333   0.0000       9.810565       266.9591 
 334   0.0000       9.865413       268.4515 
 335   0.0000       9.868431       268.5337 
 336   0.0000       9.965854       271.1847 
 337   0.0000       9.972603       271.3683 
 338   0.0000      10.067383       273.9474 
 339   0.0000      10.073198       274.1057 
 340   0.0000      10.392432       282.7924 
 341   0.0000      10.412372       283.3351 
 342   0.0000      10.461769       284.6792 
 343   0.0000      10.603253       288.5292 
 344   0.0000      10.739102       292.2258 
 345   0.0000      10.836543       294.8773 
 346   0.0000      11.002492       299.3930 
 347   0.0000      11.063983       301.0663 
 348   0.0000      11.104042       302.1563 
 349   0.0000      11.306062       307.6536 
 350   0.0000      11.368971       309.3654 
 351   0.0000      11.539397       314.0029 
 352   0.0000      11.554820       314.4226 
 353   0.0000      11.711537       318.6871 
 354   0.0000      11.798134       321.0435 
 355   0.0000      12.018876       327.0502 
 356   0.0000      12.031196       327.3855 
 357   0.0000      12.230153       332.7994 
 358   0.0000      12.232780       332.8709 
 359   0.0000      12.341981       335.8424 
 360   0.0000      12.399502       337.4076 
 361   0.0000      12.423075       338.0491 
 362   0.0000      12.447175       338.7049 
 363   0.0000      12.451727       338.8287 
 364   0.0000      12.655023       344.3607 
 365   0.0000      12.656703       344.4064 
 366   0.0000      12.686871       345.2273 
 367   0.0000      12.688456       345.2705 
 368   0.0000      12.703201       345.6717 
 369   0.0000      12.760461       347.2298 
 370   0.0000      12.791842       348.0837 
 371   0.0000      12.834695       349.2498 
 372   0.0000      12.888835       350.7230 
 373   0.0000      12.936560       352.0217 
 374   0.0000      12.972909       353.0108 
 375   0.0000      13.029692       354.5559 
 376   0.0000      13.153433       357.9231 
 377   0.0000      13.300994       361.9384 
 378   0.0000      13.330041       362.7288 
 379   0.0000      13.442377       365.7857 
 380   0.0000      13.811656       375.8343 
 381   0.0000      13.838497       376.5646 
 382   0.0000      13.969703       380.1349 
 383   0.0000      14.131884       384.5481 
 384   0.0000      14.162897       385.3920 
 385   0.0000      14.171659       385.6304 
 386   0.0000      14.354268       390.5995 
 387   0.0000      14.416219       392.2853 
 388   0.0000      14.571512       396.5110 
 389   0.0000      14.629641       398.0928 
 390   0.0000      14.799221       402.7073 
 391   0.0000      14.814707       403.1287 
 392   0.0000      15.013091       408.5270 
 393   0.0000      15.069529       410.0627 
 394   0.0000      15.085229       410.4899 
 395   0.0000      15.371974       418.2927 
 396   0.0000      15.461080       420.7174 
 397   0.0000      15.739521       428.2941 
 398   0.0000      16.126817       438.8330 
 399   0.0000      16.225502       441.5184 
 400   0.0000      16.749741       455.7836 
 401   0.0000      16.757604       455.9976 
 402   0.0000      16.766523       456.2403 
 403   0.0000      16.767288       456.2611 
 404   0.0000      16.879821       459.3233 
 405   0.0000      16.902146       459.9308 
 406   0.0000      16.929407       460.6726 
 407   0.0000      16.982906       462.1284 
 408   0.0000      16.998475       462.5520 
 409   0.0000      17.204304       468.1529 
 410   0.0000      17.687305       481.2960 
 411   0.0000      17.812797       484.7109 
 412   0.0000      17.971168       489.0203 
 413   0.0000      18.007905       490.0200 
 414   0.0000      18.724004       509.5061 
 415   0.0000      19.141066       520.8549 
 416   0.0000      19.241590       523.5903 
 417   0.0000      19.257812       524.0317 
 418   0.0000      19.359729       526.8050 
 419   0.0000      19.758206       537.6481 
 420   0.0000      19.838781       539.8407 
 421   0.0000      20.102078       547.0054 
 422   0.0000      20.102171       547.0079 
 423   0.0000      20.288474       552.0774 
 424   0.0000      20.374503       554.4184 
 425   0.0000      20.402432       555.1784 
 426   0.0000      20.652217       561.9754 
 427   0.0000      20.770530       565.1948 
 428   0.0000      20.998506       571.3984 
 429   0.0000      21.121030       574.7324 
 430   0.0000      22.000822       598.6728 
 431   0.0000      22.004732       598.7792 
 432   0.0000      22.129538       602.1754 
 433   0.0000      22.198899       604.0628 
 434   0.0000      22.511871       612.5791 
 435   0.0000      23.032620       626.7494 
 436   0.0000      23.433137       637.6481 
 437   0.0000      23.443461       637.9290 
 438   0.0000      23.760279       646.5501 
 439   0.0000      23.832008       648.5019 
 440   0.0000      24.755447       673.6300 
 441   0.0000      25.032120       681.1586 
 442   0.0000      30.371313       826.4454 
 443   0.0000      30.477197       829.3267 
 444   0.0000      30.755902       836.9107 
 445   0.0000      31.050974       844.9400 
 446   0.0000      32.001873       870.8152 
 447   0.0000      40.683800      1107.0625 
 448   0.0000      40.882183      1112.4608 
 449   0.0000      41.676223      1134.0677 
 450   0.0000      41.874344      1139.4588 
 451   0.0000      42.067525      1144.7155 
 452   0.0000      44.378917      1207.6117 
 453   0.0000      80.006388      2177.0845 
 454   0.0000      91.019680      2476.7714 
 455   0.0000      91.020466      2476.7928 
 456   0.0000      91.240524      2482.7809 
 457   0.0000      91.271055      2483.6117 
 458   0.0000      91.291952      2484.1803 
 459   0.0000      91.362060      2486.0880 
 460   0.0000      91.538915      2490.9005 
 461   0.0000      91.740734      2496.3923 
 462   0.0000      91.903228      2500.8140 
 463   0.0000      92.134821      2507.1159 
 464   0.0000      92.451120      2515.7229 
 465   0.0000     202.492634      5510.1047 

                    ********************************
                    * MULLIKEN POPULATION ANALYSIS *
                    ********************************

--------------------------------------------
MULLIKEN ATOMIC CHARGES AND SPIN POPULATIONS
--------------------------------------------
   0 B :    0.281934   -0.000000
   1 F :   -0.289331   -0.000000
   2 H :    0.003702    0.000000
   3 H :    0.003695    0.000000
Sum of atomic charges         :    0.0000000
Sum of atomic spin populations:    0.0000000

-----------------------------------------------------
MULLIKEN REDUCED ORBITAL CHARGES AND SPIN POPULATIONS
-----------------------------------------------------
CHARGE
  0 B s       :     3.099432  s :     3.099432
      pz      :     0.624639  p :     1.469731
      px      :     0.132848
      py      :     0.712244
      dz2     :     0.040033  d :     0.123670
      dxz     :     0.019249
      dyz     :     0.052480
      dx2y2   :     0.011909
      dxy     :    -0.000000
      f0      :     0.006327  f :     0.021485
      f+1     :     0.004854
      f-1     :     0.007133
      f+2     :     0.002415
      f-2     :     0.000000
      f+3     :     0.000001
      f-3     :     0.000755
      g0      :     0.001488  g :     0.003702
      g+1     :     0.000867
      g-1     :     0.001041
      g+2     :     0.000036
      g-2     :     0.000000
      g+3     :     0.000005
      g-3     :     0.000223
      g+4     :     0.000042
      g-4     :     0.000000
      h0      :     0.000035  h :     0.000045
      h+1     :     0.000028
      h-1     :    -0.000027
      h+2     :     0.000006
      h-2     :     0.000000
      h+3     :    -0.000000
      h-3     :    -0.000002
      h+4     :     0.000005
      h-4     :    -0.000000
      h+5     :     0.000000
      h-5     :     0.000000
  1 F s       :     3.908242  s :     3.908242
      pz      :     1.568498  p :     5.335625
      px      :     1.826179
      py      :     1.940949
      dz2     :     0.005452  d :     0.035286
      dxz     :     0.008285
      dyz     :     0.022072
      dx2y2   :    -0.000524
      dxy     :     0.000000
      f0      :     0.000499  f :     0.008087
      f+1     :     0.000943
      f-1     :     0.006821
      f+2     :    -0.000132
      f-2     :     0.000000
      f+3     :     0.000001
      f-3     :    -0.000045
      g0      :     0.000074  g :     0.001789
      g+1     :     0.000089
      g-1     :     0.001710
      g+2     :    -0.000017
      g-2     :    -0.000000
      g+3     :    -0.000004
      g-3     :    -0.000063
      g+4     :     0.000000
      g-4     :     0.000000
      h0      :     0.000013  h :     0.000302
      h+1     :     0.000012
      h-1     :     0.000294
      h+2     :     0.000004
      h-2     :    -0.000000
      h+3     :    -0.000001
      h-3     :    -0.000020
      h+4     :     0.000000
      h-4     :    -0.000000
      h+5     :    -0.000000
      h-5     :    -0.000000
  2 H s       :     0.988767  s :     0.988767
      pz      :     0.012624  p :     0.015451
      px      :     0.004544
      py      :    -0.001717
      dz2     :    -0.006301  d :    -0.005371
      dxz     :     0.000496
      dyz     :     0.001906
      dx2y2   :    -0.001347
      dxy     :    -0.000126
      f0      :     0.000209  f :    -0.002003
      f+1     :    -0.000208
      f-1     :    -0.000833
      f+2     :     0.000192
      f-2     :    -0.000731
      f+3     :    -0.000300
      f-3     :    -0.000331
      g0      :    -0.000131  g :    -0.000546
      g+1     :     0.000018
      g-1     :     0.000105
      g+2     :    -0.000090
      g-2     :    -0.000189
      g+3     :    -0.000145
      g-3     :    -0.000006
      g+4     :    -0.000071
      g-4     :    -0.000038
  3 H s       :     0.988772  s :     0.988772
      pz      :     0.012625  p :     0.015452
      px      :     0.004544
      py      :    -0.001716
      dz2     :    -0.006301  d :    -0.005370
      dxz     :     0.000496
      dyz     :     0.001906
      dx2y2   :    -0.001346
      dxy     :    -0.000126
      f0      :     0.000209  f :    -0.002002
      f+1     :    -0.000208
      f-1     :    -0.000833
      f+2     :     0.000192
      f-2     :    -0.000731
      f+3     :    -0.000300
      f-3     :    -0.000331
      g0      :    -0.000131  g :    -0.000546
      g+1     :     0.000018
      g-1     :     0.000105
      g+2     :    -0.000090
      g-2     :    -0.000189
      g+3     :    -0.000145
      g-3     :    -0.000006
      g+4     :    -0.000071
      g-4     :    -0.000038

SPIN
  0 B s       :    -0.000000  s :    -0.000000
      pz      :     0.000000  p :     0.000000
      px      :     0.000000
      py      :    -0.000000
      dz2     :     0.000000  d :     0.000000
      dxz     :    -0.000000
      dyz     :    -0.000000
      dx2y2   :     0.000000
      dxy     :    -0.000000
      f0      :     0.000000  f :     0.000000
      f+1     :    -0.000000
      f-1     :     0.000000
      f+2     :    -0.000000
      f-2     :     0.000000
      f+3     :     0.000000
      f-3     :     0.000000
      g0      :     0.000000  g :     0.000000
      g+1     :    -0.000000
      g-1     :     0.000000
      g+2     :    -0.000000
      g-2     :     0.000000
      g+3     :    -0.000000
      g-3     :     0.000000
      g+4     :    -0.000000
      g-4     :     0.000000
      h0      :    -0.000000  h :    -0.000000
      h+1     :     0.000000
      h-1     :    -0.000000
      h+2     :     0.000000
      h-2     :     0.000000
      h+3     :     0.000000
      h-3     :     0.000000
      h+4     :     0.000000
      h-4     :    -0.000000
      h+5     :     0.000000
      h-5     :    -0.000000
  1 F s       :    -0.000000  s :    -0.000000
      pz      :    -0.000000  p :    -0.000000
      px      :    -0.000000
      py      :     0.000000
      dz2     :    -0.000000  d :    -0.000000
      dxz     :    -0.000000
      dyz     :     0.000000
      dx2y2   :    -0.000000
      dxy     :    -0.000000
      f0      :    -0.000000  f :    -0.000000
      f+1     :    -0.000000
      f-1     :    -0.000000
      f+2     :    -0.000000
      f-2     :    -0.000000
      f+3     :     0.000000
      f-3     :    -0.000000
      g0      :    -0.000000  g :    -0.000000
      g+1     :    -0.000000
      g-1     :     0.000000
      g+2     :    -0.000000
      g-2     :    -0.000000
      g+3     :    -0.000000
      g-3     :    -0.000000
      g+4     :    -0.000000
      g-4     :    -0.000000
      h0      :    -0.000000  h :    -0.000000
      h+1     :    -0.000000
      h-1     :     0.000000
      h+2     :    -0.000000
      h-2     :    -0.000000
      h+3     :    -0.000000
      h-3     :    -0.000000
      h+4     :     0.000000
      h-4     :    -0.000000
      h+5     :    -0.000000
      h-5     :     0.000000
  2 H s       :     0.000000  s :     0.000000
      pz      :     0.000000  p :     0.000000
      px      :    -0.000000
      py      :    -0.000000
      dz2     :    -0.000000  d :     0.000000
      dxz     :    -0.000000
      dyz     :     0.000000
      dx2y2   :     0.000000
      dxy     :     0.000000
      f0      :    -0.000000  f :     0.000000
      f+1     :     0.000000
      f-1     :    -0.000000
      f+2     :     0.000000
      f-2     :    -0.000000
      f+3     :     0.000000
      f-3     :     0.000000
      g0      :    -0.000000  g :    -0.000000
      g+1     :     0.000000
      g-1     :    -0.000000
      g+2     :    -0.000000
      g-2     :    -0.000000
      g+3     :    -0.000000
      g-3     :     0.000000
      g+4     :     0.000000
      g-4     :    -0.000000
  3 H s       :     0.000000  s :     0.000000
      pz      :     0.000000  p :     0.000000
      px      :    -0.000000
      py      :     0.000000
      dz2     :     0.000000  d :    -0.000000
      dxz     :     0.000000
      dyz     :     0.000000
      dx2y2   :    -0.000000
      dxy     :    -0.000000
      f0      :    -0.000000  f :    -0.000000
      f+1     :     0.000000
      f-1     :     0.000000
      f+2     :    -0.000000
      f-2     :     0.000000
      f+3     :    -0.000000
      f-3     :    -0.000000
      g0      :    -0.000000  g :    -0.000000
      g+1     :    -0.000000
      g-1     :    -0.000000
      g+2     :     0.000000
      g-2     :     0.000000
      g+3     :     0.000000
      g-3     :    -0.000000
      g+4     :    -0.000000
      g-4     :    -0.000000


                     *******************************
                     * LOEWDIN POPULATION ANALYSIS *
                     *******************************

-------------------------------------------
LOEWDIN ATOMIC CHARGES AND SPIN POPULATIONS
-------------------------------------------
   0 B :    0.199423   -0.000000
   1 F :    0.448825   -0.000000
   2 H :   -0.324124    0.000000
   3 H :   -0.324124    0.000000

----------------------------------------------------
LOEWDIN REDUCED ORBITAL CHARGES AND SPIN POPULATIONS
----------------------------------------------------
CHARGE
  0 B s       :     2.423632  s :     2.423632
      pz      :     0.593755  p :     1.475114
      px      :     0.149336
      py      :     0.732022
      dz2     :     0.212852  d :     0.572477
      dxz     :     0.100975
      dyz     :     0.235836
      dx2y2   :     0.022814
      dxy     :     0.000000
      f0      :     0.089569  f :     0.247707
      f+1     :     0.064827
      f-1     :     0.080898
      f+2     :     0.006409
      f-2     :     0.000000
      f+3     :     0.000105
      f-3     :     0.005900
      g0      :     0.022237  g :     0.077054
      g+1     :     0.024221
      g-1     :     0.028216
      g+2     :     0.000080
      g-2     :     0.000000
      g+3     :     0.000010
      g-3     :     0.001765
      g+4     :     0.000525
      g-4     :     0.000000
      h0      :     0.001758  h :     0.004593
      h+1     :     0.001310
      h-1     :     0.001146
      h+2     :     0.000189
      h-2     :     0.000000
      h+3     :     0.000068
      h-3     :     0.000025
      h+4     :     0.000043
      h-4     :     0.000000
      h+5     :     0.000002
      h-5     :     0.000053
  1 F s       :     3.316969  s :     3.316969
      pz      :     1.675366  p :     4.828652
      px      :     1.505269
      py      :     1.648017
      dz2     :     0.081963  d :     0.214520
      dxz     :     0.004495
      dyz     :     0.127322
      dx2y2   :     0.000739
      dxy     :     0.000000
      f0      :     0.027587  f :     0.117411
      f+1     :     0.003889
      f-1     :     0.082445
      f+2     :     0.003289
      f-2     :     0.000000
      f+3     :     0.000004
      f-3     :     0.000196
      g0      :     0.005519  g :     0.052209
      g+1     :     0.001359
      g-1     :     0.040502
      g+2     :     0.004024
      g-2     :     0.000000
      g+3     :     0.000007
      g-3     :     0.000719
      g+4     :     0.000080
      g-4     :     0.000000
      h0      :     0.003047  h :     0.021416
      h+1     :     0.000199
      h-1     :     0.013528
      h+2     :     0.003008
      h-2     :     0.000000
      h+3     :     0.000019
      h-3     :     0.001490
      h+4     :     0.000115
      h-4     :     0.000000
      h+5     :     0.000002
      h-5     :     0.000007
  2 H s       :     0.778636  s :     0.778636
      pz      :     0.047298  p :     0.193968
      px      :     0.012900
      py      :     0.133769
      dz2     :     0.043079  d :     0.155623
      dxz     :     0.010944
      dyz     :     0.041875
      dx2y2   :     0.050204
      dxy     :     0.009521
      f0      :     0.019266  f :     0.109376
      f+1     :     0.006499
      f-1     :     0.038280
      f+2     :     0.014001
      f-2     :     0.010586
      f+3     :     0.002597
      f-3     :     0.018146
      g0      :     0.016768  g :     0.086520
      g+1     :     0.003772
      g-1     :     0.021290
      g+2     :     0.019433
      g-2     :     0.009575
      g+3     :     0.005034
      g-3     :     0.004240
      g+4     :     0.005886
      g-4     :     0.000522
  3 H s       :     0.778636  s :     0.778636
      pz      :     0.047298  p :     0.193968
      px      :     0.012900
      py      :     0.133769
      dz2     :     0.043079  d :     0.155623
      dxz     :     0.010944
      dyz     :     0.041875
      dx2y2   :     0.050204
      dxy     :     0.009521
      f0      :     0.019266  f :     0.109376
      f+1     :     0.006499
      f-1     :     0.038280
      f+2     :     0.014001
      f-2     :     0.010586
      f+3     :     0.002597
      f-3     :     0.018146
      g0      :     0.016768  g :     0.086520
      g+1     :     0.003772
      g-1     :     0.021290
      g+2     :     0.019433
      g-2     :     0.009575
      g+3     :     0.005034
      g-3     :     0.004240
      g+4     :     0.005886
      g-4     :     0.000522

SPIN
  0 B s       :     0.000000  s :     0.000000
      pz      :    -0.000000  p :    -0.000000
      px      :     0.000000
      py      :    -0.000000
      dz2     :     0.000000  d :    -0.000000
      dxz     :    -0.000000
      dyz     :    -0.000000
      dx2y2   :    -0.000000
      dxy     :     0.000000
      f0      :    -0.000000  f :    -0.000000
      f+1     :    -0.000000
      f-1     :     0.000000
      f+2     :    -0.000000
      f-2     :     0.000000
      f+3     :    -0.000000
      f-3     :     0.000000
      g0      :    -0.000000  g :    -0.000000
      g+1     :    -0.000000
      g-1     :     0.000000
      g+2     :     0.000000
      g-2     :     0.000000
      g+3     :    -0.000000
      g-3     :     0.000000
      g+4     :    -0.000000
      g-4     :    -0.000000
      h0      :    -0.000000  h :    -0.000000
      h+1     :     0.000000
      h-1     :    -0.000000
      h+2     :     0.000000
      h-2     :     0.000000
      h+3     :    -0.000000
      h-3     :     0.000000
      h+4     :     0.000000
      h-4     :     0.000000
      h+5     :     0.000000
      h-5     :    -0.000000
  1 F s       :    -0.000000  s :    -0.000000
      pz      :     0.000000  p :     0.000000
      px      :    -0.000000
      py      :    -0.000000
      dz2     :    -0.000000  d :    -0.000000
      dxz     :     0.000000
      dyz     :     0.000000
      dx2y2   :    -0.000000
      dxy     :     0.000000
      f0      :    -0.000000  f :    -0.000000
      f+1     :    -0.000000
      f-1     :    -0.000000
      f+2     :     0.000000
      f-2     :     0.000000
      f+3     :    -0.000000
      f-3     :     0.000000
      g0      :    -0.000000  g :    -0.000000
      g+1     :    -0.000000
      g-1     :     0.000000
      g+2     :    -0.000000
      g-2     :     0.000000
      g+3     :     0.000000
      g-3     :    -0.000000
      g+4     :     0.000000
      g-4     :     0.000000
      h0      :     0.000000  h :    -0.000000
      h+1     :     0.000000
      h-1     :    -0.000000
      h+2     :    -0.000000
      h-2     :     0.000000
      h+3     :    -0.000000
      h-3     :    -0.000000
      h+4     :     0.000000
      h-4     :     0.000000
      h+5     :     0.000000
      h-5     :     0.000000
  2 H s       :     0.000000  s :     0.000000
      pz      :    -0.000000  p :     0.000000
      px      :     0.000000
      py      :     0.000000
      dz2     :    -0.000000  d :     0.000000
      dxz     :    -0.000000
      dyz     :    -0.000000
      dx2y2   :     0.000000
      dxy     :     0.000000
      f0      :     0.000000  f :     0.000000
      f+1     :    -0.000000
      f-1     :     0.000000
      f+2     :     0.000000
      f-2     :     0.000000
      f+3     :     0.000000
      f-3     :    -0.000000
      g0      :    -0.000000  g :    -0.000000
      g+1     :    -0.000000
      g-1     :    -0.000000
      g+2     :    -0.000000
      g-2     :     0.000000
      g+3     :    -0.000000
      g-3     :     0.000000
      g+4     :    -0.000000
      g-4     :    -0.000000
  3 H s       :    -0.000000  s :    -0.000000
      pz      :    -0.000000  p :     0.000000
      px      :     0.000000
      py      :     0.000000
      dz2     :    -0.000000  d :    -0.000000
      dxz     :     0.000000
      dyz     :     0.000000
      dx2y2   :    -0.000000
      dxy     :     0.000000
      f0      :     0.000000  f :     0.000000
      f+1     :     0.000000
      f-1     :     0.000000
      f+2     :    -0.000000
      f-2     :     0.000000
      f+3     :     0.000000
      f-3     :    -0.000000
      g0      :    -0.000000  g :    -0.000000
      g+1     :    -0.000000
      g-1     :    -0.000000
      g+2     :     0.000000
      g-2     :     0.000000
      g+3     :    -0.000000
      g-3     :     0.000000
      g+4     :     0.000000
      g-4     :    -0.000000


                      *****************************
                      * MAYER POPULATION ANALYSIS *
                      *****************************

  NA   - Mulliken gross atomic population
  ZA   - Total nuclear charge
  QA   - Mulliken gross atomic charge
  VA   - Mayer's total valence
  BVA  - Mayer's bonded valence
  FA   - Mayer's free valence

  ATOM       NA         ZA         QA         VA         BVA        FA
  0 B      4.7181     5.0000     0.2819     3.0803     3.0803     0.0000
  1 F      9.2893     9.0000    -0.2893     1.4096     1.4096     0.0000
  2 H      0.9963     1.0000     0.0037     0.9202     0.9202     0.0000
  3 H      0.9963     1.0000     0.0037     0.9202     0.9202     0.0000

  Mayer bond orders larger than 0.1
B(  0-B ,  1-F ) :   1.2720 B(  0-B ,  2-H ) :   0.9041 B(  0-B ,  3-H ) :   0.9041 


-------
TIMINGS
-------

Total SCF time: 0 days 0 hours 24 min 51 sec 

Total time                  ....    1491.523 sec
Sum of individual times     ....    1490.392 sec  ( 99.9%)

Fock matrix formation       ....    1484.768 sec  ( 99.5%)
  XC integration            ....      25.161 sec  (  1.7% of F)
    Basis function eval.    ....       1.447 sec  (  5.8% of XC)
    Density eval.           ....       6.126 sec  ( 24.3% of XC)
    XC-Functional eval.     ....       0.179 sec  (  0.7% of XC)
    XC-Potential eval.      ....      16.751 sec  ( 66.6% of XC)
Diagonalization             ....       2.492 sec  (  0.2%)
Density matrix formation    ....       0.041 sec  (  0.0%)
Population analysis         ....       0.197 sec  (  0.0%)
Initial guess               ....       1.232 sec  (  0.1%)
Orbital Transformation      ....       0.000 sec  (  0.0%)
Orbital Orthonormalization  ....       0.000 sec  (  0.0%)
DIIS solution               ....       1.221 sec  (  0.1%)
Grid generation             ....       0.442 sec  (  0.0%)

-------------------------   --------------------
FINAL SINGLE POINT ENERGY      -125.841476426524
-------------------------   --------------------


                            ***************************************
                            *     ORCA property calculations      *
                            ***************************************

                                    ---------------------
                                    Active property flags
                                    ---------------------
   (+) Dipole Moment
   (+) Polarizability


------------------------------------------------------------------------------
                       ORCA ELECTRIC PROPERTIES CALCULATION
------------------------------------------------------------------------------

Dipole Moment Calculation                       ... on
Quadrupole Moment Calculation                   ... off
Polarizability Calculation                      ... Analytic (CP-SCF)
GBWName                                         ... bh2f_pbe.gbw
Electron density file                           ... bh2f_pbe.scfp.tmp
The origin for moment calculation is the CENTER OF MASS  = ( 0.000000,  0.000000  1.417589)

-------------
DIPOLE MOMENT
-------------
                                X             Y             Z
Electronic contribution:     -0.00000       0.00000       2.16869
Nuclear contribution   :      0.00000       0.00000      -2.40939
                        -----------------------------------------
Total Dipole Moment    :     -0.00000       0.00000      -0.24070
                        -----------------------------------------
Magnitude (a.u.)       :      0.24070
Magnitude (Debye)      :      0.61180



--------------------
Rotational spectrum 
--------------------
 
Rotational constants in cm-1:     7.443490     1.080369     0.943436 
Rotational constants in MHz : 223150.205883 32388.645097 28283.498944 

 Dipole components along the rotational axes: 
x,y,z [a.u.] :    -0.240697     0.000000    -0.000000 
x,y,z [Debye]:    -0.611804     0.000000    -0.000000 

 
Transforming and storing MO dipole integrals   ... done

                ... starting polarizability calculation

Opening the Dipole integral file               ... (bh2f_pbe.dmo.tmp) done
Reading Dipole-MO integrals                    ... done
Solving CP-SCF equations                       ... 

           ************************************************************
           *        Program running with 4 parallel MPI-processes     *
           *              working on a common directory               *
           ************************************************************

------------------------------------------------------------------------------
                           ORCA CP-SCF CALCULATION
------------------------------------------------------------------------------

Input orbitals are from        ... bh2f_pbe.gbw
Input Perturbation             ... bh2f_pbe.cpv.tmp
Wavefunction output            ... bh2f_pbe.cpu.tmp
Perturbation mode              ... Real perturbation (singlet)
Solver                         ... POPLE
Max. number of iterations      ... 200
Convergence tolerance          ... 1.000e-06
Integral handling              ... Direct
Number of perturbations        ... 3
Number of operators            ... 2
Orbital ranges used for CP-SCF:
 Operator 0:  Orbitals   0...  7  to   8...465
 Operator 1:  Orbitals   0...  7  to   8...465
DFT calculation                         ... on
Exchange functional (SCF)               ... PBE
Exchange functional (CP-SCF)            ... PBE
   PBE kappa parameter  XKappa (SCF)    ...  0.804000
   PBE kappa parameter  XKappa (CP-SCF) ...  0.804000
   PBE mue parameter   XMuePBE (SCF)    ...  0.219520
   PBE mue parameter   XMuePBE (CP-SCF) ...  0.219520
Correlation functional (SCF)            ... PBE
Correlation functional (CP-SCF)         ... PBE
   PBE beta parameter CBetaPBE (SCF)    ...  0.066725
   PBE beta parameter CBetaPBE (CP-SCF) ...  0.066725
 LDA part of GGA corr.  LDAOpt (SCF)    ... PW91-LDA
 LDA part of GGA corr.  LDAOpt (CP-SCF) ... PW91-LDA
Variables per vector in CP-SCF ... 7328
Number of vectors sought       ... 3
Recalculating density on grid  ... done
Calculating the xc-kernel      ... done
     CP-SCF ITERATION   0: 
     CP-SCF ITERATION   1:      0.102760292506
     CP-SCF ITERATION   2:      0.001565203661
     CP-SCF ITERATION   3:      0.000122283781
     CP-SCF ITERATION   4:      0.000000714609
done
Reading CP-SCF coefficients                    ... done
Doing the polarizability tensor   ... done
Cleaning up                                    ... done

-------------------------
THE POLARIZABILITY TENSOR
-------------------------

The raw cartesian tensor (atomic units):
   15.18991     -0.00000      0.00000  
   -0.00000     19.41738     -0.00000  
    0.00000     -0.00000     19.27815  
diagonalized tensor: 
   15.18991     19.27815     19.41738  

    1.00000     -0.00000     -0.00000  
    0.00000     -0.00000      1.00000  
   -0.00000     -1.00000     -0.00000  

Isotropic polarizability :  17.96181


Timings for individual modules:

Sum of individual times         ...     2490.560 sec (=  41.509 min)
GTO integral calculation        ...        2.438 sec (=   0.041 min)   0.1 %
SCF iterations                  ...     1491.874 sec (=  24.865 min)  59.9 %
Solution of CP-SCF eqns.        ...      996.248 sec (=  16.604 min)  40.0 %
                             ****ORCA TERMINATED NORMALLY****
TOTAL RUN TIME: 0 days 0 hours 41 minutes 31 seconds 585 msec
