
                                 *****************
                                 * O   R   C   A *
                                 *****************

           --- An Ab Initio, DFT and Semiempirical electronic structure package ---

                  #######################################################
                  #                        -***-                        #
                  #          Department of theory and spectroscopy      #
                  #               Directorship: Frank Neese             #
                  #        Max Planck Institute fuer Kohlenforschung    #
                  #                Kaiser Wilhelm Platz 1               #
                  #                 D-45470 Muelheim/Ruhr               #
                  #                      Germany                        #
                  #                                                     #
                  #                  All rights reserved                #
                  #                        -***-                        #
                  #######################################################


                         Program Version 4.1.2  - RELEASE  -


 With contributions from (in alphabetic order):
   Daniel Aravena         : Magnetic Properties
   Michael Atanasov       : Ab Initio Ligand Field Theory
   Alexander A. Auer      : GIAO ZORA
   Ute Becker             : Parallelization
   Giovanni Bistoni       : ED, Open-shell LED
   Martin Brehm           : Molecular dynamics
   Dmytro Bykov           : SCF Hessian
   Vijay G. Chilkuri      : MRCI spin determinant printing
   Dipayan Datta          : RHF DLPNO-CCSD density
   Achintya Kumar Dutta   : EOM-CC, STEOM-CC
   Dmitry Ganyushin       : Spin-Orbit,Spin-Spin,Magnetic field MRCI
   Miquel Garcia          : C-PCM Hessian
   Yang Guo               : DLPNO-NEVPT2, CIM, IAO-localization
   Andreas Hansen         : Spin unrestricted coupled pair/coupled cluster methods
   Benjamin Helmich-Paris : CASSCF linear response (MC-RPA)
   Lee Huntington         : MR-EOM, pCC
   Robert Izsak           : Overlap fitted RIJCOSX, COSX-SCS-MP3, EOM
   Christian Kollmar      : KDIIS, OOCD, Brueckner-CCSD(T), CCSD density
   Simone Kossmann        : Meta GGA functionals, TD-DFT gradient, OOMP2, MP2 Hessian
   Martin Krupicka        : AUTO-CI
   Lucas Lang             : DCDCAS
   Dagmar Lenk            : GEPOL surface, SMD
   Dimitrios Liakos       : Extrapolation schemes; parallel MDCI
   Dimitrios Manganas     : ROCIS; embedding schemes
   Dimitrios Pantazis     : SARC Basis sets
   Taras Petrenko         : DFT Hessian,TD-DFT gradient, ASA, ECA, R-Raman, ABS, FL, XAS/XES, NRVS
   Peter Pinski           : DLPNO-MP2, DLPNO-MP2 Gradient
   Christoph Reimann      : Effective Core Potentials
   Marius Retegan         : Local ZFS, SOC
   Christoph Riplinger    : Optimizer, TS searches, QM/MM, DLPNO-CCSD(T), (RO)-DLPNO pert. Triples
   Tobias Risthaus        : Range-separated hybrids, TD-DFT gradient, RPA, STAB
   Michael Roemelt        : Restricted open shell CIS
   Masaaki Saitow         : Open-shell DLPNO
   Barbara Sandhoefer     : DKH picture change effects
   Avijit Sen             : IP-ROCIS
   Kantharuban Sivalingam : CASSCF convergence, NEVPT2, FIC-MRCI
   Bernardo de Souza      : ESD, SOC TD-DFT
   Georgi Stoychev        : AutoAux, RI-MP2 NMR
   Willem Van den Heuvel  : Paramagnetic NMR
   Boris Wezisla          : Elementary symmetry handling
   Frank Wennmohs         : Technical directorship


 We gratefully acknowledge several colleagues who have allowed us to
 interface, adapt or use parts of their codes:
   Stefan Grimme, W. Hujo, H. Kruse,             : VdW corrections, initial TS optimization,
                  C. Bannwarth                     DFT functionals, gCP, sTDA/sTD-DF
   Ed Valeev                                     : LibInt (2-el integral package), F12 methods
   Garnet Chan, S. Sharma, J. Yang, R. Olivares  : DMRG
   Ulf Ekstrom                                   : XCFun DFT Library
   Mihaly Kallay                                 : mrcc  (arbitrary order and MRCC methods)
   Andreas Klamt, Michael Diedenhofen            : otool_cosmo (COSMO solvation model)
   Jiri Pittner, Ondrej Demel                    : Mk-CCSD
   Frank Weinhold                                : gennbo (NPA and NBO analysis)
   Christopher J. Cramer and Donald G. Truhlar   : smd solvation model
   Lars Goerigk                                  : TD-DFT with DH, B97 family of functionals
   V. Asgeirsson, H. Jonsson                     : NEB implementation
   FAccTs GmbH                                   : IRC, NEB, NEB-TS, Multilevel


 Your calculation uses the libint2 library for the computation of 2-el integrals
 For citations please refer to: http://libint.valeyev.net

 This ORCA versions uses:
   CBLAS   interface :  Fast vector & matrix operations
   LAPACKE interface :  Fast linear algebra routines
   SCALAPACK package :  Parallel linear algebra routines


----- Orbital basis set information -----
Your calculation utilizes the basis: aug-pc-4
   H, C-F              : F. Jensen, J. Chem. Phys. 115, 9113 (2001).
                         F. Jensen, J. Chem. Phys. 116, 7372 (2002).
                         F. Jensen, J. Chem. Phys. 117, 9234 (2002).
   Si-Cl               : F. Jensen, T. Helgaker, J. Chem. Phys. 121, 3463 (2004).
   He-B, Ne-Mg, Al, Ar : F. Jensen, J. Phys. Chem. A 111, 11198 (2007).
   K, Ca, Ga-Kr        : F. Jensen, J. Chem. Phys. 136, 094110 (2012).
   Sc-Zn               : F. Jensen, J. Chem. Phys. 138, 014107 (2013).

================================================================================
                                        WARNINGS
                       Please study these warnings very carefully!
================================================================================


INFO   : the flag for use of LIBINT has been found!

================================================================================
                                       INPUT FILE
================================================================================
NAME = bn_pbe.inp
|  1> !uks pbe nori aug-pc-4 grid5 nofinalgrid verytightscf
|  2> 
|  3> %maxcore 1500
|  4> 
|  5> %pal nprocs 4 end
|  6> 
|  7> %scf
|  8> 	maxiter 200
|  9> end
| 10> %elprop
| 11> 	dipole true
| 12> 	 polar 1
| 13> 	 maxiter 200
| 14> end
| 15> 
| 16> * xyz 0 3
| 17> B 0.0000 0.0000 0.0000
| 18> N 0.0000 0.0000 1.3250
| 19> *
| 20> 
| 21>                          ****END OF INPUT****
================================================================================

                       ****************************
                       * Single Point Calculation *
                       ****************************

---------------------------------
CARTESIAN COORDINATES (ANGSTROEM)
---------------------------------
  B      0.000000    0.000000    0.000000
  N      0.000000    0.000000    1.325000

----------------------------
CARTESIAN COORDINATES (A.U.)
----------------------------
  NO LB      ZA    FRAG     MASS         X           Y           Z
   0 B     5.0000    0    10.810    0.000000    0.000000    0.000000
   1 N     7.0000    0    14.007    0.000000    0.000000    2.503887

--------------------------------
INTERNAL COORDINATES (ANGSTROEM)
--------------------------------
 B      0   0   0     0.000000000000     0.00000000     0.00000000
 N      1   0   0     1.325000000000     0.00000000     0.00000000

---------------------------
INTERNAL COORDINATES (A.U.)
---------------------------
 B      0   0   0     0.000000000000     0.00000000     0.00000000
 N      1   0   0     2.503887127446     0.00000000     0.00000000

---------------------
BASIS SET INFORMATION
---------------------
There are 2 groups of distinct atoms

 Group   1 Type B   : 27s12p7d4f3g2h contracted to 9s8p7d4f3g2h pattern {1191111111/51111111/1111111/1111/111/11}
 Group   2 Type N   : 27s12p7d4f3g2h contracted to 9s8p7d4f3g2h pattern {1191111111/51111111/1111111/1111/111/11}

Atom   0B    basis set group =>   1
Atom   1N    basis set group =>   2


           ************************************************************
           *        Program running with 4 parallel MPI-processes     *
           *              working on a common directory               *
           ************************************************************
------------------------------------------------------------------------------
                           ORCA GTO INTEGRAL CALCULATION
------------------------------------------------------------------------------

                         BASIS SET STATISTICS AND STARTUP INFO

 # of primitive gaussian shells          ...  110
 # of primitive gaussian functions       ...  350
 # of contracted shells                  ...   66
 # of contracted basis functions         ...  290
 Highest angular momentum                ...    5
 Maximum contraction depth               ...   11
 Integral package used                   ... LIBINT
 Integral threshhold            Thresh   ...  1.000e-12
 Primitive cut-off              TCut     ...  1.000e-14


------------------------------ INTEGRAL EVALUATION ----------------------------


 * One electron integrals 
 Pre-screening matrix                    ... done
 Shell pair data                         ... done (   0.001 sec)



           ************************************************************
           *        Program running with 4 parallel MPI-processes     *
           *              working on a common directory               *
           ************************************************************
-------------------------------------------------------------------------------
                                 ORCA SCF
-------------------------------------------------------------------------------

------------
SCF SETTINGS
------------
Hamiltonian:
 Density Functional     Method          .... DFT(GTOs)
 Exchange Functional    Exchange        .... PBE
   PBE kappa parameter   XKappa         ....  0.804000
   PBE mue parameter    XMuePBE         ....  0.219520
 Correlation Functional Correlation     .... PBE
   PBE beta parameter  CBetaPBE         ....  0.066725
 LDA part of GGA corr.  LDAOpt          .... PW91-LDA
 Gradients option       PostSCFGGA      .... off
   Density functional embedding theory  .... OFF
   NL short-range parameter             ....  6.400000


General Settings:
 Integral files         IntName         .... bn_pbe
 Hartree-Fock type      HFTyp           .... UHF
 Total Charge           Charge          ....    0
 Multiplicity           Mult            ....    3
 Number of Electrons    NEL             ....   12
 Basis Dimension        Dim             ....  290
 Nuclear Repulsion      ENuc            ....     13.9782658796 Eh

Convergence Acceleration:
 DIIS                   CNVDIIS         .... on
   Start iteration      DIISMaxIt       ....    12
   Startup error        DIISStart       ....  0.200000
   # of expansion vecs  DIISMaxEq       ....     5
   Bias factor          DIISBfac        ....   1.050
   Max. coefficient     DIISMaxC        ....  10.000
 Newton-Raphson         CNVNR           .... off
 SOSCF                  CNVSOSCF        .... off
 Level Shifting         CNVShift        .... on
   Level shift para.    LevelShift      ....    0.2500
   Turn off err/grad.   ShiftErr        ....    0.0010
 Zerner damping         CNVZerner       .... off
 Static damping         CNVDamp         .... on
   Fraction old density DampFac         ....    0.7000
   Max. Damping (<1)    DampMax         ....    0.9800
   Min. Damping (>=0)   DampMin         ....    0.0000
   Turn off err/grad.   DampErr         ....    0.1000
 Fernandez-Rico         CNVRico         .... off

SCF Procedure:
 Maximum # iterations   MaxIter         ....   200
 SCF integral mode      SCFMode         .... Direct
   Integral package                     .... LIBINT
 Reset frequency        DirectResetFreq ....    20
 Integral Threshold     Thresh          ....  1.000e-12 Eh
 Primitive CutOff       TCut            ....  1.000e-14 Eh

Convergence Tolerance:
 Convergence Check Mode ConvCheckMode   .... Total+1el-Energy
 Convergence forced     ConvForced      .... 0
 Energy Change          TolE            ....  1.000e-09 Eh
 1-El. energy change                    ....  1.000e-06 Eh
 DIIS Error             TolErr          ....  1.000e-08


Diagonalization of the overlap matrix:
Smallest eigenvalue                        ... 1.822e-06
Time for diagonalization                   ...    0.017 sec
Threshold for overlap eigenvalues          ... 1.000e-08
Number of eigenvalues below threshold      ... 0
Time for construction of square roots      ...    0.014 sec
Total time needed                          ...    0.032 sec

-------------------
DFT GRID GENERATION
-------------------

General Integration Accuracy     IntAcc      ...  5.010
Radial Grid Type                 RadialGrid  ... Gauss-Chebyshev
Angular Grid (max. acc.)         AngularGrid ... Lebedev-434
Angular grid pruning method      GridPruning ... 3 (G Style)
Weight generation scheme         WeightScheme... Becke
Basis function cutoff            BFCut       ...    1.0000e-12
Integration weight cutoff        WCut        ...    1.0000e-14
Grids for H and He will be reduced by one unit

# of grid points (after initial pruning)     ...  21180 (   0.0 sec)
# of grid points (after weights+screening)   ...  21087 (   0.0 sec)
nearest neighbour list constructed           ...    0.0 sec
Grid point re-assignment to atoms done       ...    0.0 sec
Grid point division into batches done        ...    0.2 sec
Reduced shell lists constructed in    0.3 sec

Total number of grid points                  ...    21087
Total number of batches                      ...      330
Average number of points per batch           ...       63
Average number of grid points per atom       ...    10544
Average number of shells per batch           ...    38.64 (58.55%)
Average number of basis functions per batch  ...   176.76 (60.95%)
Average number of large shells per batch     ...    32.98 (85.34%)
Average number of large basis fcns per batch ...   151.05 (85.45%)
Maximum spatial batch extension              ...  23.53, 23.53, 21.88 au
Average spatial batch extension              ...   1.87,  1.89,  1.61 au

Time for grid setup =    0.280 sec

------------------------------
INITIAL GUESS: MODEL POTENTIAL
------------------------------
Loading Hartree-Fock densities                     ... done
Calculating cut-offs                               ... done
Setting up the integral package                    ... done
Initializing the effective Hamiltonian             ... done
Starting the Coulomb interaction                   ... done (   0.0 sec)
Reading the grid                                   ... done
Mapping shells                                     ... done
Starting the XC term evaluation                    ... done (   0.3 sec)
  promolecular density results
     # of electrons  =     11.999998350
     EX              =    -10.158820762
     EC              =     -0.344996361
     EX+EC           =    -10.503817123
Transforming the Hamiltonian                       ... done (   0.0 sec)
Diagonalizing the Hamiltonian                      ... done (   0.0 sec)
Back transforming the eigenvectors                 ... done (   0.0 sec)
Now organizing SCF variables                       ... done
                      ------------------
                      INITIAL GUESS DONE (   0.7 sec)
                      ------------------
--------------
SCF ITERATIONS
--------------
ITER       Energy         Delta-E        Max-DP      RMS-DP      [F,P]     Damp
               ***  Starting incremental Fock matrix formation  ***
  0    -79.2634686957   0.000000000000 0.03039238  0.00026555  0.2503607 0.7000
  1    -79.3108620587  -0.047393362986 0.02207915  0.00017425  0.0619365 0.7000
                               ***Turning on DIIS***
  2    -79.3151435840  -0.004281525324 0.03950962  0.00024288  0.0461849 0.0000
  3    -79.3411276357  -0.025984051708 0.01603822  0.00012157  0.0335673 0.0000
  4    -79.3411489685  -0.000021332757 0.00474910  0.00004066  0.0480980 0.0000
  5    -79.3430293975  -0.001880429017 0.00388950  0.00003484  0.0255213 0.0000
  6    -79.3435686963  -0.000539298752 0.00215466  0.00001807  0.0127317 0.0000
  7    -79.3436992954  -0.000130599098 0.00100408  0.00000840  0.0063917 0.0000
  8    -79.3437347482  -0.000035452853 0.00029351  0.00000300  0.0029036 0.0000
  9    -79.3437429118  -0.000008163630 0.00010833  0.00000124  0.0011215 0.0000
 10    -79.3437444012  -0.000001489328 0.00029101  0.00000193  0.0005351 0.0000
 11    -79.3437450516  -0.000000650417 0.00004410  0.00000049  0.0001435 0.0000
 12    -79.3437451141  -0.000000062522 0.00002245  0.00000017  0.0000285 0.0000
 13    -79.3437451208  -0.000000006690 0.00000873  0.00000009  0.0000071 0.0000
 14    -79.3437451226  -0.000000001844 0.00000486  0.00000005  0.0000046 0.0000
 15    -79.3437451230  -0.000000000392 0.00000117  0.00000001  0.0000013 0.0000
                 **** Energy Check signals convergence ****

               *****************************************************
               *                     SUCCESS                       *
               *           SCF CONVERGED AFTER  16 CYCLES          *
               *****************************************************


----------------
TOTAL SCF ENERGY
----------------

Total Energy       :          -79.34374512 Eh           -2159.05307 eV

Components:
Nuclear Repulsion  :           13.97826588 Eh             380.36795 eV
Electronic Energy  :          -93.32201100 Eh           -2539.42102 eV
One Electron Energy:         -134.34373366 Eh           -3655.67884 eV
Two Electron Energy:           41.02172266 Eh            1116.25782 eV

Virial components:
Potential Energy   :         -158.41802296 Eh           -4310.77356 eV
Kinetic Energy     :           79.07427784 Eh            2151.72049 eV
Virial Ratio       :            2.00340777


DFT components:
N(Alpha)           :        7.000000389438 electrons
N(Beta)            :        5.000000472805 electrons
N(Total)           :       12.000000862243 electrons
E(X)               :      -10.367405474109 Eh       
E(C)               :       -0.341324136501 Eh       
E(XC)              :      -10.708729610610 Eh       
DFET-embed. en.    :        0.000000000000 Eh       

---------------
SCF CONVERGENCE
---------------

  Last Energy change         ...   -2.7100e-11  Tolerance :   1.0000e-09
  Last MAX-Density change    ...    1.0434e-06  Tolerance :   1.0000e-08
  Last RMS-Density change    ...    1.1658e-08  Tolerance :   1.0000e-09
  Last DIIS Error            ...    1.7834e-07  Tolerance :   1.0000e-08

             **** THE GBW FILE WAS UPDATED (bn_pbe.gbw) ****
             **** DENSITY FILE WAS UPDATED (bn_pbe.scfp.tmp) ****
             **** ENERGY FILE WAS UPDATED (bn_pbe.en.tmp) ****
----------------------
UHF SPIN CONTAMINATION
----------------------

Warning: in a DFT calculation there is little theoretical justification to 
         calculate <S**2> as in Hartree-Fock theory. We will do it anyways
         but you should keep in mind that the values have only limited relevance

Expectation value of <S**2>     :     2.004034
Ideal value S*(S+1) for S=1.0   :     2.000000
Deviation                       :     0.004034

----------------
ORBITAL ENERGIES
----------------
                 SPIN UP ORBITALS
  NO   OCC          E(Eh)            E(eV) 
   0   1.0000     -14.042699      -382.1213 
   1   1.0000      -6.604818      -179.7262 
   2   1.0000      -0.772803       -21.0290 
   3   1.0000      -0.363928        -9.9030 
   4   1.0000      -0.334790        -9.1101 
   5   1.0000      -0.290319        -7.9000 
   6   1.0000      -0.283347        -7.7103 
   7   0.0000      -0.082241        -2.2379 
   8   0.0000      -0.058375        -1.5885 
   9   0.0000      -0.004456        -0.1212 
  10   0.0000       0.008304         0.2260 
  11   0.0000       0.012433         0.3383 
  12   0.0000       0.013973         0.3802 
  13   0.0000       0.043639         1.1875 
  14   0.0000       0.045284         1.2322 
  15   0.0000       0.045528         1.2389 
  16   0.0000       0.047126         1.2824 
  17   0.0000       0.058169         1.5829 
  18   0.0000       0.058221         1.5843 
  19   0.0000       0.059343         1.6148 
  20   0.0000       0.062116         1.6903 
  21   0.0000       0.069140         1.8814 
  22   0.0000       0.091160         2.4806 
  23   0.0000       0.093819         2.5529 
  24   0.0000       0.095663         2.6031 
  25   0.0000       0.125189         3.4066 
  26   0.0000       0.125204         3.4070 
  27   0.0000       0.133827         3.6416 
  28   0.0000       0.142735         3.8840 
  29   0.0000       0.142736         3.8840 
  30   0.0000       0.145053         3.9471 
  31   0.0000       0.148073         4.0293 
  32   0.0000       0.157583         4.2880 
  33   0.0000       0.165607         4.5064 
  34   0.0000       0.165868         4.5135 
  35   0.0000       0.177893         4.8407 
  36   0.0000       0.180558         4.9132 
  37   0.0000       0.194803         5.3009 
  38   0.0000       0.195173         5.3109 
  39   0.0000       0.199645         5.4326 
  40   0.0000       0.207187         5.6378 
  41   0.0000       0.225579         6.1383 
  42   0.0000       0.225975         6.1491 
  43   0.0000       0.227298         6.1851 
  44   0.0000       0.228214         6.2100 
  45   0.0000       0.229861         6.2548 
  46   0.0000       0.234619         6.3843 
  47   0.0000       0.234644         6.3850 
  48   0.0000       0.242450         6.5974 
  49   0.0000       0.242450         6.5974 
  50   0.0000       0.294553         8.0152 
  51   0.0000       0.294654         8.0179 
  52   0.0000       0.311087         8.4651 
  53   0.0000       0.328043         8.9265 
  54   0.0000       0.331048         9.0083 
  55   0.0000       0.333374         9.0716 
  56   0.0000       0.336754         9.1635 
  57   0.0000       0.339715         9.2441 
  58   0.0000       0.353287         9.6134 
  59   0.0000       0.353313         9.6141 
  60   0.0000       0.355870         9.6837 
  61   0.0000       0.355874         9.6838 
  62   0.0000       0.358522         9.7559 
  63   0.0000       0.360327         9.8050 
  64   0.0000       0.360328         9.8050 
  65   0.0000       0.366890         9.9836 
  66   0.0000       0.366890         9.9836 
  67   0.0000       0.385995        10.5034 
  68   0.0000       0.389534        10.5998 
  69   0.0000       0.404223        10.9995 
  70   0.0000       0.404757        11.0140 
  71   0.0000       0.414942        11.2912 
  72   0.0000       0.414954        11.2915 
  73   0.0000       0.434148        11.8138 
  74   0.0000       0.459698        12.5090 
  75   0.0000       0.465349        12.6628 
  76   0.0000       0.469523        12.7764 
  77   0.0000       0.508629        13.8405 
  78   0.0000       0.528150        14.3717 
  79   0.0000       0.536447        14.5975 
  80   0.0000       0.550745        14.9865 
  81   0.0000       0.557324        15.1656 
  82   0.0000       0.559448        15.2233 
  83   0.0000       0.619538        16.8585 
  84   0.0000       0.623552        16.9677 
  85   0.0000       0.624359        16.9897 
  86   0.0000       0.626781        17.0556 
  87   0.0000       0.631048        17.1717 
  88   0.0000       0.631828        17.1929 
  89   0.0000       0.662908        18.0386 
  90   0.0000       0.662910        18.0387 
  91   0.0000       0.667792        18.1715 
  92   0.0000       0.699917        19.0457 
  93   0.0000       0.709234        19.2992 
  94   0.0000       0.718381        19.5481 
  95   0.0000       0.730818        19.8866 
  96   0.0000       0.734201        19.9786 
  97   0.0000       0.734416        19.9845 
  98   0.0000       0.738380        20.0923 
  99   0.0000       0.797437        21.6994 
 100   0.0000       0.797440        21.6995 
 101   0.0000       0.822612        22.3844 
 102   0.0000       0.827576        22.5195 
 103   0.0000       0.827578        22.5196 
 104   0.0000       0.875297        23.8180 
 105   0.0000       0.875297        23.8180 
 106   0.0000       0.886694        24.1282 
 107   0.0000       0.886792        24.1308 
 108   0.0000       0.908827        24.7304 
 109   0.0000       0.923208        25.1218 
 110   0.0000       0.944001        25.6876 
 111   0.0000       0.977479        26.5985 
 112   0.0000       0.987782        26.8789 
 113   0.0000       0.991790        26.9880 
 114   0.0000       1.035660        28.1817 
 115   0.0000       1.174757        31.9668 
 116   0.0000       1.178128        32.0585 
 117   0.0000       1.199878        32.6503 
 118   0.0000       1.204451        32.7748 
 119   0.0000       1.217930        33.1416 
 120   0.0000       1.339109        36.4390 
 121   0.0000       1.339186        36.4411 
 122   0.0000       1.388428        37.7810 
 123   0.0000       1.388675        37.7878 
 124   0.0000       1.444115        39.2964 
 125   0.0000       1.460362        39.7385 
 126   0.0000       1.467159        39.9234 
 127   0.0000       1.467519        39.9332 
 128   0.0000       1.476208        40.1697 
 129   0.0000       1.488340        40.4998 
 130   0.0000       1.509725        41.0817 
 131   0.0000       1.577215        42.9182 
 132   0.0000       1.706243        46.4292 
 133   0.0000       1.718569        46.7646 
 134   0.0000       1.720899        46.8280 
 135   0.0000       1.732329        47.1391 
 136   0.0000       1.734060        47.1862 
 137   0.0000       1.925460        52.3944 
 138   0.0000       1.948292        53.0157 
 139   0.0000       1.956388        53.2360 
 140   0.0000       1.992504        54.2188 
 141   0.0000       2.078757        56.5659 
 142   0.0000       2.080598        56.6160 
 143   0.0000       2.456465        66.8438 
 144   0.0000       2.477757        67.4232 
 145   0.0000       2.558133        69.6103 
 146   0.0000       2.818478        76.6947 
 147   0.0000       2.841284        77.3153 
 148   0.0000       2.853273        77.6415 
 149   0.0000       2.854024        77.6619 
 150   0.0000       2.855333        77.6976 
 151   0.0000       2.977434        81.0201 
 152   0.0000       2.995066        81.4999 
 153   0.0000       2.995915        81.5230 
 154   0.0000       3.116649        84.8083 
 155   0.0000       3.116663        84.8087 
 156   0.0000       3.158142        85.9374 
 157   0.0000       3.158186        85.9386 
 158   0.0000       3.172959        86.3406 
 159   0.0000       3.199220        87.0552 
 160   0.0000       3.315207        90.2114 
 161   0.0000       3.495364        95.1137 
 162   0.0000       3.495553        95.1188 
 163   0.0000       3.558839        96.8409 
 164   0.0000       3.573170        97.2309 
 165   0.0000       3.580572        97.4323 
 166   0.0000       3.589721        97.6813 
 167   0.0000       3.592623        97.7602 
 168   0.0000       3.732582       101.5687 
 169   0.0000       3.732748       101.5732 
 170   0.0000       3.745243       101.9132 
 171   0.0000       3.769915       102.5846 
 172   0.0000       3.863997       105.1447 
 173   0.0000       3.882122       105.6379 
 174   0.0000       3.907784       106.3362 
 175   0.0000       3.967889       107.9718 
 176   0.0000       4.446628       120.9989 
 177   0.0000       4.447406       121.0201 
 178   0.0000       4.487490       122.1108 
 179   0.0000       4.514883       122.8562 
 180   0.0000       4.570614       124.3727 
 181   0.0000       4.805177       130.7555 
 182   0.0000       4.807624       130.8221 
 183   0.0000       4.914739       133.7368 
 184   0.0000       4.954614       134.8219 
 185   0.0000       4.954637       134.8225 
 186   0.0000       5.274910       143.5376 
 187   0.0000       5.274939       143.5384 
 188   0.0000       5.479721       149.1108 
 189   0.0000       5.510942       149.9604 
 190   0.0000       6.100835       166.0122 
 191   0.0000       6.102722       166.0635 
 192   0.0000       6.222469       169.3220 
 193   0.0000       6.614927       180.0013 
 194   0.0000       6.653436       181.0492 
 195   0.0000       6.722147       182.9189 
 196   0.0000       6.780045       184.4944 
 197   0.0000       6.783740       184.5949 
 198   0.0000       6.949128       189.0954 
 199   0.0000       7.113866       193.5781 
 200   0.0000       7.138748       194.2552 
 201   0.0000       7.304716       198.7714 
 202   0.0000       7.305087       198.7815 
 203   0.0000       7.773170       211.5187 
 204   0.0000       7.863737       213.9832 
 205   0.0000       7.892363       214.7621 
 206   0.0000       7.926683       215.6960 
 207   0.0000       8.827223       240.2009 
 208   0.0000       9.046439       246.1661 
 209   0.0000       9.094684       247.4789 
 210   0.0000       9.101751       247.6712 
 211   0.0000       9.102129       247.6815 
 212   0.0000       9.178254       249.7530 
 213   0.0000       9.178279       249.7537 
 214   0.0000       9.197415       250.2744 
 215   0.0000       9.197415       250.2744 
 216   0.0000       9.292352       252.8577 
 217   0.0000       9.299697       253.0576 
 218   0.0000       9.300573       253.0815 
 219   0.0000       9.315408       253.4851 
 220   0.0000       9.428310       256.5574 
 221   0.0000       9.428332       256.5579 
 222   0.0000       9.667962       263.0786 
 223   0.0000      10.017822       272.5988 
 224   0.0000      10.017823       272.5988 
 225   0.0000      10.075795       274.1763 
 226   0.0000      10.094195       274.6770 
 227   0.0000      10.094198       274.6771 
 228   0.0000      10.095368       274.7089 
 229   0.0000      10.114882       275.2399 
 230   0.0000      10.154819       276.3267 
 231   0.0000      10.154820       276.3267 
 232   0.0000      10.528643       286.4989 
 233   0.0000      10.543505       286.9034 
 234   0.0000      10.701519       291.2031 
 235   0.0000      10.702475       291.2291 
 236   0.0000      10.823642       294.5263 
 237   0.0000      11.104763       302.1760 
 238   0.0000      11.104765       302.1760 
 239   0.0000      11.282629       307.0159 
 240   0.0000      11.286407       307.1187 
 241   0.0000      11.340224       308.5832 
 242   0.0000      11.340234       308.5835 
 243   0.0000      11.351054       308.8779 
 244   0.0000      11.408241       310.4340 
 245   0.0000      11.408253       310.4343 
 246   0.0000      11.622710       316.2700 
 247   0.0000      11.656996       317.2030 
 248   0.0000      12.019133       327.0572 
 249   0.0000      12.019167       327.0582 
 250   0.0000      12.159833       330.8859 
 251   0.0000      12.188383       331.6628 
 252   0.0000      12.560919       341.8000 
 253   0.0000      13.449197       365.9712 
 254   0.0000      13.493717       367.1827 
 255   0.0000      13.493946       367.1889 
 256   0.0000      14.195483       386.2787 
 257   0.0000      14.195567       386.2810 
 258   0.0000      14.405999       392.0072 
 259   0.0000      14.406002       392.0072 
 260   0.0000      15.077034       410.2670 
 261   0.0000      15.077946       410.2918 
 262   0.0000      15.252303       415.0363 
 263   0.0000      15.292139       416.1203 
 264   0.0000      15.689087       426.9218 
 265   0.0000      15.855129       431.4400 
 266   0.0000      15.884862       432.2491 
 267   0.0000      15.921585       433.2484 
 268   0.0000      16.755874       455.9505 
 269   0.0000      16.756126       455.9574 
 270   0.0000      17.500312       476.2077 
 271   0.0000      17.539619       477.2773 
 272   0.0000      18.457830       502.2631 
 273   0.0000      19.264057       524.2017 
 274   0.0000      20.129245       547.7446 
 275   0.0000      20.129339       547.7472 
 276   0.0000      20.504343       557.9515 
 277   0.0000      20.515732       558.2615 
 278   0.0000      21.884862       595.5174 
 279   0.0000      22.988362       625.5451 
 280   0.0000      25.963678       706.5076 
 281   0.0000      26.002231       707.5567 
 282   0.0000      27.561355       749.9826 
 283   0.0000      47.573166      1294.5317 
 284   0.0000      47.573317      1294.5358 
 285   0.0000      47.866163      1302.5045 
 286   0.0000      47.894009      1303.2623 
 287   0.0000      48.523119      1320.3812 
 288   0.0000      78.096109      2125.1032 
 289   0.0000     103.070480      2804.6903 

                 SPIN DOWN ORBITALS
  NO   OCC          E(Eh)            E(eV) 
   0   1.0000     -14.026592      -381.6830 
   1   1.0000      -6.589427      -179.3074 
   2   1.0000      -0.722042       -19.6478 
   3   1.0000      -0.317859        -8.6494 
   4   1.0000      -0.272379        -7.4118 
   5   0.0000      -0.247512        -6.7352 
   6   0.0000      -0.189605        -5.1594 
   7   0.0000      -0.023066        -0.6277 
   8   0.0000      -0.007212        -0.1963 
   9   0.0000       0.008860         0.2411 
  10   0.0000       0.014685         0.3996 
  11   0.0000       0.017325         0.4714 
  12   0.0000       0.019333         0.5261 
  13   0.0000       0.048393         1.3168 
  14   0.0000       0.049734         1.3533 
  15   0.0000       0.050288         1.3684 
  16   0.0000       0.058900         1.6028 
  17   0.0000       0.065330         1.7777 
  18   0.0000       0.066621         1.8129 
  19   0.0000       0.071620         1.9489 
  20   0.0000       0.075654         2.0586 
  21   0.0000       0.079371         2.1598 
  22   0.0000       0.098195         2.6720 
  23   0.0000       0.100941         2.7467 
  24   0.0000       0.103334         2.8119 
  25   0.0000       0.131489         3.5780 
  26   0.0000       0.132213         3.5977 
  27   0.0000       0.141537         3.8514 
  28   0.0000       0.150578         4.0974 
  29   0.0000       0.151166         4.1134 
  30   0.0000       0.152423         4.1476 
  31   0.0000       0.155585         4.2337 
  32   0.0000       0.179927         4.8961 
  33   0.0000       0.182275         4.9599 
  34   0.0000       0.183240         4.9862 
  35   0.0000       0.185365         5.0440 
  36   0.0000       0.187726         5.1083 
  37   0.0000       0.213447         5.8082 
  38   0.0000       0.217718         5.9244 
  39   0.0000       0.218945         5.9578 
  40   0.0000       0.222725         6.0607 
  41   0.0000       0.234587         6.3834 
  42   0.0000       0.236188         6.4270 
  43   0.0000       0.236917         6.4469 
  44   0.0000       0.238160         6.4807 
  45   0.0000       0.241158         6.5622 
  46   0.0000       0.243873         6.6361 
  47   0.0000       0.244866         6.6631 
  48   0.0000       0.250557         6.8180 
  49   0.0000       0.250895         6.8272 
  50   0.0000       0.309534         8.4228 
  51   0.0000       0.310964         8.4618 
  52   0.0000       0.324344         8.8258 
  53   0.0000       0.336419         9.1544 
  54   0.0000       0.339055         9.2262 
  55   0.0000       0.347646         9.4599 
  56   0.0000       0.353764         9.6264 
  57   0.0000       0.358218         9.7476 
  58   0.0000       0.364816         9.9271 
  59   0.0000       0.365631         9.9493 
  60   0.0000       0.367668        10.0047 
  61   0.0000       0.368036        10.0148 
  62   0.0000       0.371213        10.1012 
  63   0.0000       0.371540        10.1101 
  64   0.0000       0.375978        10.2309 
  65   0.0000       0.376139        10.2353 
  66   0.0000       0.399922        10.8824 
  67   0.0000       0.402860        10.9624 
  68   0.0000       0.405716        11.0401 
  69   0.0000       0.423403        11.5214 
  70   0.0000       0.426118        11.5953 
  71   0.0000       0.426620        11.6089 
  72   0.0000       0.427952        11.6452 
  73   0.0000       0.454981        12.3807 
  74   0.0000       0.482801        13.1377 
  75   0.0000       0.487587        13.2679 
  76   0.0000       0.489702        13.3255 
  77   0.0000       0.526547        14.3281 
  78   0.0000       0.557347        15.1662 
  79   0.0000       0.563412        15.3312 
  80   0.0000       0.573420        15.6035 
  81   0.0000       0.573927        15.6174 
  82   0.0000       0.578534        15.7427 
  83   0.0000       0.638655        17.3787 
  84   0.0000       0.641169        17.4471 
  85   0.0000       0.641586        17.4584 
  86   0.0000       0.642044        17.4709 
  87   0.0000       0.644537        17.5387 
  88   0.0000       0.645094        17.5539 
  89   0.0000       0.673892        18.3375 
  90   0.0000       0.674537        18.3551 
  91   0.0000       0.693609        18.8741 
  92   0.0000       0.720117        19.5954 
  93   0.0000       0.726156        19.7597 
  94   0.0000       0.743938        20.2436 
  95   0.0000       0.754037        20.5184 
  96   0.0000       0.756373        20.5820 
  97   0.0000       0.759324        20.6622 
  98   0.0000       0.767050        20.8725 
  99   0.0000       0.808747        22.0071 
 100   0.0000       0.809674        22.0323 
 101   0.0000       0.837607        22.7925 
 102   0.0000       0.837918        22.8009 
 103   0.0000       0.856270        23.3003 
 104   0.0000       0.886128        24.1128 
 105   0.0000       0.886457        24.1217 
 106   0.0000       0.900327        24.4991 
 107   0.0000       0.902516        24.5587 
 108   0.0000       0.932630        25.3781 
 109   0.0000       0.940731        25.5986 
 110   0.0000       0.972824        26.4719 
 111   0.0000       0.994714        27.0676 
 112   0.0000       1.004415        27.3315 
 113   0.0000       1.009128        27.4598 
 114   0.0000       1.052223        28.6324 
 115   0.0000       1.206912        32.8417 
 116   0.0000       1.211184        32.9580 
 117   0.0000       1.237559        33.6757 
 118   0.0000       1.249916        34.0119 
 119   0.0000       1.260135        34.2900 
 120   0.0000       1.377183        37.4751 
 121   0.0000       1.377974        37.4966 
 122   0.0000       1.433770        39.0149 
 123   0.0000       1.438848        39.1530 
 124   0.0000       1.508649        41.0524 
 125   0.0000       1.517150        41.2838 
 126   0.0000       1.518930        41.3322 
 127   0.0000       1.519007        41.3343 
 128   0.0000       1.522557        41.4309 
 129   0.0000       1.528239        41.5855 
 130   0.0000       1.541570        41.9483 
 131   0.0000       1.603092        43.6223 
 132   0.0000       1.765918        48.0531 
 133   0.0000       1.767147        48.0865 
 134   0.0000       1.769803        48.1588 
 135   0.0000       1.782181        48.4956 
 136   0.0000       1.782625        48.5077 
 137   0.0000       1.971650        53.6513 
 138   0.0000       1.979823        53.8737 
 139   0.0000       1.983510        53.9741 
 140   0.0000       2.043660        55.6108 
 141   0.0000       2.108816        57.3838 
 142   0.0000       2.112265        57.4777 
 143   0.0000       2.496275        67.9271 
 144   0.0000       2.504831        68.1599 
 145   0.0000       2.595587        70.6295 
 146   0.0000       2.877565        78.3025 
 147   0.0000       2.890059        78.6425 
 148   0.0000       2.895860        78.8004 
 149   0.0000       2.900948        78.9388 
 150   0.0000       2.920447        79.4694 
 151   0.0000       3.021198        82.2110 
 152   0.0000       3.043122        82.8076 
 153   0.0000       3.050012        82.9950 
 154   0.0000       3.172472        86.3274 
 155   0.0000       3.172994        86.3415 
 156   0.0000       3.222077        87.6772 
 157   0.0000       3.223326        87.7112 
 158   0.0000       3.235260        88.0359 
 159   0.0000       3.249021        88.4104 
 160   0.0000       3.374109        91.8142 
 161   0.0000       3.559267        96.8526 
 162   0.0000       3.564861        97.0048 
 163   0.0000       3.615941        98.3948 
 164   0.0000       3.629906        98.7748 
 165   0.0000       3.640107        99.0524 
 166   0.0000       3.655148        99.4616 
 167   0.0000       3.658171        99.5439 
 168   0.0000       3.800075       103.4053 
 169   0.0000       3.817229       103.8721 
 170   0.0000       3.834577       104.3442 
 171   0.0000       3.840952       104.5176 
 172   0.0000       3.916922       106.5849 
 173   0.0000       3.985588       108.4534 
 174   0.0000       4.006597       109.0251 
 175   0.0000       4.062699       110.5517 
 176   0.0000       4.502996       122.5328 
 177   0.0000       4.504842       122.5830 
 178   0.0000       4.559826       124.0792 
 179   0.0000       4.576962       124.5455 
 180   0.0000       4.645993       126.4239 
 181   0.0000       4.850267       131.9825 
 182   0.0000       4.855677       132.1297 
 183   0.0000       4.954909       134.8299 
 184   0.0000       5.009292       136.3098 
 185   0.0000       5.009915       136.3267 
 186   0.0000       5.321834       144.8145 
 187   0.0000       5.322861       144.8424 
 188   0.0000       5.535303       150.6232 
 189   0.0000       5.549063       150.9977 
 190   0.0000       6.145647       167.2315 
 191   0.0000       6.150983       167.3768 
 192   0.0000       6.270118       170.6186 
 193   0.0000       6.670493       181.5133 
 194   0.0000       6.687078       181.9647 
 195   0.0000       6.774524       184.3442 
 196   0.0000       6.841611       186.1697 
 197   0.0000       6.856346       186.5707 
 198   0.0000       6.998230       190.4315 
 199   0.0000       7.172922       195.1851 
 200   0.0000       7.185782       195.5351 
 201   0.0000       7.334926       199.5935 
 202   0.0000       7.336586       199.6387 
 203   0.0000       7.828373       213.0209 
 204   0.0000       7.921307       215.5497 
 205   0.0000       7.934423       215.9066 
 206   0.0000       7.974155       216.9878 
 207   0.0000       8.884825       241.7684 
 208   0.0000       9.114095       248.0071 
 209   0.0000       9.138648       248.6752 
 210   0.0000       9.139213       248.6906 
 211   0.0000       9.142059       248.7681 
 212   0.0000       9.233586       251.2587 
 213   0.0000       9.234531       251.2844 
 214   0.0000       9.253800       251.8087 
 215   0.0000       9.254332       251.8232 
 216   0.0000       9.344033       254.2641 
 217   0.0000       9.344389       254.2738 
 218   0.0000       9.353040       254.5092 
 219   0.0000       9.362603       254.7694 
 220   0.0000       9.520353       259.0620 
 221   0.0000       9.522202       259.1123 
 222   0.0000       9.727133       264.6887 
 223   0.0000      10.113335       275.1978 
 224   0.0000      10.115702       275.2622 
 225   0.0000      10.165868       276.6273 
 226   0.0000      10.174947       276.8744 
 227   0.0000      10.176032       276.9039 
 228   0.0000      10.204141       277.6688 
 229   0.0000      10.218110       278.0489 
 230   0.0000      10.218579       278.0617 
 231   0.0000      10.218981       278.0726 
 232   0.0000      10.573898       287.7304 
 233   0.0000      10.586194       288.0650 
 234   0.0000      10.799468       293.8685 
 235   0.0000      10.804938       294.0173 
 236   0.0000      10.874925       295.9218 
 237   0.0000      11.182487       304.2909 
 238   0.0000      11.186588       304.4025 
 239   0.0000      11.341364       308.6142 
 240   0.0000      11.346863       308.7638 
 241   0.0000      11.409250       310.4615 
 242   0.0000      11.409753       310.4752 
 243   0.0000      11.423829       310.8582 
 244   0.0000      11.467303       312.0412 
 245   0.0000      11.467971       312.0594 
 246   0.0000      11.681351       317.8657 
 247   0.0000      11.699789       318.3674 
 248   0.0000      12.080720       328.7331 
 249   0.0000      12.082541       328.7827 
 250   0.0000      12.242486       333.1350 
 251   0.0000      12.263801       333.7150 
 252   0.0000      12.621855       343.4581 
 253   0.0000      13.513233       367.7138 
 254   0.0000      13.554428       368.8347 
 255   0.0000      13.562180       369.0457 
 256   0.0000      14.276326       388.4786 
 257   0.0000      14.278100       388.5268 
 258   0.0000      14.469522       393.7357 
 259   0.0000      14.471424       393.7875 
 260   0.0000      15.129796       411.7027 
 261   0.0000      15.137238       411.9052 
 262   0.0000      15.319264       416.8584 
 263   0.0000      15.343064       417.5060 
 264   0.0000      15.740223       428.3132 
 265   0.0000      15.899910       432.6585 
 266   0.0000      15.944759       433.8789 
 267   0.0000      15.964340       434.4118 
 268   0.0000      16.817172       457.6185 
 269   0.0000      16.824258       457.8113 
 270   0.0000      17.556504       477.7368 
 271   0.0000      17.580775       478.3972 
 272   0.0000      18.498381       503.3665 
 273   0.0000      19.305736       525.3358 
 274   0.0000      20.158960       548.5532 
 275   0.0000      20.159891       548.5785 
 276   0.0000      20.549524       559.1810 
 277   0.0000      20.554940       559.3283 
 278   0.0000      21.925028       596.6103 
 279   0.0000      23.034538       626.8017 
 280   0.0000      26.015538       707.9188 
 281   0.0000      26.045567       708.7359 
 282   0.0000      27.595373       750.9083 
 283   0.0000      47.619758      1295.7995 
 284   0.0000      47.625623      1295.9591 
 285   0.0000      47.908107      1303.6459 
 286   0.0000      47.925473      1304.1184 
 287   0.0000      48.557971      1321.3296 
 288   0.0000      78.117078      2125.6738 
 289   0.0000     103.089147      2805.1983 

                    ********************************
                    * MULLIKEN POPULATION ANALYSIS *
                    ********************************

--------------------------------------------
MULLIKEN ATOMIC CHARGES AND SPIN POPULATIONS
--------------------------------------------
   0 B :    0.044875    1.140266
   1 N :   -0.044875    0.859734
Sum of atomic charges         :   -0.0000000
Sum of atomic spin populations:    2.0000000

-----------------------------------------------------
MULLIKEN REDUCED ORBITAL CHARGES AND SPIN POPULATIONS
-----------------------------------------------------
CHARGE
  0 B s       :     3.270917  s :     3.270917
      pz      :     0.653241  p :     1.605751
      px      :     0.659155
      py      :     0.293355
      dz2     :     0.017827  d :     0.067884
      dxz     :     0.034749
      dyz     :     0.015157
      dx2y2   :     0.000152
      dxy     :     0.000000
      f0      :     0.003138  f :     0.009301
      f+1     :     0.003926
      f-1     :     0.002190
      f+2     :     0.000017
      f-2     :     0.000000
      f+3     :     0.000018
      f-3     :     0.000012
      g0      :     0.000491  g :     0.001250
      g+1     :     0.000491
      g-1     :     0.000262
      g+2     :     0.000003
      g-2     :     0.000000
      g+3     :     0.000002
      g-3     :     0.000002
      g+4     :     0.000000
      g-4     :     0.000000
      h0      :     0.000024  h :     0.000022
      h+1     :    -0.000001
      h-1     :    -0.000000
      h+2     :     0.000000
      h-2     :     0.000000
      h+3     :    -0.000000
      h-3     :    -0.000000
      h+4     :     0.000000
      h-4     :     0.000000
      h+5     :     0.000000
      h-5     :    -0.000000
  1 N s       :     3.818435  s :     3.818435
      pz      :     1.221685  p :     3.202736
      px      :     1.295977
      py      :     0.685073
      dz2     :     0.012465  d :     0.022848
      dxz     :     0.005778
      dyz     :     0.004249
      dx2y2   :     0.000356
      dxy     :     0.000000
      f0      :     0.001074  f :     0.000863
      f+1     :    -0.000110
      f-1     :    -0.000296
      f+2     :     0.000052
      f-2     :     0.000000
      f+3     :     0.000077
      f-3     :     0.000066
      g0      :     0.000093  g :    -0.000012
      g+1     :    -0.000053
      g-1     :    -0.000060
      g+2     :     0.000003
      g-2     :     0.000000
      g+3     :     0.000003
      g-3     :     0.000002
      g+4     :     0.000001
      g-4     :     0.000000
      h0      :     0.000027  h :     0.000005
      h+1     :    -0.000012
      h-1     :    -0.000010
      h+2     :     0.000000
      h-2     :     0.000000
      h+3     :    -0.000000
      h-3     :    -0.000000
      h+4     :     0.000000
      h-4     :     0.000000
      h+5     :     0.000000
      h-5     :     0.000000

SPIN
  0 B s       :     0.354970  s :     0.354970
      pz      :     0.449047  p :     0.775576
      px      :     0.033174
      py      :     0.293355
      dz2     :     0.002754  d :     0.006496
      dxz     :    -0.011499
      dyz     :     0.015157
      dx2y2   :     0.000084
      dxy     :     0.000000
      f0      :     0.000398  f :     0.002852
      f+1     :     0.000225
      f-1     :     0.002190
      f+2     :     0.000015
      f-2     :     0.000000
      f+3     :     0.000012
      f-3     :     0.000012
      g0      :     0.000058  g :     0.000370
      g+1     :     0.000044
      g-1     :     0.000262
      g+2     :     0.000003
      g-2     :     0.000000
      g+3     :     0.000002
      g-3     :     0.000002
      g+4     :    -0.000000
      g-4     :    -0.000000
      h0      :     0.000004  h :     0.000002
      h+1     :    -0.000002
      h-1     :    -0.000000
      h+2     :    -0.000000
      h-2     :    -0.000000
      h+3     :    -0.000000
      h-3     :    -0.000000
      h+4     :    -0.000000
      h-4     :    -0.000000
      h+5     :    -0.000000
      h-5     :    -0.000000
  1 N s       :     0.044207  s :     0.044207
      pz      :     0.139708  p :     0.801644
      px      :    -0.023138
      py      :     0.685073
      dz2     :     0.007943  d :     0.013520
      dxz     :     0.001099
      dyz     :     0.004249
      dx2y2   :     0.000228
      dxy     :     0.000000
      f0      :     0.000487  f :     0.000408
      f+1     :     0.000049
      f-1     :    -0.000296
      f+2     :     0.000038
      f-2     :     0.000000
      f+3     :     0.000065
      f-3     :     0.000066
      g0      :     0.000032  g :    -0.000054
      g+1     :    -0.000030
      g-1     :    -0.000060
      g+2     :     0.000000
      g-2     :     0.000000
      g+3     :     0.000002
      g-3     :     0.000002
      g+4     :    -0.000001
      g-4     :    -0.000000
      h0      :     0.000023  h :     0.000011
      h+1     :    -0.000002
      h-1     :    -0.000010
      h+2     :     0.000000
      h-2     :     0.000000
      h+3     :    -0.000000
      h-3     :    -0.000000
      h+4     :    -0.000000
      h-4     :    -0.000000
      h+5     :    -0.000000
      h-5     :     0.000000


                     *******************************
                     * LOEWDIN POPULATION ANALYSIS *
                     *******************************

-------------------------------------------
LOEWDIN ATOMIC CHARGES AND SPIN POPULATIONS
-------------------------------------------
   0 B :   -0.012494    1.034419
   1 N :    0.012494    0.965581

----------------------------------------------------
LOEWDIN REDUCED ORBITAL CHARGES AND SPIN POPULATIONS
----------------------------------------------------
CHARGE
  0 B s       :     2.775325  s :     2.775325
      pz      :     0.867728  p :     1.695330
      px      :     0.570986
      py      :     0.256615
      dz2     :     0.223926  d :     0.388052
      dxz     :     0.107953
      dyz     :     0.056039
      dx2y2   :     0.000134
      dxy     :     0.000000
      f0      :     0.052372  f :     0.121625
      f+1     :     0.043902
      f-1     :     0.025286
      f+2     :     0.000031
      f-2     :     0.000000
      f+3     :     0.000020
      f-3     :     0.000013
      g0      :     0.009149  g :     0.030015
      g+1     :     0.013272
      g-1     :     0.007577
      g+2     :     0.000010
      g-2     :     0.000000
      g+3     :     0.000003
      g-3     :     0.000003
      g+4     :     0.000000
      g-4     :     0.000000
      h0      :     0.000929  h :     0.002149
      h+1     :     0.000794
      h-1     :     0.000425
      h+2     :     0.000001
      h-2     :     0.000000
      h+3     :     0.000000
      h-3     :     0.000000
      h+4     :     0.000000
      h-4     :     0.000000
      h+5     :     0.000000
      h-5     :     0.000000
  1 N s       :     3.319616  s :     3.319616
      pz      :     1.582118  p :     3.410506
      px      :     1.201403
      py      :     0.626985
      dz2     :     0.117384  d :     0.173033
      dxz     :     0.038455
      dyz     :     0.016860
      dx2y2   :     0.000334
      dxy     :     0.000000
      f0      :     0.038049  f :     0.061688
      f+1     :     0.016433
      f-1     :     0.007007
      f+2     :     0.000064
      f-2     :     0.000000
      f+3     :     0.000073
      f-3     :     0.000063
      g0      :     0.010301  g :     0.018313
      g+1     :     0.005462
      g-1     :     0.002537
      g+2     :     0.000008
      g-2     :     0.000000
      g+3     :     0.000003
      g-3     :     0.000002
      g+4     :     0.000001
      g-4     :     0.000000
      h0      :     0.002519  h :     0.004350
      h+1     :     0.001241
      h-1     :     0.000587
      h+2     :     0.000002
      h-2     :     0.000000
      h+3     :     0.000000
      h-3     :     0.000000
      h+4     :     0.000000
      h-4     :     0.000000
      h+5     :     0.000000
      h-5     :     0.000000

SPIN
  0 B s       :     0.292937  s :     0.292937
      pz      :     0.376261  p :     0.658690
      px      :     0.025814
      py      :     0.256615
      dz2     :     0.002831  d :     0.047310
      dxz     :    -0.011632
      dyz     :     0.056039
      dx2y2   :     0.000073
      dxy     :     0.000000
      f0      :     0.002034  f :     0.027191
      f+1     :    -0.000180
      f-1     :     0.025286
      f+2     :     0.000023
      f-2     :     0.000000
      f+3     :     0.000014
      f-3     :     0.000013
      g0      :     0.000371  g :     0.007837
      g+1     :    -0.000124
      g-1     :     0.007577
      g+2     :     0.000008
      g-2     :     0.000000
      g+3     :     0.000003
      g-3     :     0.000003
      g+4     :    -0.000000
      g-4     :    -0.000000
      h0      :     0.000037  h :     0.000455
      h+1     :    -0.000008
      h-1     :     0.000425
      h+2     :     0.000001
      h-2     :     0.000000
      h+3     :     0.000000
      h-3     :     0.000000
      h+4     :    -0.000000
      h-4     :    -0.000000
      h+5     :    -0.000000
      h-5     :     0.000000
  1 N s       :     0.075300  s :     0.075300
      pz      :     0.158193  p :     0.764686
      px      :    -0.020492
      py      :     0.626985
      dz2     :     0.063816  d :     0.084503
      dxz     :     0.003614
      dyz     :     0.016860
      dx2y2   :     0.000213
      dxy     :     0.000000
      f0      :     0.020139  f :     0.029163
      f+1     :     0.001846
      f-1     :     0.007007
      f+2     :     0.000047
      f-2     :     0.000000
      f+3     :     0.000061
      f-3     :     0.000063
      g0      :     0.006169  g :     0.009525
      g+1     :     0.000813
      g-1     :     0.002537
      g+2     :     0.000003
      g-2     :     0.000000
      g+3     :     0.000002
      g-3     :     0.000002
      g+4     :    -0.000001
      g-4     :    -0.000000
      h0      :     0.001547  h :     0.002404
      h+1     :     0.000269
      h-1     :     0.000587
      h+2     :     0.000001
      h-2     :     0.000000
      h+3     :     0.000000
      h-3     :     0.000000
      h+4     :    -0.000000
      h-4     :    -0.000000
      h+5     :    -0.000000
      h-5     :     0.000000


                      *****************************
                      * MAYER POPULATION ANALYSIS *
                      *****************************

  NA   - Mulliken gross atomic population
  ZA   - Total nuclear charge
  QA   - Mulliken gross atomic charge
  VA   - Mayer's total valence
  BVA  - Mayer's bonded valence
  FA   - Mayer's free valence

  ATOM       NA         ZA         QA         VA         BVA        FA
  0 B      4.9551     5.0000     0.0449     3.0932     2.2952     0.7979
  1 N      7.0449     7.0000    -0.0449     2.7994     2.2952     0.5042

  Mayer bond orders larger than 0.1
B(  0-B ,  1-N ) :   2.2952 

-------
TIMINGS
-------

Total SCF time: 0 days 0 hours 7 min 30 sec 

Total time                  ....     450.346 sec
Sum of individual times     ....     448.642 sec  ( 99.6%)

Fock matrix formation       ....     446.235 sec  ( 99.1%)
  XC integration            ....       9.669 sec  (  2.2% of F)
    Basis function eval.    ....       0.696 sec  (  7.2% of XC)
    Density eval.           ....       1.831 sec  ( 18.9% of XC)
    XC-Functional eval.     ....       0.150 sec  (  1.5% of XC)
    XC-Potential eval.      ....       6.452 sec  ( 66.7% of XC)
Diagonalization             ....       0.970 sec  (  0.2%)
Density matrix formation    ....       0.018 sec  (  0.0%)
Population analysis         ....       0.061 sec  (  0.0%)
Initial guess               ....       0.441 sec  (  0.1%)
Orbital Transformation      ....       0.000 sec  (  0.0%)
Orbital Orthonormalization  ....       0.000 sec  (  0.0%)
DIIS solution               ....       0.636 sec  (  0.1%)
Grid generation             ....       0.280 sec  (  0.1%)

-------------------------   --------------------
FINAL SINGLE POINT ENERGY       -79.343745123056
-------------------------   --------------------


                            ***************************************
                            *     ORCA property calculations      *
                            ***************************************

                                    ---------------------
                                    Active property flags
                                    ---------------------
   (+) Dipole Moment
   (+) Polarizability


------------------------------------------------------------------------------
                       ORCA ELECTRIC PROPERTIES CALCULATION
------------------------------------------------------------------------------

Dipole Moment Calculation                       ... on
Quadrupole Moment Calculation                   ... off
Polarizability Calculation                      ... Analytic (CP-SCF)
GBWName                                         ... bn_pbe.gbw
Electron density file                           ... bn_pbe.scfp.tmp
The origin for moment calculation is the CENTER OF MASS  = ( 0.000000,  0.000000  1.413223)

-------------
DIPOLE MOMENT
-------------
                                X             Y             Z
Electronic contribution:     -0.00000       0.00000      -1.31215
Nuclear contribution   :      0.00000       0.00000       0.56854
                        -----------------------------------------
Total Dipole Moment    :     -0.00000       0.00000      -0.74361
                        -----------------------------------------
Magnitude (a.u.)       :      0.74361
Magnitude (Debye)      :      1.89011



--------------------
Rotational spectrum 
--------------------
 
Rotational constants in cm-1:     0.000000     1.573778     1.573778 
Rotational constants in MHz :     0.000000 47180.691902 47180.691902 

 Dipole components along the rotational axes: 
x,y,z [a.u.] :    -0.743613     0.000000    -0.000000 
x,y,z [Debye]:    -1.890114     0.000000    -0.000000 

 
Transforming and storing MO dipole integrals   ... done

                ... starting polarizability calculation

Opening the Dipole integral file               ... (bn_pbe.dmo.tmp) done
Reading Dipole-MO integrals                    ... done
Solving CP-SCF equations                       ... 

           ************************************************************
           *        Program running with 4 parallel MPI-processes     *
           *              working on a common directory               *
           ************************************************************

------------------------------------------------------------------------------
                           ORCA CP-SCF CALCULATION
------------------------------------------------------------------------------

Input orbitals are from        ... bn_pbe.gbw
Input Perturbation             ... bn_pbe.cpv.tmp
Wavefunction output            ... bn_pbe.cpu.tmp
Perturbation mode              ... Real perturbation (singlet)
Solver                         ... POPLE
Max. number of iterations      ... 200
Convergence tolerance          ... 1.000e-06
Integral handling              ... Direct
Number of perturbations        ... 3
Number of operators            ... 2
Orbital ranges used for CP-SCF:
 Operator 0:  Orbitals   0...  6  to   7...289
 Operator 1:  Orbitals   0...  4  to   5...289
DFT calculation                         ... on
Exchange functional (SCF)               ... PBE
Exchange functional (CP-SCF)            ... PBE
   PBE kappa parameter  XKappa (SCF)    ...  0.804000
   PBE kappa parameter  XKappa (CP-SCF) ...  0.804000
   PBE mue parameter   XMuePBE (SCF)    ...  0.219520
   PBE mue parameter   XMuePBE (CP-SCF) ...  0.219520
Correlation functional (SCF)            ... PBE
Correlation functional (CP-SCF)         ... PBE
   PBE beta parameter CBetaPBE (SCF)    ...  0.066725
   PBE beta parameter CBetaPBE (CP-SCF) ...  0.066725
 LDA part of GGA corr.  LDAOpt (SCF)    ... PW91-LDA
 LDA part of GGA corr.  LDAOpt (CP-SCF) ... PW91-LDA
Variables per vector in CP-SCF ... 3406
Number of vectors sought       ... 3
Recalculating density on grid  ... done
Calculating the xc-kernel      ... done
     CP-SCF ITERATION   0: 
     CP-SCF ITERATION   1:      0.738422307057
     CP-SCF ITERATION   2:      0.091029173842
     CP-SCF ITERATION   3:      0.010291062187
     CP-SCF ITERATION   4:      0.000473371153
     CP-SCF ITERATION   5:      0.000029504129
     CP-SCF ITERATION   6:      0.000000474285
done
Reading CP-SCF coefficients                    ... done
Doing the polarizability tensor   ... done
Cleaning up                                    ... done

-------------------------
THE POLARIZABILITY TENSOR
-------------------------

The raw cartesian tensor (atomic units):
   22.78188      0.00018      0.00000  
    0.00018     18.12306      0.00000  
    0.00000      0.00000     30.55096  
diagonalized tensor: 
   18.12306     22.78188     30.55096  

    0.00004      1.00000      0.00000  
   -1.00000      0.00004      0.00000  
    0.00000     -0.00000      1.00000  

Isotropic polarizability :  23.81864


Timings for individual modules:

Sum of individual times         ...      715.162 sec (=  11.919 min)
GTO integral calculation        ...        1.752 sec (=   0.029 min)   0.2 %
SCF iterations                  ...      450.701 sec (=   7.512 min)  63.0 %
Solution of CP-SCF eqns.        ...      262.708 sec (=   4.378 min)  36.7 %
                             ****ORCA TERMINATED NORMALLY****
TOTAL RUN TIME: 0 days 0 hours 11 minutes 55 seconds 859 msec
