
                                 *****************
                                 * O   R   C   A *
                                 *****************

           --- An Ab Initio, DFT and Semiempirical electronic structure package ---

                  #######################################################
                  #                        -***-                        #
                  #          Department of theory and spectroscopy      #
                  #               Directorship: Frank Neese             #
                  #        Max Planck Institute fuer Kohlenforschung    #
                  #                Kaiser Wilhelm Platz 1               #
                  #                 D-45470 Muelheim/Ruhr               #
                  #                      Germany                        #
                  #                                                     #
                  #                  All rights reserved                #
                  #                        -***-                        #
                  #######################################################


                         Program Version 4.1.2  - RELEASE  -


 With contributions from (in alphabetic order):
   Daniel Aravena         : Magnetic Properties
   Michael Atanasov       : Ab Initio Ligand Field Theory
   Alexander A. Auer      : GIAO ZORA
   Ute Becker             : Parallelization
   Giovanni Bistoni       : ED, Open-shell LED
   Martin Brehm           : Molecular dynamics
   Dmytro Bykov           : SCF Hessian
   Vijay G. Chilkuri      : MRCI spin determinant printing
   Dipayan Datta          : RHF DLPNO-CCSD density
   Achintya Kumar Dutta   : EOM-CC, STEOM-CC
   Dmitry Ganyushin       : Spin-Orbit,Spin-Spin,Magnetic field MRCI
   Miquel Garcia          : C-PCM Hessian
   Yang Guo               : DLPNO-NEVPT2, CIM, IAO-localization
   Andreas Hansen         : Spin unrestricted coupled pair/coupled cluster methods
   Benjamin Helmich-Paris : CASSCF linear response (MC-RPA)
   Lee Huntington         : MR-EOM, pCC
   Robert Izsak           : Overlap fitted RIJCOSX, COSX-SCS-MP3, EOM
   Christian Kollmar      : KDIIS, OOCD, Brueckner-CCSD(T), CCSD density
   Simone Kossmann        : Meta GGA functionals, TD-DFT gradient, OOMP2, MP2 Hessian
   Martin Krupicka        : AUTO-CI
   Lucas Lang             : DCDCAS
   Dagmar Lenk            : GEPOL surface, SMD
   Dimitrios Liakos       : Extrapolation schemes; parallel MDCI
   Dimitrios Manganas     : ROCIS; embedding schemes
   Dimitrios Pantazis     : SARC Basis sets
   Taras Petrenko         : DFT Hessian,TD-DFT gradient, ASA, ECA, R-Raman, ABS, FL, XAS/XES, NRVS
   Peter Pinski           : DLPNO-MP2, DLPNO-MP2 Gradient
   Christoph Reimann      : Effective Core Potentials
   Marius Retegan         : Local ZFS, SOC
   Christoph Riplinger    : Optimizer, TS searches, QM/MM, DLPNO-CCSD(T), (RO)-DLPNO pert. Triples
   Tobias Risthaus        : Range-separated hybrids, TD-DFT gradient, RPA, STAB
   Michael Roemelt        : Restricted open shell CIS
   Masaaki Saitow         : Open-shell DLPNO
   Barbara Sandhoefer     : DKH picture change effects
   Avijit Sen             : IP-ROCIS
   Kantharuban Sivalingam : CASSCF convergence, NEVPT2, FIC-MRCI
   Bernardo de Souza      : ESD, SOC TD-DFT
   Georgi Stoychev        : AutoAux, RI-MP2 NMR
   Willem Van den Heuvel  : Paramagnetic NMR
   Boris Wezisla          : Elementary symmetry handling
   Frank Wennmohs         : Technical directorship


 We gratefully acknowledge several colleagues who have allowed us to
 interface, adapt or use parts of their codes:
   Stefan Grimme, W. Hujo, H. Kruse,             : VdW corrections, initial TS optimization,
                  C. Bannwarth                     DFT functionals, gCP, sTDA/sTD-DF
   Ed Valeev                                     : LibInt (2-el integral package), F12 methods
   Garnet Chan, S. Sharma, J. Yang, R. Olivares  : DMRG
   Ulf Ekstrom                                   : XCFun DFT Library
   Mihaly Kallay                                 : mrcc  (arbitrary order and MRCC methods)
   Andreas Klamt, Michael Diedenhofen            : otool_cosmo (COSMO solvation model)
   Jiri Pittner, Ondrej Demel                    : Mk-CCSD
   Frank Weinhold                                : gennbo (NPA and NBO analysis)
   Christopher J. Cramer and Donald G. Truhlar   : smd solvation model
   Lars Goerigk                                  : TD-DFT with DH, B97 family of functionals
   V. Asgeirsson, H. Jonsson                     : NEB implementation
   FAccTs GmbH                                   : IRC, NEB, NEB-TS, Multilevel


 Your calculation uses the libint2 library for the computation of 2-el integrals
 For citations please refer to: http://libint.valeyev.net

 This ORCA versions uses:
   CBLAS   interface :  Fast vector & matrix operations
   LAPACKE interface :  Fast linear algebra routines
   SCALAPACK package :  Parallel linear algebra routines


----- Orbital basis set information -----
Your calculation utilizes the basis: aug-pc-4
   H, C-F              : F. Jensen, J. Chem. Phys. 115, 9113 (2001).
                         F. Jensen, J. Chem. Phys. 116, 7372 (2002).
                         F. Jensen, J. Chem. Phys. 117, 9234 (2002).
   Si-Cl               : F. Jensen, T. Helgaker, J. Chem. Phys. 121, 3463 (2004).
   He-B, Ne-Mg, Al, Ar : F. Jensen, J. Phys. Chem. A 111, 11198 (2007).
   K, Ca, Ga-Kr        : F. Jensen, J. Chem. Phys. 136, 094110 (2012).
   Sc-Zn               : F. Jensen, J. Chem. Phys. 138, 014107 (2013).

================================================================================
                                        WARNINGS
                       Please study these warnings very carefully!
================================================================================


INFO   : the flag for use of LIBINT has been found!

================================================================================
                                       INPUT FILE
================================================================================
NAME = c2h2_pbe.inp
|  1> !uks pbe nori aug-pc-4 grid5 nofinalgrid verytightscf
|  2> 
|  3> %maxcore 1500
|  4> 
|  5> %pal nprocs 4 end
|  6> 
|  7> %scf
|  8> 	maxiter 200
|  9> end
| 10> %elprop
| 11> 	dipole true
| 12> 	 polar 1
| 13> 	 maxiter 200
| 14> end
| 15> 
| 16> * xyz 0 1
| 17> C 0.0000 0.0000 0.6013
| 18> C 0.0000 0.0000 -0.6013
| 19> H 0.0000 0.0000 1.6644
| 20> H 0.0000 0.0000 -1.6644
| 21> *
| 22> 
| 23>                          ****END OF INPUT****
================================================================================

                       ****************************
                       * Single Point Calculation *
                       ****************************

---------------------------------
CARTESIAN COORDINATES (ANGSTROEM)
---------------------------------
  C      0.000000    0.000000    0.601300
  C      0.000000    0.000000   -0.601300
  H      0.000000    0.000000    1.664400
  H      0.000000    0.000000   -1.664400

----------------------------
CARTESIAN COORDINATES (A.U.)
----------------------------
  NO LB      ZA    FRAG     MASS         X           Y           Z
   0 C     6.0000    0    12.011    0.000000    0.000000    1.136292
   1 C     6.0000    0    12.011    0.000000    0.000000   -1.136292
   2 H     1.0000    0     1.008    0.000000    0.000000    3.145260
   3 H     1.0000    0     1.008    0.000000    0.000000   -3.145260

--------------------------------
INTERNAL COORDINATES (ANGSTROEM)
--------------------------------
 C      0   0   0     0.000000000000     0.00000000     0.00000000
 C      1   0   0     1.202600000000     0.00000000     0.00000000
 H      1   2   0     1.063100000000   180.00000000     0.00000000
 H      2   1   3     1.063100000000   180.00000000     0.00000000

---------------------------
INTERNAL COORDINATES (A.U.)
---------------------------
 C      0   0   0     0.000000000000     0.00000000     0.00000000
 C      1   0   0     2.272584648654     0.00000000     0.00000000
 H      1   2   0     2.008967852972   180.00000000     0.00000000
 H      2   1   3     2.008967852972   180.00000000     0.00000000

---------------------
BASIS SET INFORMATION
---------------------
There are 2 groups of distinct atoms

 Group   1 Type C   : 28s12p7d4f3g2h contracted to 9s8p7d4f3g2h pattern {11101111111/51111111/1111111/1111/111/11}
 Group   2 Type H   : 12s7p4d3f2g contracted to 8s7p4d3f2g pattern {51111111/1111111/1111/111/11}

Atom   0C    basis set group =>   1
Atom   1C    basis set group =>   1
Atom   2H    basis set group =>   2
Atom   3H    basis set group =>   2


           ************************************************************
           *        Program running with 4 parallel MPI-processes     *
           *              working on a common directory               *
           ************************************************************
------------------------------------------------------------------------------
                           ORCA GTO INTEGRAL CALCULATION
------------------------------------------------------------------------------

                         BASIS SET STATISTICS AND STARTUP INFO

 # of primitive gaussian shells          ...  168
 # of primitive gaussian functions       ...  536
 # of contracted shells                  ...  114
 # of contracted basis functions         ...  466
 Highest angular momentum                ...    5
 Maximum contraction depth               ...   11
 Integral package used                   ... LIBINT
 Integral threshhold            Thresh   ...  1.000e-12
 Primitive cut-off              TCut     ...  1.000e-14


------------------------------ INTEGRAL EVALUATION ----------------------------


 * One electron integrals 
 Pre-screening matrix                    ... done
 Shell pair data                         ... done (   0.002 sec)



           ************************************************************
           *        Program running with 4 parallel MPI-processes     *
           *              working on a common directory               *
           ************************************************************
-------------------------------------------------------------------------------
                                 ORCA SCF
-------------------------------------------------------------------------------

------------
SCF SETTINGS
------------
Hamiltonian:
 Density Functional     Method          .... DFT(GTOs)
 Exchange Functional    Exchange        .... PBE
   PBE kappa parameter   XKappa         ....  0.804000
   PBE mue parameter    XMuePBE         ....  0.219520
 Correlation Functional Correlation     .... PBE
   PBE beta parameter  CBetaPBE         ....  0.066725
 LDA part of GGA corr.  LDAOpt          .... PW91-LDA
 Gradients option       PostSCFGGA      .... off
   Density functional embedding theory  .... OFF
   NL short-range parameter             ....  6.400000


General Settings:
 Integral files         IntName         .... c2h2_pbe
 Hartree-Fock type      HFTyp           .... UHF
 Total Charge           Charge          ....    0
 Multiplicity           Mult            ....    1
 Number of Electrons    NEL             ....   14
 Basis Dimension        Dim             ....  466
 Nuclear Repulsion      ENuc            ....     24.7759016674 Eh

Convergence Acceleration:
 DIIS                   CNVDIIS         .... on
   Start iteration      DIISMaxIt       ....    12
   Startup error        DIISStart       ....  0.200000
   # of expansion vecs  DIISMaxEq       ....     5
   Bias factor          DIISBfac        ....   1.050
   Max. coefficient     DIISMaxC        ....  10.000
 Newton-Raphson         CNVNR           .... off
 SOSCF                  CNVSOSCF        .... off
 Level Shifting         CNVShift        .... on
   Level shift para.    LevelShift      ....    0.2500
   Turn off err/grad.   ShiftErr        ....    0.0010
 Zerner damping         CNVZerner       .... off
 Static damping         CNVDamp         .... on
   Fraction old density DampFac         ....    0.7000
   Max. Damping (<1)    DampMax         ....    0.9800
   Min. Damping (>=0)   DampMin         ....    0.0000
   Turn off err/grad.   DampErr         ....    0.1000
 Fernandez-Rico         CNVRico         .... off

SCF Procedure:
 Maximum # iterations   MaxIter         ....   200
 SCF integral mode      SCFMode         .... Direct
   Integral package                     .... LIBINT
 Reset frequency        DirectResetFreq ....    20
 Integral Threshold     Thresh          ....  1.000e-12 Eh
 Primitive CutOff       TCut            ....  1.000e-14 Eh

Convergence Tolerance:
 Convergence Check Mode ConvCheckMode   .... Total+1el-Energy
 Convergence forced     ConvForced      .... 0
 Energy Change          TolE            ....  1.000e-09 Eh
 1-El. energy change                    ....  1.000e-06 Eh
 DIIS Error             TolErr          ....  1.000e-08


Diagonalization of the overlap matrix:
Smallest eigenvalue                        ... 2.651e-08
Time for diagonalization                   ...    0.089 sec
Threshold for overlap eigenvalues          ... 1.000e-08
Number of eigenvalues below threshold      ... 0
Time for construction of square roots      ...    0.035 sec
Total time needed                          ...    0.125 sec

-------------------
DFT GRID GENERATION
-------------------

General Integration Accuracy     IntAcc      ...  5.010
Radial Grid Type                 RadialGrid  ... Gauss-Chebyshev
Angular Grid (max. acc.)         AngularGrid ... Lebedev-434
Angular grid pruning method      GridPruning ... 3 (G Style)
Weight generation scheme         WeightScheme... Becke
Basis function cutoff            BFCut       ...    1.0000e-12
Integration weight cutoff        WCut        ...    1.0000e-14
Grids for H and He will be reduced by one unit

# of grid points (after initial pruning)     ...  34780 (   0.0 sec)
# of grid points (after weights+screening)   ...  34150 (   0.0 sec)
nearest neighbour list constructed           ...    0.0 sec
Grid point re-assignment to atoms done       ...    0.0 sec
Grid point division into batches done        ...    0.2 sec
Reduced shell lists constructed in    0.4 sec

Total number of grid points                  ...    34150
Total number of batches                      ...      536
Average number of points per batch           ...       63
Average number of grid points per atom       ...     8538
Average number of shells per batch           ...    91.41 (80.19%)
Average number of basis functions per batch  ...   382.33 (82.05%)
Average number of large shells per batch     ...    83.42 (91.26%)
Average number of large basis fcns per batch ...   352.70 (92.25%)
Maximum spatial batch extension              ...  27.58, 27.58,  2.10 au
Average spatial batch extension              ...   0.87,  0.86,  0.31 au

Time for grid setup =    0.408 sec

------------------------------
INITIAL GUESS: MODEL POTENTIAL
------------------------------
Loading Hartree-Fock densities                     ... done
Calculating cut-offs                               ... done
Setting up the integral package                    ... done
Initializing the effective Hamiltonian             ... done
Starting the Coulomb interaction                   ... done (   0.0 sec)
Reading the grid                                   ... done
Mapping shells                                     ... done
Starting the XC term evaluation                    ... done (   0.9 sec)
  promolecular density results
     # of electrons  =     13.999016747
     EX              =    -10.726955133
     EC              =     -0.421409761
     EX+EC           =    -11.148364894
Transforming the Hamiltonian                       ... done (   0.0 sec)
Diagonalizing the Hamiltonian                      ... done (   0.1 sec)
Back transforming the eigenvectors                 ... done (   0.0 sec)
Now organizing SCF variables                       ... done
                      ------------------
                      INITIAL GUESS DONE (   1.6 sec)
                      ------------------
--------------
SCF ITERATIONS
--------------
ITER       Energy         Delta-E        Max-DP      RMS-DP      [F,P]     Damp
               ***  Starting incremental Fock matrix formation  ***
  0    -77.1842418485   0.000000000000 0.01537496  0.00016790  0.1382663 0.7000
  1    -77.2199777181  -0.035735869618 0.01510436  0.00013426  0.0700424 0.7000
                               ***Turning on DIIS***
  2    -77.2339512587  -0.013973540557 0.02213199  0.00023315  0.0244466 0.0000
  3    -77.2512054308  -0.017254172106 0.01165930  0.00008641  0.0450884 0.0000
  4    -77.2583870155  -0.007181584686 0.00453623  0.00003092  0.0105609 0.0000
  5    -77.2588343505  -0.000447335027 0.00057974  0.00000607  0.0027596 0.0000
  6    -77.2588664691  -0.000032118582 0.00067115  0.00000512  0.0010030 0.0000
  7    -77.2588702697  -0.000003800608 0.00022924  0.00000193  0.0004208 0.0000
  8    -77.2588710922  -0.000000822527 0.00007670  0.00000083  0.0000071 0.0000
  9    -77.2588710924  -0.000000000132 0.00009744  0.00000063  0.0000021 0.0000
                 **** Energy Check signals convergence ****

               *****************************************************
               *                     SUCCESS                       *
               *           SCF CONVERGED AFTER  10 CYCLES          *
               *****************************************************


----------------
TOTAL SCF ENERGY
----------------

Total Energy       :          -77.25887109 Eh           -2102.32076 eV

Components:
Nuclear Repulsion  :           24.77590167 Eh             674.18656 eV
Electronic Energy  :         -102.03477276 Eh           -2776.50732 eV
One Electron Energy:         -151.97846213 Eh           -4135.54420 eV
Two Electron Energy:           49.94368937 Eh            1359.03688 eV

Virial components:
Potential Energy   :         -154.20910770 Eh           -4196.24315 eV
Kinetic Energy     :           76.95023661 Eh            2093.92239 eV
Virial Ratio       :            2.00401083


DFT components:
N(Alpha)           :        6.999999062137 electrons
N(Beta)            :        6.999999062137 electrons
N(Total)           :       13.999998124274 electrons
E(X)               :      -10.960851259387 Eh       
E(C)               :       -0.429431084718 Eh       
E(XC)              :      -11.390282344105 Eh       
DFET-embed. en.    :        0.000000000000 Eh       

---------------
SCF CONVERGENCE
---------------

  Last Energy change         ...   -7.0770e-12  Tolerance :   1.0000e-09
  Last MAX-Density change    ...    2.3277e-04  Tolerance :   1.0000e-08
  Last RMS-Density change    ...    1.5593e-06  Tolerance :   1.0000e-09
  Last DIIS Error            ...    3.6050e-07  Tolerance :   1.0000e-08

             **** THE GBW FILE WAS UPDATED (c2h2_pbe.gbw) ****
             **** DENSITY FILE WAS UPDATED (c2h2_pbe.scfp.tmp) ****
             **** ENERGY FILE WAS UPDATED (c2h2_pbe.en.tmp) ****
----------------------
UHF SPIN CONTAMINATION
----------------------

Warning: in a DFT calculation there is little theoretical justification to 
         calculate <S**2> as in Hartree-Fock theory. We will do it anyways
         but you should keep in mind that the values have only limited relevance

Expectation value of <S**2>     :     0.000000
Ideal value S*(S+1) for S=0.0   :     0.000000
Deviation                       :     0.000000

----------------
ORBITAL ENERGIES
----------------
                 SPIN UP ORBITALS
  NO   OCC          E(Eh)            E(eV) 
   0   1.0000      -9.895145      -269.2606 
   1   1.0000      -9.892965      -269.2013 
   2   1.0000      -0.683633       -18.6026 
   3   1.0000      -0.516592       -14.0572 
   4   1.0000      -0.448450       -12.2029 
   5   1.0000      -0.264555        -7.1989 
   6   1.0000      -0.264555        -7.1989 
   7   0.0000      -0.015322        -0.4169 
   8   0.0000      -0.015322        -0.4169 
   9   0.0000      -0.006588        -0.1793 
  10   0.0000       0.002235         0.0608 
  11   0.0000       0.018164         0.4943 
  12   0.0000       0.018164         0.4943 
  13   0.0000       0.030128         0.8198 
  14   0.0000       0.040113         1.0915 
  15   0.0000       0.040370         1.0985 
  16   0.0000       0.040370         1.0985 
  17   0.0000       0.043798         1.1918 
  18   0.0000       0.055104         1.4995 
  19   0.0000       0.068753         1.8709 
  20   0.0000       0.078345         2.1319 
  21   0.0000       0.078345         2.1319 
  22   0.0000       0.081553         2.2192 
  23   0.0000       0.081553         2.2192 
  24   0.0000       0.099015         2.6943 
  25   0.0000       0.110351         3.0028 
  26   0.0000       0.110351         3.0028 
  27   0.0000       0.119015         3.2386 
  28   0.0000       0.119015         3.2386 
  29   0.0000       0.126417         3.4400 
  30   0.0000       0.126418         3.4400 
  31   0.0000       0.133597         3.6354 
  32   0.0000       0.136021         3.7013 
  33   0.0000       0.150524         4.0960 
  34   0.0000       0.150524         4.0960 
  35   0.0000       0.152078         4.1383 
  36   0.0000       0.165665         4.5080 
  37   0.0000       0.171113         4.6562 
  38   0.0000       0.185237         5.0405 
  39   0.0000       0.185237         5.0405 
  40   0.0000       0.206613         5.6222 
  41   0.0000       0.210632         5.7316 
  42   0.0000       0.210632         5.7316 
  43   0.0000       0.220287         5.9943 
  44   0.0000       0.220287         5.9943 
  45   0.0000       0.230454         6.2710 
  46   0.0000       0.230454         6.2710 
  47   0.0000       0.237090         6.4515 
  48   0.0000       0.237091         6.4516 
  49   0.0000       0.239070         6.5054 
  50   0.0000       0.239070         6.5054 
  51   0.0000       0.262232         7.1357 
  52   0.0000       0.262232         7.1357 
  53   0.0000       0.265095         7.2136 
  54   0.0000       0.265096         7.2136 
  55   0.0000       0.270017         7.3475 
  56   0.0000       0.286454         7.7948 
  57   0.0000       0.286454         7.7948 
  58   0.0000       0.286497         7.7960 
  59   0.0000       0.291386         7.9290 
  60   0.0000       0.291386         7.9290 
  61   0.0000       0.303812         8.2672 
  62   0.0000       0.306362         8.3365 
  63   0.0000       0.306362         8.3365 
  64   0.0000       0.307414         8.3652 
  65   0.0000       0.324127         8.8199 
  66   0.0000       0.325388         8.8542 
  67   0.0000       0.325390         8.8543 
  68   0.0000       0.345078         9.3900 
  69   0.0000       0.345078         9.3900 
  70   0.0000       0.370799        10.0899 
  71   0.0000       0.370799        10.0899 
  72   0.0000       0.380676        10.3587 
  73   0.0000       0.380680        10.3588 
  74   0.0000       0.387071        10.5327 
  75   0.0000       0.396099        10.7784 
  76   0.0000       0.421069        11.4579 
  77   0.0000       0.421071        11.4579 
  78   0.0000       0.447887        12.1876 
  79   0.0000       0.450340        12.2544 
  80   0.0000       0.450340        12.2544 
  81   0.0000       0.454658        12.3719 
  82   0.0000       0.454658        12.3719 
  83   0.0000       0.459017        12.4905 
  84   0.0000       0.459017        12.4905 
  85   0.0000       0.477960        13.0059 
  86   0.0000       0.477960        13.0060 
  87   0.0000       0.482498        13.1294 
  88   0.0000       0.482498        13.1294 
  89   0.0000       0.494241        13.4490 
  90   0.0000       0.494241        13.4490 
  91   0.0000       0.499434        13.5903 
  92   0.0000       0.499434        13.5903 
  93   0.0000       0.510154        13.8820 
  94   0.0000       0.510155        13.8820 
  95   0.0000       0.519576        14.1384 
  96   0.0000       0.522130        14.2079 
  97   0.0000       0.524146        14.2627 
  98   0.0000       0.524146        14.2627 
  99   0.0000       0.532818        14.4987 
 100   0.0000       0.535605        14.5745 
 101   0.0000       0.535605        14.5745 
 102   0.0000       0.538802        14.6615 
 103   0.0000       0.540587        14.7101 
 104   0.0000       0.540587        14.7101 
 105   0.0000       0.554996        15.1022 
 106   0.0000       0.555000        15.1023 
 107   0.0000       0.567387        15.4394 
 108   0.0000       0.567387        15.4394 
 109   0.0000       0.588136        16.0040 
 110   0.0000       0.597952        16.2711 
 111   0.0000       0.597952        16.2711 
 112   0.0000       0.604509        16.4495 
 113   0.0000       0.604511        16.4496 
 114   0.0000       0.604803        16.4575 
 115   0.0000       0.604803        16.4575 
 116   0.0000       0.639545        17.4029 
 117   0.0000       0.639546        17.4029 
 118   0.0000       0.660722        17.9792 
 119   0.0000       0.668469        18.1900 
 120   0.0000       0.668469        18.1900 
 121   0.0000       0.687583        18.7101 
 122   0.0000       0.711778        19.3685 
 123   0.0000       0.711778        19.3685 
 124   0.0000       0.732563        19.9341 
 125   0.0000       0.732575        19.9344 
 126   0.0000       0.732576        19.9344 
 127   0.0000       0.737990        20.0817 
 128   0.0000       0.737996        20.0819 
 129   0.0000       0.764934        20.8149 
 130   0.0000       0.764934        20.8149 
 131   0.0000       0.799471        21.7547 
 132   0.0000       0.799473        21.7548 
 133   0.0000       0.800819        21.7914 
 134   0.0000       0.800860        21.7925 
 135   0.0000       0.800860        21.7925 
 136   0.0000       0.828118        22.5342 
 137   0.0000       0.828120        22.5343 
 138   0.0000       0.834227        22.7005 
 139   0.0000       0.834227        22.7005 
 140   0.0000       0.853588        23.2273 
 141   0.0000       0.853588        23.2273 
 142   0.0000       0.855898        23.2902 
 143   0.0000       0.855898        23.2902 
 144   0.0000       0.863431        23.4951 
 145   0.0000       0.863431        23.4951 
 146   0.0000       0.867380        23.6026 
 147   0.0000       0.878845        23.9146 
 148   0.0000       0.886092        24.1118 
 149   0.0000       0.886092        24.1118 
 150   0.0000       0.890042        24.2193 
 151   0.0000       0.890048        24.2194 
 152   0.0000       0.907694        24.6996 
 153   0.0000       0.907698        24.6997 
 154   0.0000       0.915248        24.9052 
 155   0.0000       0.915250        24.9052 
 156   0.0000       0.917759        24.9735 
 157   0.0000       0.917759        24.9735 
 158   0.0000       0.925380        25.1809 
 159   0.0000       0.975580        26.5469 
 160   0.0000       0.975581        26.5469 
 161   0.0000       0.977065        26.5873 
 162   0.0000       1.009157        27.4605 
 163   0.0000       1.011864        27.5342 
 164   0.0000       1.018716        27.7207 
 165   0.0000       1.018716        27.7207 
 166   0.0000       1.023463        27.8499 
 167   0.0000       1.023464        27.8499 
 168   0.0000       1.036216        28.1969 
 169   0.0000       1.091138        29.6914 
 170   0.0000       1.091138        29.6914 
 171   0.0000       1.105104        30.0714 
 172   0.0000       1.163794        31.6685 
 173   0.0000       1.163795        31.6685 
 174   0.0000       1.168031        31.7837 
 175   0.0000       1.175411        31.9846 
 176   0.0000       1.175413        31.9846 
 177   0.0000       1.352606        36.8063 
 178   0.0000       1.352606        36.8063 
 179   0.0000       1.361401        37.0456 
 180   0.0000       1.388743        37.7896 
 181   0.0000       1.388743        37.7896 
 182   0.0000       1.392244        37.8849 
 183   0.0000       1.491301        40.5804 
 184   0.0000       1.491302        40.5804 
 185   0.0000       1.494235        40.6602 
 186   0.0000       1.494235        40.6602 
 187   0.0000       1.507951        41.0334 
 188   0.0000       1.507951        41.0334 
 189   0.0000       1.582790        43.0699 
 190   0.0000       1.624769        44.2122 
 191   0.0000       1.624769        44.2122 
 192   0.0000       1.636319        44.5265 
 193   0.0000       1.662680        45.2438 
 194   0.0000       1.685767        45.8720 
 195   0.0000       1.715907        46.6922 
 196   0.0000       1.715907        46.6922 
 197   0.0000       1.779088        48.4115 
 198   0.0000       1.779088        48.4115 
 199   0.0000       1.821046        49.5532 
 200   0.0000       1.895451        51.5779 
 201   0.0000       1.895453        51.5779 
 202   0.0000       1.930986        52.5448 
 203   0.0000       1.942406        52.8556 
 204   0.0000       1.942406        52.8556 
 205   0.0000       1.994311        54.2680 
 206   0.0000       1.994311        54.2680 
 207   0.0000       2.089386        56.8551 
 208   0.0000       2.089386        56.8551 
 209   0.0000       2.097508        57.0761 
 210   0.0000       2.245295        61.0976 
 211   0.0000       2.245297        61.0976 
 212   0.0000       2.273475        61.8644 
 213   0.0000       2.273475        61.8644 
 214   0.0000       2.387113        64.9566 
 215   0.0000       2.432018        66.1786 
 216   0.0000       2.432019        66.1786 
 217   0.0000       2.489965        67.7554 
 218   0.0000       2.514404        68.4204 
 219   0.0000       2.514407        68.4205 
 220   0.0000       2.652897        72.1890 
 221   0.0000       2.653264        72.1990 
 222   0.0000       2.701693        73.5168 
 223   0.0000       2.770664        75.3936 
 224   0.0000       2.770664        75.3936 
 225   0.0000       2.803503        76.2872 
 226   0.0000       2.803503        76.2872 
 227   0.0000       2.978302        81.0437 
 228   0.0000       2.984470        81.2116 
 229   0.0000       2.984471        81.2116 
 230   0.0000       3.087348        84.0110 
 231   0.0000       3.087348        84.0110 
 232   0.0000       3.251641        88.4816 
 233   0.0000       3.258793        88.6763 
 234   0.0000       3.258793        88.6763 
 235   0.0000       3.331483        90.6543 
 236   0.0000       3.413423        92.8840 
 237   0.0000       3.413423        92.8840 
 238   0.0000       3.501701        95.2861 
 239   0.0000       3.594353        97.8073 
 240   0.0000       3.594353        97.8073 
 241   0.0000       3.622914        98.5845 
 242   0.0000       3.622914        98.5845 
 243   0.0000       3.683064       100.2213 
 244   0.0000       3.683064       100.2213 
 245   0.0000       3.886612       105.7601 
 246   0.0000       3.886612       105.7601 
 247   0.0000       3.898177       106.0748 
 248   0.0000       3.898177       106.0748 
 249   0.0000       3.919411       106.6526 
 250   0.0000       3.919411       106.6526 
 251   0.0000       4.007780       109.0572 
 252   0.0000       4.007782       109.0573 
 253   0.0000       4.010818       109.1399 
 254   0.0000       4.093751       111.3966 
 255   0.0000       4.093751       111.3966 
 256   0.0000       4.186384       113.9173 
 257   0.0000       4.202006       114.3424 
 258   0.0000       4.202006       114.3424 
 259   0.0000       4.227100       115.0252 
 260   0.0000       4.227100       115.0252 
 261   0.0000       4.278649       116.4280 
 262   0.0000       4.278650       116.4280 
 263   0.0000       4.288855       116.7057 
 264   0.0000       4.288855       116.7057 
 265   0.0000       4.342573       118.1674 
 266   0.0000       4.342573       118.1674 
 267   0.0000       4.388237       119.4100 
 268   0.0000       4.456048       121.2552 
 269   0.0000       4.456048       121.2552 
 270   0.0000       4.517316       122.9224 
 271   0.0000       4.569886       124.3529 
 272   0.0000       4.670370       127.0872 
 273   0.0000       4.670371       127.0872 
 274   0.0000       4.734728       128.8385 
 275   0.0000       4.734728       128.8385 
 276   0.0000       4.779611       130.0598 
 277   0.0000       4.837313       131.6300 
 278   0.0000       4.844599       131.8283 
 279   0.0000       4.844603       131.8284 
 280   0.0000       4.936541       134.3301 
 281   0.0000       4.936541       134.3301 
 282   0.0000       5.039489       137.1315 
 283   0.0000       5.039489       137.1315 
 284   0.0000       5.075692       138.1166 
 285   0.0000       5.075692       138.1166 
 286   0.0000       5.291629       143.9926 
 287   0.0000       5.291629       143.9926 
 288   0.0000       5.461158       148.6057 
 289   0.0000       5.552527       151.0920 
 290   0.0000       5.659730       154.0091 
 291   0.0000       5.659730       154.0091 
 292   0.0000       5.708874       155.3464 
 293   0.0000       6.058225       164.8527 
 294   0.0000       6.058225       164.8527 
 295   0.0000       6.074486       165.2952 
 296   0.0000       6.136092       166.9716 
 297   0.0000       6.136092       166.9716 
 298   0.0000       6.415709       174.5803 
 299   0.0000       6.415709       174.5803 
 300   0.0000       6.506040       177.0384 
 301   0.0000       6.608712       179.8322 
 302   0.0000       6.608712       179.8322 
 303   0.0000       6.868193       186.8930 
 304   0.0000       7.117117       193.6666 
 305   0.0000       7.117117       193.6666 
 306   0.0000       7.214499       196.3165 
 307   0.0000       7.346861       199.9182 
 308   0.0000       7.346869       199.9185 
 309   0.0000       7.641931       207.9475 
 310   0.0000       7.815969       212.6833 
 311   0.0000       7.815969       212.6833 
 312   0.0000       8.040413       218.7908 
 313   0.0000       8.196785       223.0459 
 314   0.0000       8.268455       224.9961 
 315   0.0000       8.268455       224.9961 
 316   0.0000       8.456497       230.1130 
 317   0.0000       8.684483       236.3168 
 318   0.0000       8.684484       236.3168 
 319   0.0000       8.857392       241.0219 
 320   0.0000       8.857392       241.0219 
 321   0.0000       8.923984       242.8340 
 322   0.0000       8.923985       242.8340 
 323   0.0000       9.042314       246.0539 
 324   0.0000       9.042314       246.0539 
 325   0.0000       9.464161       257.5329 
 326   0.0000       9.774606       265.9806 
 327   0.0000       9.962235       271.0862 
 328   0.0000       9.962235       271.0862 
 329   0.0000      10.077444       274.2212 
 330   0.0000      10.077446       274.2212 
 331   0.0000      10.208424       277.7853 
 332   0.0000      10.221104       278.1304 
 333   0.0000      10.221104       278.1304 
 334   0.0000      10.251155       278.9481 
 335   0.0000      10.251155       278.9481 
 336   0.0000      10.257590       279.1232 
 337   0.0000      10.257590       279.1232 
 338   0.0000      10.338804       281.3332 
 339   0.0000      10.338806       281.3332 
 340   0.0000      10.349658       281.6285 
 341   0.0000      10.349658       281.6285 
 342   0.0000      10.538347       286.7630 
 343   0.0000      10.538347       286.7630 
 344   0.0000      10.723242       291.7942 
 345   0.0000      10.723242       291.7942 
 346   0.0000      10.813167       294.2412 
 347   0.0000      10.832293       294.7617 
 348   0.0000      10.832294       294.7617 
 349   0.0000      10.867407       295.7172 
 350   0.0000      10.867407       295.7172 
 351   0.0000      11.219739       305.3046 
 352   0.0000      11.291314       307.2523 
 353   0.0000      11.291316       307.2523 
 354   0.0000      11.417953       310.6983 
 355   0.0000      11.417956       310.6984 
 356   0.0000      11.556166       314.4593 
 357   0.0000      11.556166       314.4593 
 358   0.0000      11.561214       314.5966 
 359   0.0000      11.561214       314.5966 
 360   0.0000      11.621450       316.2357 
 361   0.0000      11.621451       316.2358 
 362   0.0000      11.662494       317.3526 
 363   0.0000      11.662494       317.3526 
 364   0.0000      11.693720       318.2023 
 365   0.0000      11.693728       318.2025 
 366   0.0000      11.711347       318.6819 
 367   0.0000      11.764956       320.1407 
 368   0.0000      11.803962       321.2021 
 369   0.0000      11.803962       321.2021 
 370   0.0000      11.838733       322.1483 
 371   0.0000      11.838736       322.1484 
 372   0.0000      11.863498       322.8222 
 373   0.0000      11.863507       322.8224 
 374   0.0000      11.976250       325.8903 
 375   0.0000      11.976250       325.8903 
 376   0.0000      12.004705       326.6646 
 377   0.0000      12.274000       333.9925 
 378   0.0000      12.274002       333.9926 
 379   0.0000      12.304716       334.8284 
 380   0.0000      12.304716       334.8284 
 381   0.0000      12.346886       335.9758 
 382   0.0000      12.346886       335.9758 
 383   0.0000      12.417396       337.8945 
 384   0.0000      12.417396       337.8945 
 385   0.0000      12.505172       340.2830 
 386   0.0000      12.505172       340.2830 
 387   0.0000      12.626627       343.5880 
 388   0.0000      12.796116       348.2000 
 389   0.0000      12.796116       348.2000 
 390   0.0000      12.920460       351.5836 
 391   0.0000      13.385612       364.2410 
 392   0.0000      13.534834       368.3016 
 393   0.0000      13.534834       368.3016 
 394   0.0000      13.600030       370.0756 
 395   0.0000      13.600035       370.0758 
 396   0.0000      13.687522       372.4564 
 397   0.0000      13.687522       372.4564 
 398   0.0000      13.709181       373.0458 
 399   0.0000      13.817977       376.0063 
 400   0.0000      13.817977       376.0063 
 401   0.0000      14.940962       406.5643 
 402   0.0000      15.251075       415.0029 
 403   0.0000      15.369901       418.2363 
 404   0.0000      15.369902       418.2363 
 405   0.0000      15.462984       420.7692 
 406   0.0000      15.462984       420.7692 
 407   0.0000      16.706726       454.6131 
 408   0.0000      16.706748       454.6137 
 409   0.0000      16.709845       454.6980 
 410   0.0000      16.709866       454.6986 
 411   0.0000      16.711916       454.7544 
 412   0.0000      16.750108       455.7936 
 413   0.0000      16.750108       455.7936 
 414   0.0000      16.868623       459.0186 
 415   0.0000      17.093807       465.1461 
 416   0.0000      17.093807       465.1461 
 417   0.0000      17.187363       467.6919 
 418   0.0000      17.187363       467.6919 
 419   0.0000      17.249457       469.3816 
 420   0.0000      17.249457       469.3816 
 421   0.0000      17.898034       487.0303 
 422   0.0000      18.077160       491.9045 
 423   0.0000      18.303210       498.0557 
 424   0.0000      18.303210       498.0557 
 425   0.0000      18.681510       508.3497 
 426   0.0000      18.681520       508.3500 
 427   0.0000      19.135216       520.6957 
 428   0.0000      19.306966       525.3693 
 429   0.0000      19.306976       525.3695 
 430   0.0000      19.602883       533.4216 
 431   0.0000      19.602883       533.4216 
 432   0.0000      20.584789       560.1406 
 433   0.0000      21.005823       571.5975 
 434   0.0000      21.005823       571.5975 
 435   0.0000      21.011992       571.7654 
 436   0.0000      21.814746       593.6094 
 437   0.0000      21.814746       593.6094 
 438   0.0000      22.597299       614.9038 
 439   0.0000      23.821921       648.2274 
 440   0.0000      23.821921       648.2274 
 441   0.0000      24.017440       653.5478 
 442   0.0000      24.017440       653.5478 
 443   0.0000      24.816206       675.2833 
 444   0.0000      26.010466       707.7808 
 445   0.0000      26.225645       713.6361 
 446   0.0000      31.918055       868.5344 
 447   0.0000      31.918095       868.5355 
 448   0.0000      32.012663       871.1088 
 449   0.0000      32.012702       871.1099 
 450   0.0000      32.292558       878.7252 
 451   0.0000      32.292558       878.7252 
 452   0.0000      33.534910       912.5313 
 453   0.0000      33.534910       912.5313 
 454   0.0000      34.211190       930.9338 
 455   0.0000      35.973472       978.8879 
 456   0.0000      41.347059      1125.1107 
 457   0.0000      42.018898      1143.3924 
 458   0.0000      76.923986      2093.2081 
 459   0.0000      77.377585      2105.5511 
 460   0.0000      91.211738      2481.9976 
 461   0.0000      91.211738      2481.9976 
 462   0.0000      91.339423      2485.4721 
 463   0.0000      91.339423      2485.4721 
 464   0.0000      92.544726      2518.2700 
 465   0.0000      92.610008      2520.0464 

                 SPIN DOWN ORBITALS
  NO   OCC          E(Eh)            E(eV) 
   0   1.0000      -9.895145      -269.2606 
   1   1.0000      -9.892965      -269.2013 
   2   1.0000      -0.683633       -18.6026 
   3   1.0000      -0.516592       -14.0572 
   4   1.0000      -0.448450       -12.2029 
   5   1.0000      -0.264555        -7.1989 
   6   1.0000      -0.264555        -7.1989 
   7   0.0000      -0.015322        -0.4169 
   8   0.0000      -0.015322        -0.4169 
   9   0.0000      -0.006588        -0.1793 
  10   0.0000       0.002235         0.0608 
  11   0.0000       0.018164         0.4943 
  12   0.0000       0.018164         0.4943 
  13   0.0000       0.030128         0.8198 
  14   0.0000       0.040113         1.0915 
  15   0.0000       0.040370         1.0985 
  16   0.0000       0.040370         1.0985 
  17   0.0000       0.043798         1.1918 
  18   0.0000       0.055104         1.4995 
  19   0.0000       0.068753         1.8709 
  20   0.0000       0.078345         2.1319 
  21   0.0000       0.078345         2.1319 
  22   0.0000       0.081553         2.2192 
  23   0.0000       0.081553         2.2192 
  24   0.0000       0.099015         2.6943 
  25   0.0000       0.110351         3.0028 
  26   0.0000       0.110351         3.0028 
  27   0.0000       0.119015         3.2386 
  28   0.0000       0.119015         3.2386 
  29   0.0000       0.126417         3.4400 
  30   0.0000       0.126418         3.4400 
  31   0.0000       0.133597         3.6354 
  32   0.0000       0.136021         3.7013 
  33   0.0000       0.150524         4.0960 
  34   0.0000       0.150524         4.0960 
  35   0.0000       0.152078         4.1383 
  36   0.0000       0.165665         4.5080 
  37   0.0000       0.171113         4.6562 
  38   0.0000       0.185237         5.0405 
  39   0.0000       0.185237         5.0405 
  40   0.0000       0.206613         5.6222 
  41   0.0000       0.210632         5.7316 
  42   0.0000       0.210632         5.7316 
  43   0.0000       0.220287         5.9943 
  44   0.0000       0.220287         5.9943 
  45   0.0000       0.230454         6.2710 
  46   0.0000       0.230454         6.2710 
  47   0.0000       0.237090         6.4515 
  48   0.0000       0.237091         6.4516 
  49   0.0000       0.239070         6.5054 
  50   0.0000       0.239070         6.5054 
  51   0.0000       0.262232         7.1357 
  52   0.0000       0.262232         7.1357 
  53   0.0000       0.265095         7.2136 
  54   0.0000       0.265096         7.2136 
  55   0.0000       0.270017         7.3475 
  56   0.0000       0.286454         7.7948 
  57   0.0000       0.286454         7.7948 
  58   0.0000       0.286497         7.7960 
  59   0.0000       0.291386         7.9290 
  60   0.0000       0.291386         7.9290 
  61   0.0000       0.303812         8.2672 
  62   0.0000       0.306362         8.3365 
  63   0.0000       0.306362         8.3365 
  64   0.0000       0.307414         8.3652 
  65   0.0000       0.324127         8.8199 
  66   0.0000       0.325388         8.8542 
  67   0.0000       0.325390         8.8543 
  68   0.0000       0.345078         9.3900 
  69   0.0000       0.345078         9.3900 
  70   0.0000       0.370799        10.0899 
  71   0.0000       0.370799        10.0899 
  72   0.0000       0.380676        10.3587 
  73   0.0000       0.380680        10.3588 
  74   0.0000       0.387071        10.5327 
  75   0.0000       0.396099        10.7784 
  76   0.0000       0.421069        11.4579 
  77   0.0000       0.421071        11.4579 
  78   0.0000       0.447887        12.1876 
  79   0.0000       0.450340        12.2544 
  80   0.0000       0.450340        12.2544 
  81   0.0000       0.454658        12.3719 
  82   0.0000       0.454658        12.3719 
  83   0.0000       0.459017        12.4905 
  84   0.0000       0.459017        12.4905 
  85   0.0000       0.477960        13.0059 
  86   0.0000       0.477960        13.0060 
  87   0.0000       0.482498        13.1294 
  88   0.0000       0.482498        13.1294 
  89   0.0000       0.494241        13.4490 
  90   0.0000       0.494241        13.4490 
  91   0.0000       0.499434        13.5903 
  92   0.0000       0.499434        13.5903 
  93   0.0000       0.510154        13.8820 
  94   0.0000       0.510155        13.8820 
  95   0.0000       0.519576        14.1384 
  96   0.0000       0.522130        14.2079 
  97   0.0000       0.524146        14.2627 
  98   0.0000       0.524146        14.2627 
  99   0.0000       0.532818        14.4987 
 100   0.0000       0.535605        14.5745 
 101   0.0000       0.535605        14.5745 
 102   0.0000       0.538802        14.6615 
 103   0.0000       0.540587        14.7101 
 104   0.0000       0.540587        14.7101 
 105   0.0000       0.554996        15.1022 
 106   0.0000       0.555000        15.1023 
 107   0.0000       0.567387        15.4394 
 108   0.0000       0.567387        15.4394 
 109   0.0000       0.588136        16.0040 
 110   0.0000       0.597952        16.2711 
 111   0.0000       0.597952        16.2711 
 112   0.0000       0.604509        16.4495 
 113   0.0000       0.604511        16.4496 
 114   0.0000       0.604803        16.4575 
 115   0.0000       0.604803        16.4575 
 116   0.0000       0.639545        17.4029 
 117   0.0000       0.639546        17.4029 
 118   0.0000       0.660722        17.9792 
 119   0.0000       0.668469        18.1900 
 120   0.0000       0.668469        18.1900 
 121   0.0000       0.687583        18.7101 
 122   0.0000       0.711778        19.3685 
 123   0.0000       0.711778        19.3685 
 124   0.0000       0.732563        19.9341 
 125   0.0000       0.732575        19.9344 
 126   0.0000       0.732576        19.9344 
 127   0.0000       0.737990        20.0817 
 128   0.0000       0.737996        20.0819 
 129   0.0000       0.764934        20.8149 
 130   0.0000       0.764934        20.8149 
 131   0.0000       0.799471        21.7547 
 132   0.0000       0.799473        21.7548 
 133   0.0000       0.800819        21.7914 
 134   0.0000       0.800860        21.7925 
 135   0.0000       0.800860        21.7925 
 136   0.0000       0.828118        22.5342 
 137   0.0000       0.828120        22.5343 
 138   0.0000       0.834227        22.7005 
 139   0.0000       0.834227        22.7005 
 140   0.0000       0.853588        23.2273 
 141   0.0000       0.853588        23.2273 
 142   0.0000       0.855898        23.2902 
 143   0.0000       0.855898        23.2902 
 144   0.0000       0.863431        23.4951 
 145   0.0000       0.863431        23.4951 
 146   0.0000       0.867380        23.6026 
 147   0.0000       0.878845        23.9146 
 148   0.0000       0.886092        24.1118 
 149   0.0000       0.886092        24.1118 
 150   0.0000       0.890042        24.2193 
 151   0.0000       0.890048        24.2194 
 152   0.0000       0.907694        24.6996 
 153   0.0000       0.907698        24.6997 
 154   0.0000       0.915248        24.9052 
 155   0.0000       0.915250        24.9052 
 156   0.0000       0.917759        24.9735 
 157   0.0000       0.917759        24.9735 
 158   0.0000       0.925380        25.1809 
 159   0.0000       0.975580        26.5469 
 160   0.0000       0.975581        26.5469 
 161   0.0000       0.977065        26.5873 
 162   0.0000       1.009157        27.4605 
 163   0.0000       1.011864        27.5342 
 164   0.0000       1.018716        27.7207 
 165   0.0000       1.018716        27.7207 
 166   0.0000       1.023463        27.8499 
 167   0.0000       1.023464        27.8499 
 168   0.0000       1.036216        28.1969 
 169   0.0000       1.091138        29.6914 
 170   0.0000       1.091138        29.6914 
 171   0.0000       1.105104        30.0714 
 172   0.0000       1.163794        31.6685 
 173   0.0000       1.163795        31.6685 
 174   0.0000       1.168031        31.7837 
 175   0.0000       1.175411        31.9846 
 176   0.0000       1.175413        31.9846 
 177   0.0000       1.352606        36.8063 
 178   0.0000       1.352606        36.8063 
 179   0.0000       1.361401        37.0456 
 180   0.0000       1.388743        37.7896 
 181   0.0000       1.388743        37.7896 
 182   0.0000       1.392244        37.8849 
 183   0.0000       1.491301        40.5804 
 184   0.0000       1.491302        40.5804 
 185   0.0000       1.494235        40.6602 
 186   0.0000       1.494235        40.6602 
 187   0.0000       1.507951        41.0334 
 188   0.0000       1.507951        41.0334 
 189   0.0000       1.582790        43.0699 
 190   0.0000       1.624769        44.2122 
 191   0.0000       1.624769        44.2122 
 192   0.0000       1.636319        44.5265 
 193   0.0000       1.662680        45.2438 
 194   0.0000       1.685767        45.8720 
 195   0.0000       1.715907        46.6922 
 196   0.0000       1.715907        46.6922 
 197   0.0000       1.779088        48.4115 
 198   0.0000       1.779088        48.4115 
 199   0.0000       1.821046        49.5532 
 200   0.0000       1.895451        51.5779 
 201   0.0000       1.895453        51.5779 
 202   0.0000       1.930986        52.5448 
 203   0.0000       1.942406        52.8556 
 204   0.0000       1.942406        52.8556 
 205   0.0000       1.994311        54.2680 
 206   0.0000       1.994311        54.2680 
 207   0.0000       2.089386        56.8551 
 208   0.0000       2.089386        56.8551 
 209   0.0000       2.097508        57.0761 
 210   0.0000       2.245295        61.0976 
 211   0.0000       2.245297        61.0976 
 212   0.0000       2.273475        61.8644 
 213   0.0000       2.273475        61.8644 
 214   0.0000       2.387113        64.9566 
 215   0.0000       2.432018        66.1786 
 216   0.0000       2.432019        66.1786 
 217   0.0000       2.489965        67.7554 
 218   0.0000       2.514404        68.4204 
 219   0.0000       2.514407        68.4205 
 220   0.0000       2.652897        72.1890 
 221   0.0000       2.653264        72.1990 
 222   0.0000       2.701693        73.5168 
 223   0.0000       2.770664        75.3936 
 224   0.0000       2.770664        75.3936 
 225   0.0000       2.803503        76.2872 
 226   0.0000       2.803503        76.2872 
 227   0.0000       2.978302        81.0437 
 228   0.0000       2.984470        81.2116 
 229   0.0000       2.984471        81.2116 
 230   0.0000       3.087348        84.0110 
 231   0.0000       3.087348        84.0110 
 232   0.0000       3.251641        88.4816 
 233   0.0000       3.258793        88.6763 
 234   0.0000       3.258793        88.6763 
 235   0.0000       3.331483        90.6543 
 236   0.0000       3.413423        92.8840 
 237   0.0000       3.413423        92.8840 
 238   0.0000       3.501701        95.2861 
 239   0.0000       3.594353        97.8073 
 240   0.0000       3.594353        97.8073 
 241   0.0000       3.622914        98.5845 
 242   0.0000       3.622914        98.5845 
 243   0.0000       3.683064       100.2213 
 244   0.0000       3.683064       100.2213 
 245   0.0000       3.886612       105.7601 
 246   0.0000       3.886612       105.7601 
 247   0.0000       3.898177       106.0748 
 248   0.0000       3.898177       106.0748 
 249   0.0000       3.919411       106.6526 
 250   0.0000       3.919411       106.6526 
 251   0.0000       4.007780       109.0572 
 252   0.0000       4.007782       109.0573 
 253   0.0000       4.010818       109.1399 
 254   0.0000       4.093751       111.3966 
 255   0.0000       4.093751       111.3966 
 256   0.0000       4.186384       113.9173 
 257   0.0000       4.202006       114.3424 
 258   0.0000       4.202006       114.3424 
 259   0.0000       4.227100       115.0252 
 260   0.0000       4.227100       115.0252 
 261   0.0000       4.278649       116.4280 
 262   0.0000       4.278650       116.4280 
 263   0.0000       4.288855       116.7057 
 264   0.0000       4.288855       116.7057 
 265   0.0000       4.342573       118.1674 
 266   0.0000       4.342573       118.1674 
 267   0.0000       4.388237       119.4100 
 268   0.0000       4.456048       121.2552 
 269   0.0000       4.456048       121.2552 
 270   0.0000       4.517316       122.9224 
 271   0.0000       4.569886       124.3529 
 272   0.0000       4.670370       127.0872 
 273   0.0000       4.670371       127.0872 
 274   0.0000       4.734728       128.8385 
 275   0.0000       4.734728       128.8385 
 276   0.0000       4.779611       130.0598 
 277   0.0000       4.837313       131.6300 
 278   0.0000       4.844599       131.8283 
 279   0.0000       4.844603       131.8284 
 280   0.0000       4.936541       134.3301 
 281   0.0000       4.936541       134.3301 
 282   0.0000       5.039489       137.1315 
 283   0.0000       5.039489       137.1315 
 284   0.0000       5.075692       138.1166 
 285   0.0000       5.075692       138.1166 
 286   0.0000       5.291629       143.9926 
 287   0.0000       5.291629       143.9926 
 288   0.0000       5.461158       148.6057 
 289   0.0000       5.552527       151.0920 
 290   0.0000       5.659730       154.0091 
 291   0.0000       5.659730       154.0091 
 292   0.0000       5.708874       155.3464 
 293   0.0000       6.058225       164.8527 
 294   0.0000       6.058225       164.8527 
 295   0.0000       6.074486       165.2952 
 296   0.0000       6.136092       166.9716 
 297   0.0000       6.136092       166.9716 
 298   0.0000       6.415709       174.5803 
 299   0.0000       6.415709       174.5803 
 300   0.0000       6.506040       177.0384 
 301   0.0000       6.608712       179.8322 
 302   0.0000       6.608712       179.8322 
 303   0.0000       6.868193       186.8930 
 304   0.0000       7.117117       193.6666 
 305   0.0000       7.117117       193.6666 
 306   0.0000       7.214499       196.3165 
 307   0.0000       7.346861       199.9182 
 308   0.0000       7.346869       199.9185 
 309   0.0000       7.641931       207.9475 
 310   0.0000       7.815969       212.6833 
 311   0.0000       7.815969       212.6833 
 312   0.0000       8.040413       218.7908 
 313   0.0000       8.196785       223.0459 
 314   0.0000       8.268455       224.9961 
 315   0.0000       8.268455       224.9961 
 316   0.0000       8.456497       230.1130 
 317   0.0000       8.684483       236.3168 
 318   0.0000       8.684484       236.3168 
 319   0.0000       8.857392       241.0219 
 320   0.0000       8.857392       241.0219 
 321   0.0000       8.923984       242.8340 
 322   0.0000       8.923985       242.8340 
 323   0.0000       9.042314       246.0539 
 324   0.0000       9.042314       246.0539 
 325   0.0000       9.464161       257.5329 
 326   0.0000       9.774606       265.9806 
 327   0.0000       9.962235       271.0862 
 328   0.0000       9.962235       271.0862 
 329   0.0000      10.077444       274.2212 
 330   0.0000      10.077446       274.2212 
 331   0.0000      10.208424       277.7853 
 332   0.0000      10.221104       278.1304 
 333   0.0000      10.221104       278.1304 
 334   0.0000      10.251155       278.9481 
 335   0.0000      10.251155       278.9481 
 336   0.0000      10.257590       279.1232 
 337   0.0000      10.257590       279.1232 
 338   0.0000      10.338804       281.3332 
 339   0.0000      10.338806       281.3332 
 340   0.0000      10.349658       281.6285 
 341   0.0000      10.349658       281.6285 
 342   0.0000      10.538347       286.7630 
 343   0.0000      10.538347       286.7630 
 344   0.0000      10.723242       291.7942 
 345   0.0000      10.723242       291.7942 
 346   0.0000      10.813167       294.2412 
 347   0.0000      10.832293       294.7617 
 348   0.0000      10.832294       294.7617 
 349   0.0000      10.867407       295.7172 
 350   0.0000      10.867407       295.7172 
 351   0.0000      11.219739       305.3046 
 352   0.0000      11.291314       307.2523 
 353   0.0000      11.291316       307.2523 
 354   0.0000      11.417953       310.6983 
 355   0.0000      11.417956       310.6984 
 356   0.0000      11.556166       314.4593 
 357   0.0000      11.556166       314.4593 
 358   0.0000      11.561214       314.5966 
 359   0.0000      11.561214       314.5966 
 360   0.0000      11.621450       316.2357 
 361   0.0000      11.621451       316.2358 
 362   0.0000      11.662494       317.3526 
 363   0.0000      11.662494       317.3526 
 364   0.0000      11.693720       318.2023 
 365   0.0000      11.693728       318.2025 
 366   0.0000      11.711347       318.6819 
 367   0.0000      11.764956       320.1407 
 368   0.0000      11.803962       321.2021 
 369   0.0000      11.803962       321.2021 
 370   0.0000      11.838733       322.1483 
 371   0.0000      11.838736       322.1484 
 372   0.0000      11.863498       322.8222 
 373   0.0000      11.863507       322.8224 
 374   0.0000      11.976250       325.8903 
 375   0.0000      11.976250       325.8903 
 376   0.0000      12.004705       326.6646 
 377   0.0000      12.274000       333.9925 
 378   0.0000      12.274002       333.9926 
 379   0.0000      12.304716       334.8284 
 380   0.0000      12.304716       334.8284 
 381   0.0000      12.346886       335.9758 
 382   0.0000      12.346886       335.9758 
 383   0.0000      12.417396       337.8945 
 384   0.0000      12.417396       337.8945 
 385   0.0000      12.505172       340.2830 
 386   0.0000      12.505172       340.2830 
 387   0.0000      12.626627       343.5880 
 388   0.0000      12.796116       348.2000 
 389   0.0000      12.796116       348.2000 
 390   0.0000      12.920460       351.5836 
 391   0.0000      13.385612       364.2410 
 392   0.0000      13.534834       368.3016 
 393   0.0000      13.534834       368.3016 
 394   0.0000      13.600030       370.0756 
 395   0.0000      13.600035       370.0758 
 396   0.0000      13.687522       372.4564 
 397   0.0000      13.687522       372.4564 
 398   0.0000      13.709181       373.0458 
 399   0.0000      13.817977       376.0063 
 400   0.0000      13.817977       376.0063 
 401   0.0000      14.940962       406.5643 
 402   0.0000      15.251075       415.0029 
 403   0.0000      15.369901       418.2363 
 404   0.0000      15.369902       418.2363 
 405   0.0000      15.462984       420.7692 
 406   0.0000      15.462984       420.7692 
 407   0.0000      16.706726       454.6131 
 408   0.0000      16.706748       454.6137 
 409   0.0000      16.709845       454.6980 
 410   0.0000      16.709866       454.6986 
 411   0.0000      16.711916       454.7544 
 412   0.0000      16.750108       455.7936 
 413   0.0000      16.750108       455.7936 
 414   0.0000      16.868623       459.0186 
 415   0.0000      17.093807       465.1461 
 416   0.0000      17.093807       465.1461 
 417   0.0000      17.187363       467.6919 
 418   0.0000      17.187363       467.6919 
 419   0.0000      17.249457       469.3816 
 420   0.0000      17.249457       469.3816 
 421   0.0000      17.898034       487.0303 
 422   0.0000      18.077160       491.9045 
 423   0.0000      18.303210       498.0557 
 424   0.0000      18.303210       498.0557 
 425   0.0000      18.681510       508.3497 
 426   0.0000      18.681520       508.3500 
 427   0.0000      19.135216       520.6957 
 428   0.0000      19.306966       525.3693 
 429   0.0000      19.306976       525.3695 
 430   0.0000      19.602883       533.4216 
 431   0.0000      19.602883       533.4216 
 432   0.0000      20.584789       560.1406 
 433   0.0000      21.005823       571.5975 
 434   0.0000      21.005823       571.5975 
 435   0.0000      21.011992       571.7654 
 436   0.0000      21.814746       593.6094 
 437   0.0000      21.814746       593.6094 
 438   0.0000      22.597299       614.9038 
 439   0.0000      23.821921       648.2274 
 440   0.0000      23.821921       648.2274 
 441   0.0000      24.017440       653.5478 
 442   0.0000      24.017440       653.5478 
 443   0.0000      24.816206       675.2833 
 444   0.0000      26.010466       707.7808 
 445   0.0000      26.225645       713.6361 
 446   0.0000      31.918055       868.5344 
 447   0.0000      31.918095       868.5355 
 448   0.0000      32.012663       871.1088 
 449   0.0000      32.012702       871.1099 
 450   0.0000      32.292558       878.7252 
 451   0.0000      32.292558       878.7252 
 452   0.0000      33.534910       912.5313 
 453   0.0000      33.534910       912.5313 
 454   0.0000      34.211190       930.9338 
 455   0.0000      35.973472       978.8879 
 456   0.0000      41.347059      1125.1107 
 457   0.0000      42.018898      1143.3924 
 458   0.0000      76.923986      2093.2081 
 459   0.0000      77.377585      2105.5511 
 460   0.0000      91.211738      2481.9976 
 461   0.0000      91.211738      2481.9976 
 462   0.0000      91.339423      2485.4721 
 463   0.0000      91.339423      2485.4721 
 464   0.0000      92.544726      2518.2700 
 465   0.0000      92.610008      2520.0464 

                    ********************************
                    * MULLIKEN POPULATION ANALYSIS *
                    ********************************

--------------------------------------------
MULLIKEN ATOMIC CHARGES AND SPIN POPULATIONS
--------------------------------------------
   0 C :    0.054016    0.000000
   1 C :    0.054363   -0.000000
   2 H :   -0.053903    0.000000
   3 H :   -0.054476    0.000000
Sum of atomic charges         :    0.0000000
Sum of atomic spin populations:   -0.0000000

-----------------------------------------------------
MULLIKEN REDUCED ORBITAL CHARGES AND SPIN POPULATIONS
-----------------------------------------------------
CHARGE
  0 C s       :     3.125836  s :     3.125836
      pz      :     0.893677  p :     2.777042
      px      :     0.941683
      py      :     0.941683
      dz2     :     0.006258  d :     0.038442
      dxz     :     0.016092
      dyz     :     0.016092
      dx2y2   :    -0.000000
      dxy     :     0.000000
      f0      :    -0.002861  f :     0.003172
      f+1     :     0.003016
      f-1     :     0.003016
      f+2     :     0.000000
      f-2     :    -0.000000
      f+3     :     0.000000
      f-3     :     0.000000
      g0      :     0.002074  g :     0.001650
      g+1     :    -0.000212
      g-1     :    -0.000212
      g+2     :    -0.000000
      g-2     :    -0.000000
      g+3     :     0.000000
      g-3     :     0.000000
      g+4     :     0.000000
      g-4     :     0.000000
      h0      :     0.000353  h :    -0.000159
      h+1     :    -0.000256
      h-1     :    -0.000256
      h+2     :     0.000000
      h-2     :     0.000000
      h+3     :     0.000000
      h-3     :     0.000000
      h+4     :     0.000000
      h-4     :    -0.000000
      h+5     :     0.000000
      h-5     :     0.000000
  1 C s       :     3.125496  s :     3.125496
      pz      :     0.893678  p :     2.777044
      px      :     0.941683
      py      :     0.941683
      dz2     :     0.006248  d :     0.038432
      dxz     :     0.016092
      dyz     :     0.016092
      dx2y2   :     0.000000
      dxy     :     0.000000
      f0      :    -0.002858  f :     0.003174
      f+1     :     0.003016
      f-1     :     0.003016
      f+2     :     0.000000
      f-2     :    -0.000000
      f+3     :     0.000000
      f-3     :     0.000000
      g0      :     0.002074  g :     0.001650
      g+1     :    -0.000212
      g-1     :    -0.000212
      g+2     :    -0.000000
      g-2     :     0.000000
      g+3     :     0.000000
      g-3     :     0.000000
      g+4     :     0.000000
      g-4     :     0.000000
      h0      :     0.000353  h :    -0.000159
      h+1     :    -0.000256
      h-1     :    -0.000256
      h+2     :     0.000000
      h-2     :     0.000000
      h+3     :     0.000000
      h-3     :     0.000000
      h+4     :     0.000000
      h-4     :    -0.000000
      h+5     :     0.000000
      h-5     :     0.000000
  2 H s       :     0.973268  s :     0.973268
      pz      :     0.012938  p :     0.084864
      px      :     0.035963
      py      :     0.035963
      dz2     :    -0.009093  d :     0.001097
      dxz     :     0.005095
      dyz     :     0.005095
      dx2y2   :     0.000000
      dxy     :     0.000000
      f0      :    -0.002401  f :    -0.003539
      f+1     :    -0.000569
      f-1     :    -0.000569
      f+2     :    -0.000000
      f-2     :     0.000000
      f+3     :    -0.000000
      f-3     :    -0.000000
      g0      :    -0.000162  g :    -0.001787
      g+1     :    -0.000812
      g-1     :    -0.000812
      g+2     :    -0.000000
      g-2     :    -0.000000
      g+3     :     0.000000
      g-3     :     0.000000
      g+4     :    -0.000000
      g-4     :     0.000000
  3 H s       :     0.973692  s :     0.973692
      pz      :     0.013057  p :     0.084982
      px      :     0.035963
      py      :     0.035963
      dz2     :    -0.009067  d :     0.001123
      dxz     :     0.005095
      dyz     :     0.005095
      dx2y2   :     0.000000
      dxy     :     0.000000
      f0      :    -0.002397  f :    -0.003534
      f+1     :    -0.000569
      f-1     :    -0.000569
      f+2     :    -0.000000
      f-2     :    -0.000000
      f+3     :    -0.000000
      f-3     :    -0.000000
      g0      :    -0.000162  g :    -0.001787
      g+1     :    -0.000812
      g-1     :    -0.000812
      g+2     :     0.000000
      g-2     :    -0.000000
      g+3     :     0.000000
      g-3     :     0.000000
      g+4     :    -0.000000
      g-4     :     0.000000

SPIN
  0 C s       :     0.000000  s :     0.000000
      pz      :    -0.000000  p :    -0.000000
      px      :    -0.000000
      py      :     0.000000
      dz2     :     0.000000  d :     0.000000
      dxz     :    -0.000000
      dyz     :     0.000000
      dx2y2   :    -0.000000
      dxy     :    -0.000000
      f0      :    -0.000000  f :    -0.000000
      f+1     :     0.000000
      f-1     :    -0.000000
      f+2     :     0.000000
      f-2     :     0.000000
      f+3     :    -0.000000
      f-3     :     0.000000
      g0      :     0.000000  g :     0.000000
      g+1     :     0.000000
      g-1     :    -0.000000
      g+2     :    -0.000000
      g-2     :    -0.000000
      g+3     :     0.000000
      g-3     :    -0.000000
      g+4     :     0.000000
      g-4     :     0.000000
      h0      :     0.000000  h :     0.000000
      h+1     :     0.000000
      h-1     :    -0.000000
      h+2     :    -0.000000
      h-2     :     0.000000
      h+3     :    -0.000000
      h-3     :     0.000000
      h+4     :    -0.000000
      h-4     :     0.000000
      h+5     :     0.000000
      h-5     :     0.000000
  1 C s       :    -0.000000  s :    -0.000000
      pz      :    -0.000000  p :    -0.000000
      px      :     0.000000
      py      :    -0.000000
      dz2     :    -0.000000  d :    -0.000000
      dxz     :     0.000000
      dyz     :    -0.000000
      dx2y2   :     0.000000
      dxy     :     0.000000
      f0      :    -0.000000  f :    -0.000000
      f+1     :    -0.000000
      f-1     :     0.000000
      f+2     :    -0.000000
      f-2     :     0.000000
      f+3     :     0.000000
      f-3     :    -0.000000
      g0      :     0.000000  g :     0.000000
      g+1     :    -0.000000
      g-1     :     0.000000
      g+2     :     0.000000
      g-2     :     0.000000
      g+3     :    -0.000000
      g-3     :     0.000000
      g+4     :    -0.000000
      g-4     :    -0.000000
      h0      :     0.000000  h :     0.000000
      h+1     :    -0.000000
      h-1     :     0.000000
      h+2     :     0.000000
      h-2     :     0.000000
      h+3     :     0.000000
      h-3     :    -0.000000
      h+4     :     0.000000
      h-4     :     0.000000
      h+5     :    -0.000000
      h-5     :    -0.000000
  2 H s       :     0.000000  s :     0.000000
      pz      :    -0.000000  p :    -0.000000
      px      :    -0.000000
      py      :    -0.000000
      dz2     :    -0.000000  d :    -0.000000
      dxz     :     0.000000
      dyz     :    -0.000000
      dx2y2   :     0.000000
      dxy     :     0.000000
      f0      :    -0.000000  f :    -0.000000
      f+1     :     0.000000
      f-1     :    -0.000000
      f+2     :     0.000000
      f-2     :     0.000000
      f+3     :    -0.000000
      f-3     :     0.000000
      g0      :    -0.000000  g :    -0.000000
      g+1     :     0.000000
      g-1     :    -0.000000
      g+2     :    -0.000000
      g-2     :    -0.000000
      g+3     :     0.000000
      g-3     :    -0.000000
      g+4     :    -0.000000
      g-4     :     0.000000
  3 H s       :     0.000000  s :     0.000000
      pz      :     0.000000  p :     0.000000
      px      :     0.000000
      py      :     0.000000
      dz2     :    -0.000000  d :    -0.000000
      dxz     :    -0.000000
      dyz     :     0.000000
      dx2y2   :    -0.000000
      dxy     :    -0.000000
      f0      :    -0.000000  f :    -0.000000
      f+1     :    -0.000000
      f-1     :     0.000000
      f+2     :    -0.000000
      f-2     :    -0.000000
      f+3     :     0.000000
      f-3     :    -0.000000
      g0      :    -0.000000  g :    -0.000000
      g+1     :    -0.000000
      g-1     :     0.000000
      g+2     :    -0.000000
      g-2     :    -0.000000
      g+3     :    -0.000000
      g-3     :     0.000000
      g+4     :     0.000000
      g-4     :    -0.000000


                     *******************************
                     * LOEWDIN POPULATION ANALYSIS *
                     *******************************

-------------------------------------------
LOEWDIN ATOMIC CHARGES AND SPIN POPULATIONS
-------------------------------------------
   0 C :    0.517349    0.000000
   1 C :    0.517349   -0.000000
   2 H :   -0.517349    0.000000
   3 H :   -0.517349    0.000000

----------------------------------------------------
LOEWDIN REDUCED ORBITAL CHARGES AND SPIN POPULATIONS
----------------------------------------------------
CHARGE
  0 C s       :     2.625138  s :     2.625138
      pz      :     1.083948  p :     2.448782
      px      :     0.682417
      py      :     0.682417
      dz2     :     0.137490  d :     0.264113
      dxz     :     0.063312
      dyz     :     0.063312
      dx2y2   :     0.000000
      dxy     :     0.000000
      f0      :     0.046246  f :     0.095275
      f+1     :     0.024515
      f-1     :     0.024515
      f+2     :     0.000000
      f-2     :     0.000000
      f+3     :     0.000000
      f-3     :     0.000000
      g0      :     0.022895  g :     0.037989
      g+1     :     0.007547
      g-1     :     0.007547
      g+2     :     0.000000
      g-2     :     0.000000
      g+3     :     0.000000
      g-3     :     0.000000
      g+4     :     0.000000
      g-4     :     0.000000
      h0      :     0.007994  h :     0.011354
      h+1     :     0.001680
      h-1     :     0.001680
      h+2     :     0.000000
      h-2     :     0.000000
      h+3     :     0.000000
      h-3     :     0.000000
      h+4     :     0.000000
      h-4     :     0.000000
      h+5     :     0.000000
      h-5     :     0.000000
  1 C s       :     2.625138  s :     2.625138
      pz      :     1.083948  p :     2.448782
      px      :     0.682417
      py      :     0.682417
      dz2     :     0.137490  d :     0.264113
      dxz     :     0.063312
      dyz     :     0.063312
      dx2y2   :     0.000000
      dxy     :     0.000000
      f0      :     0.046246  f :     0.095275
      f+1     :     0.024515
      f-1     :     0.024515
      f+2     :     0.000000
      f-2     :     0.000000
      f+3     :     0.000000
      f-3     :     0.000000
      g0      :     0.022895  g :     0.037989
      g+1     :     0.007547
      g-1     :     0.007547
      g+2     :     0.000000
      g-2     :     0.000000
      g+3     :     0.000000
      g-3     :     0.000000
      g+4     :     0.000000
      g-4     :     0.000000
      h0      :     0.007994  h :     0.011354
      h+1     :     0.001680
      h-1     :     0.001680
      h+2     :     0.000000
      h-2     :     0.000000
      h+3     :     0.000000
      h-3     :     0.000000
      h+4     :     0.000000
      h-4     :     0.000000
      h+5     :     0.000000
      h-5     :     0.000000
  2 H s       :     0.740402  s :     0.740402
      pz      :     0.170882  p :     0.333081
      px      :     0.081100
      py      :     0.081100
      dz2     :     0.090027  d :     0.251638
      dxz     :     0.080805
      dyz     :     0.080805
      dx2y2   :     0.000000
      dxy     :     0.000000
      f0      :     0.047426  f :     0.123081
      f+1     :     0.037827
      f-1     :     0.037827
      f+2     :     0.000000
      f-2     :     0.000000
      f+3     :     0.000000
      f-3     :     0.000000
      g0      :     0.027551  g :     0.069146
      g+1     :     0.020797
      g-1     :     0.020797
      g+2     :     0.000000
      g-2     :     0.000000
      g+3     :     0.000000
      g-3     :     0.000000
      g+4     :     0.000000
      g-4     :     0.000000
  3 H s       :     0.740402  s :     0.740402
      pz      :     0.170882  p :     0.333081
      px      :     0.081100
      py      :     0.081100
      dz2     :     0.090027  d :     0.251638
      dxz     :     0.080805
      dyz     :     0.080805
      dx2y2   :     0.000000
      dxy     :     0.000000
      f0      :     0.047426  f :     0.123081
      f+1     :     0.037827
      f-1     :     0.037827
      f+2     :     0.000000
      f-2     :     0.000000
      f+3     :     0.000000
      f-3     :     0.000000
      g0      :     0.027551  g :     0.069146
      g+1     :     0.020797
      g-1     :     0.020797
      g+2     :     0.000000
      g-2     :     0.000000
      g+3     :     0.000000
      g-3     :     0.000000
      g+4     :     0.000000
      g-4     :     0.000000

SPIN
  0 C s       :     0.000000  s :     0.000000
      pz      :     0.000000  p :     0.000000
      px      :     0.000000
      py      :     0.000000
      dz2     :     0.000000  d :     0.000000
      dxz     :    -0.000000
      dyz     :    -0.000000
      dx2y2   :    -0.000000
      dxy     :    -0.000000
      f0      :    -0.000000  f :    -0.000000
      f+1     :    -0.000000
      f-1     :    -0.000000
      f+2     :    -0.000000
      f-2     :    -0.000000
      f+3     :    -0.000000
      f-3     :     0.000000
      g0      :    -0.000000  g :    -0.000000
      g+1     :    -0.000000
      g-1     :    -0.000000
      g+2     :    -0.000000
      g-2     :    -0.000000
      g+3     :     0.000000
      g-3     :    -0.000000
      g+4     :     0.000000
      g-4     :     0.000000
      h0      :     0.000000  h :     0.000000
      h+1     :    -0.000000
      h-1     :    -0.000000
      h+2     :    -0.000000
      h-2     :    -0.000000
      h+3     :     0.000000
      h-3     :    -0.000000
      h+4     :    -0.000000
      h-4     :    -0.000000
      h+5     :     0.000000
      h-5     :     0.000000
  1 C s       :    -0.000000  s :    -0.000000
      pz      :    -0.000000  p :    -0.000000
      px      :    -0.000000
      py      :    -0.000000
      dz2     :    -0.000000  d :    -0.000000
      dxz     :     0.000000
      dyz     :     0.000000
      dx2y2   :     0.000000
      dxy     :     0.000000
      f0      :    -0.000000  f :    -0.000000
      f+1     :     0.000000
      f-1     :     0.000000
      f+2     :    -0.000000
      f-2     :     0.000000
      f+3     :     0.000000
      f-3     :    -0.000000
      g0      :    -0.000000  g :    -0.000000
      g+1     :     0.000000
      g-1     :    -0.000000
      g+2     :    -0.000000
      g-2     :     0.000000
      g+3     :    -0.000000
      g-3     :     0.000000
      g+4     :     0.000000
      g-4     :    -0.000000
      h0      :     0.000000  h :     0.000000
      h+1     :     0.000000
      h-1     :     0.000000
      h+2     :     0.000000
      h-2     :     0.000000
      h+3     :    -0.000000
      h-3     :     0.000000
      h+4     :    -0.000000
      h-4     :     0.000000
      h+5     :    -0.000000
      h-5     :    -0.000000
  2 H s       :     0.000000  s :     0.000000
      pz      :    -0.000000  p :    -0.000000
      px      :    -0.000000
      py      :    -0.000000
      dz2     :     0.000000  d :     0.000000
      dxz     :     0.000000
      dyz     :     0.000000
      dx2y2   :     0.000000
      dxy     :     0.000000
      f0      :    -0.000000  f :    -0.000000
      f+1     :    -0.000000
      f-1     :     0.000000
      f+2     :    -0.000000
      f-2     :     0.000000
      f+3     :     0.000000
      f-3     :    -0.000000
      g0      :    -0.000000  g :    -0.000000
      g+1     :     0.000000
      g-1     :     0.000000
      g+2     :    -0.000000
      g-2     :     0.000000
      g+3     :     0.000000
      g-3     :    -0.000000
      g+4     :    -0.000000
      g-4     :     0.000000
  3 H s       :     0.000000  s :     0.000000
      pz      :     0.000000  p :    -0.000000
      px      :    -0.000000
      py      :     0.000000
      dz2     :    -0.000000  d :    -0.000000
      dxz     :    -0.000000
      dyz     :    -0.000000
      dx2y2   :    -0.000000
      dxy     :    -0.000000
      f0      :     0.000000  f :     0.000000
      f+1     :     0.000000
      f-1     :    -0.000000
      f+2     :     0.000000
      f-2     :    -0.000000
      f+3     :    -0.000000
      f-3     :     0.000000
      g0      :    -0.000000  g :    -0.000000
      g+1     :    -0.000000
      g-1     :    -0.000000
      g+2     :    -0.000000
      g-2     :     0.000000
      g+3     :    -0.000000
      g-3     :     0.000000
      g+4     :    -0.000000
      g-4     :    -0.000000


                      *****************************
                      * MAYER POPULATION ANALYSIS *
                      *****************************

  NA   - Mulliken gross atomic population
  ZA   - Total nuclear charge
  QA   - Mulliken gross atomic charge
  VA   - Mayer's total valence
  BVA  - Mayer's bonded valence
  FA   - Mayer's free valence

  ATOM       NA         ZA         QA         VA         BVA        FA
  0 C      5.9460     6.0000     0.0540     3.9958     3.9958     0.0000
  1 C      5.9456     6.0000     0.0544     3.9959     3.9959     0.0000
  2 H      1.0539     1.0000    -0.0539     1.0825     1.0825     0.0000
  3 H      1.0545     1.0000    -0.0545     1.0833     1.0833    -0.0000

  Mayer bond orders larger than 0.1
B(  0-C ,  1-C ) :   2.8899 B(  0-C ,  2-H ) :   1.0987 B(  1-C ,  3-H ) :   1.0991 


-------
TIMINGS
-------

Total SCF time: 0 days 0 hours 23 min 18 sec 

Total time                  ....    1398.575 sec
Sum of individual times     ....    1397.521 sec  ( 99.9%)

Fock matrix formation       ....    1392.660 sec  ( 99.6%)
  XC integration            ....      22.429 sec  (  1.6% of F)
    Basis function eval.    ....       1.163 sec  (  5.2% of XC)
    Density eval.           ....       5.243 sec  ( 23.4% of XC)
    XC-Functional eval.     ....       0.179 sec  (  0.8% of XC)
    XC-Potential eval.      ....      15.153 sec  ( 67.6% of XC)
Diagonalization             ....       2.033 sec  (  0.1%)
Density matrix formation    ....       0.035 sec  (  0.0%)
Population analysis         ....       0.205 sec  (  0.0%)
Initial guess               ....       1.148 sec  (  0.1%)
Orbital Transformation      ....       0.000 sec  (  0.0%)
Orbital Orthonormalization  ....       0.000 sec  (  0.0%)
DIIS solution               ....       1.032 sec  (  0.1%)
Grid generation             ....       0.408 sec  (  0.0%)

-------------------------   --------------------
FINAL SINGLE POINT ENERGY       -77.258871092372
-------------------------   --------------------


                            ***************************************
                            *     ORCA property calculations      *
                            ***************************************

                                    ---------------------
                                    Active property flags
                                    ---------------------
   (+) Dipole Moment
   (+) Polarizability


------------------------------------------------------------------------------
                       ORCA ELECTRIC PROPERTIES CALCULATION
------------------------------------------------------------------------------

Dipole Moment Calculation                       ... on
Quadrupole Moment Calculation                   ... off
Polarizability Calculation                      ... Analytic (CP-SCF)
GBWName                                         ... c2h2_pbe.gbw
Electron density file                           ... c2h2_pbe.scfp.tmp
The origin for moment calculation is the CENTER OF MASS  = ( 0.000000,  0.000000  0.000000)

-------------
DIPOLE MOMENT
-------------
                                X             Y             Z
Electronic contribution:     -0.00000       0.00000      -0.00000
Nuclear contribution   :      0.00000       0.00000       0.00000
                        -----------------------------------------
Total Dipole Moment    :     -0.00000       0.00000      -0.00000
                        -----------------------------------------
Magnitude (a.u.)       :      0.00000
Magnitude (Debye)      :      0.00000



--------------------
Rotational spectrum 
--------------------
 
Rotational constants in cm-1:     0.000000     1.181317     1.181317 
Rotational constants in MHz :     0.000000 35414.991350 35414.991350 

 Dipole components along the rotational axes: 
x,y,z [a.u.] :    -0.000000     0.000000    -0.000000 
x,y,z [Debye]:    -0.000000     0.000000    -0.000000 

 
Transforming and storing MO dipole integrals   ... done

                ... starting polarizability calculation

Opening the Dipole integral file               ... (c2h2_pbe.dmo.tmp) done
Reading Dipole-MO integrals                    ... done
Solving CP-SCF equations                       ... 

           ************************************************************
           *        Program running with 4 parallel MPI-processes     *
           *              working on a common directory               *
           ************************************************************

------------------------------------------------------------------------------
                           ORCA CP-SCF CALCULATION
------------------------------------------------------------------------------

Input orbitals are from        ... c2h2_pbe.gbw
Input Perturbation             ... c2h2_pbe.cpv.tmp
Wavefunction output            ... c2h2_pbe.cpu.tmp
Perturbation mode              ... Real perturbation (singlet)
Solver                         ... POPLE
Max. number of iterations      ... 200
Convergence tolerance          ... 1.000e-06
Integral handling              ... Direct
Number of perturbations        ... 3
Number of operators            ... 2
Orbital ranges used for CP-SCF:
 Operator 0:  Orbitals   0...  6  to   7...465
 Operator 1:  Orbitals   0...  6  to   7...465
DFT calculation                         ... on
Exchange functional (SCF)               ... PBE
Exchange functional (CP-SCF)            ... PBE
   PBE kappa parameter  XKappa (SCF)    ...  0.804000
   PBE kappa parameter  XKappa (CP-SCF) ...  0.804000
   PBE mue parameter   XMuePBE (SCF)    ...  0.219520
   PBE mue parameter   XMuePBE (CP-SCF) ...  0.219520
Correlation functional (SCF)            ... PBE
Correlation functional (CP-SCF)         ... PBE
   PBE beta parameter CBetaPBE (SCF)    ...  0.066725
   PBE beta parameter CBetaPBE (CP-SCF) ...  0.066725
 LDA part of GGA corr.  LDAOpt (SCF)    ... PW91-LDA
 LDA part of GGA corr.  LDAOpt (CP-SCF) ... PW91-LDA
Variables per vector in CP-SCF ... 6426
Number of vectors sought       ... 3
Recalculating density on grid  ... done
Calculating the xc-kernel      ... done
     CP-SCF ITERATION   0: 
     CP-SCF ITERATION   1:      0.230880568690
     CP-SCF ITERATION   2:      0.001537344103
     CP-SCF ITERATION   3:      0.000002832681
     CP-SCF ITERATION   4:      0.000000022699
done
Reading CP-SCF coefficients                    ... done
Doing the polarizability tensor   ... done
Cleaning up                                    ... done

-------------------------
THE POLARIZABILITY TENSOR
-------------------------

The raw cartesian tensor (atomic units):
   20.03296     -0.00000      0.00000  
   -0.00000     20.03296      0.00000  
    0.00000      0.00000     31.94959  
diagonalized tensor: 
   20.03296     20.03296     31.94959  

   -0.52320      0.85221      0.00000  
   -0.85221     -0.52320      0.00000  
    0.00000     -0.00000      1.00000  

Isotropic polarizability :  24.00517


Timings for individual modules:

Sum of individual times         ...     2383.321 sec (=  39.722 min)
GTO integral calculation        ...        2.988 sec (=   0.050 min)   0.1 %
SCF iterations                  ...     1399.731 sec (=  23.329 min)  58.7 %
Solution of CP-SCF eqns.        ...      980.603 sec (=  16.343 min)  41.1 %
                             ****ORCA TERMINATED NORMALLY****
TOTAL RUN TIME: 0 days 0 hours 39 minutes 49 seconds 580 msec
