
                                 *****************
                                 * O   R   C   A *
                                 *****************

           --- An Ab Initio, DFT and Semiempirical electronic structure package ---

                  #######################################################
                  #                        -***-                        #
                  #          Department of theory and spectroscopy      #
                  #               Directorship: Frank Neese             #
                  #        Max Planck Institute fuer Kohlenforschung    #
                  #                Kaiser Wilhelm Platz 1               #
                  #                 D-45470 Muelheim/Ruhr               #
                  #                      Germany                        #
                  #                                                     #
                  #                  All rights reserved                #
                  #                        -***-                        #
                  #######################################################


                         Program Version 4.1.2  - RELEASE  -


 With contributions from (in alphabetic order):
   Daniel Aravena         : Magnetic Properties
   Michael Atanasov       : Ab Initio Ligand Field Theory
   Alexander A. Auer      : GIAO ZORA
   Ute Becker             : Parallelization
   Giovanni Bistoni       : ED, Open-shell LED
   Martin Brehm           : Molecular dynamics
   Dmytro Bykov           : SCF Hessian
   Vijay G. Chilkuri      : MRCI spin determinant printing
   Dipayan Datta          : RHF DLPNO-CCSD density
   Achintya Kumar Dutta   : EOM-CC, STEOM-CC
   Dmitry Ganyushin       : Spin-Orbit,Spin-Spin,Magnetic field MRCI
   Miquel Garcia          : C-PCM Hessian
   Yang Guo               : DLPNO-NEVPT2, CIM, IAO-localization
   Andreas Hansen         : Spin unrestricted coupled pair/coupled cluster methods
   Benjamin Helmich-Paris : CASSCF linear response (MC-RPA)
   Lee Huntington         : MR-EOM, pCC
   Robert Izsak           : Overlap fitted RIJCOSX, COSX-SCS-MP3, EOM
   Christian Kollmar      : KDIIS, OOCD, Brueckner-CCSD(T), CCSD density
   Simone Kossmann        : Meta GGA functionals, TD-DFT gradient, OOMP2, MP2 Hessian
   Martin Krupicka        : AUTO-CI
   Lucas Lang             : DCDCAS
   Dagmar Lenk            : GEPOL surface, SMD
   Dimitrios Liakos       : Extrapolation schemes; parallel MDCI
   Dimitrios Manganas     : ROCIS; embedding schemes
   Dimitrios Pantazis     : SARC Basis sets
   Taras Petrenko         : DFT Hessian,TD-DFT gradient, ASA, ECA, R-Raman, ABS, FL, XAS/XES, NRVS
   Peter Pinski           : DLPNO-MP2, DLPNO-MP2 Gradient
   Christoph Reimann      : Effective Core Potentials
   Marius Retegan         : Local ZFS, SOC
   Christoph Riplinger    : Optimizer, TS searches, QM/MM, DLPNO-CCSD(T), (RO)-DLPNO pert. Triples
   Tobias Risthaus        : Range-separated hybrids, TD-DFT gradient, RPA, STAB
   Michael Roemelt        : Restricted open shell CIS
   Masaaki Saitow         : Open-shell DLPNO
   Barbara Sandhoefer     : DKH picture change effects
   Avijit Sen             : IP-ROCIS
   Kantharuban Sivalingam : CASSCF convergence, NEVPT2, FIC-MRCI
   Bernardo de Souza      : ESD, SOC TD-DFT
   Georgi Stoychev        : AutoAux, RI-MP2 NMR
   Willem Van den Heuvel  : Paramagnetic NMR
   Boris Wezisla          : Elementary symmetry handling
   Frank Wennmohs         : Technical directorship


 We gratefully acknowledge several colleagues who have allowed us to
 interface, adapt or use parts of their codes:
   Stefan Grimme, W. Hujo, H. Kruse,             : VdW corrections, initial TS optimization,
                  C. Bannwarth                     DFT functionals, gCP, sTDA/sTD-DF
   Ed Valeev                                     : LibInt (2-el integral package), F12 methods
   Garnet Chan, S. Sharma, J. Yang, R. Olivares  : DMRG
   Ulf Ekstrom                                   : XCFun DFT Library
   Mihaly Kallay                                 : mrcc  (arbitrary order and MRCC methods)
   Andreas Klamt, Michael Diedenhofen            : otool_cosmo (COSMO solvation model)
   Jiri Pittner, Ondrej Demel                    : Mk-CCSD
   Frank Weinhold                                : gennbo (NPA and NBO analysis)
   Christopher J. Cramer and Donald G. Truhlar   : smd solvation model
   Lars Goerigk                                  : TD-DFT with DH, B97 family of functionals
   V. Asgeirsson, H. Jonsson                     : NEB implementation
   FAccTs GmbH                                   : IRC, NEB, NEB-TS, Multilevel


 Your calculation uses the libint2 library for the computation of 2-el integrals
 For citations please refer to: http://libint.valeyev.net

 This ORCA versions uses:
   CBLAS   interface :  Fast vector & matrix operations
   LAPACKE interface :  Fast linear algebra routines
   SCALAPACK package :  Parallel linear algebra routines


----- Orbital basis set information -----
Your calculation utilizes the basis: aug-pc-4
   H, C-F              : F. Jensen, J. Chem. Phys. 115, 9113 (2001).
                         F. Jensen, J. Chem. Phys. 116, 7372 (2002).
                         F. Jensen, J. Chem. Phys. 117, 9234 (2002).
   Si-Cl               : F. Jensen, T. Helgaker, J. Chem. Phys. 121, 3463 (2004).
   He-B, Ne-Mg, Al, Ar : F. Jensen, J. Phys. Chem. A 111, 11198 (2007).
   K, Ca, Ga-Kr        : F. Jensen, J. Chem. Phys. 136, 094110 (2012).
   Sc-Zn               : F. Jensen, J. Chem. Phys. 138, 014107 (2013).

================================================================================
                                        WARNINGS
                       Please study these warnings very carefully!
================================================================================


INFO   : the flag for use of LIBINT has been found!

================================================================================
                                       INPUT FILE
================================================================================
NAME = c2h3_pbe.inp
|  1> !uks pbe nori aug-pc-4 grid5 nofinalgrid verytightscf
|  2> 
|  3> %maxcore 1500
|  4> 
|  5> %pal nprocs 4 end
|  6> 
|  7> %scf
|  8> 	maxiter 200
|  9> end
| 10> %elprop
| 11> 	dipole true
| 12> 	 polar 1
| 13> 	 maxiter 200
| 14> end
| 15> 
| 16> * xyz 0 2
| 17> C 0.0488 0.7245 0.0000
| 18> C 0.0488 -0.5915 0.0000
| 19> H -0.6836 1.5182 0.0000
| 20> H -0.8763 -1.1584 0.0000
| 21> H 0.9739 -1.1584 0.0000
| 22> *
| 23> 
| 24>                          ****END OF INPUT****
================================================================================

                       ****************************
                       * Single Point Calculation *
                       ****************************

---------------------------------
CARTESIAN COORDINATES (ANGSTROEM)
---------------------------------
  C      0.048800    0.724500    0.000000
  C      0.048800   -0.591500    0.000000
  H     -0.683600    1.518200    0.000000
  H     -0.876300   -1.158400    0.000000
  H      0.973900   -1.158400    0.000000

----------------------------
CARTESIAN COORDINATES (A.U.)
----------------------------
  NO LB      ZA    FRAG     MASS         X           Y           Z
   0 C     6.0000    0    12.011    0.092219    1.369107    0.000000
   1 C     6.0000    0    12.011    0.092219   -1.117773    0.000000
   2 H     1.0000    0     1.008   -1.291817    2.868982    0.000000
   3 H     1.0000    0     1.008   -1.655967   -2.189059    0.000000
   4 H     1.0000    0     1.008    1.840404   -2.189059    0.000000

--------------------------------
INTERNAL COORDINATES (ANGSTROEM)
--------------------------------
 C      0   0   0     0.000000000000     0.00000000     0.00000000
 C      1   0   0     1.316000000000     0.00000000     0.00000000
 H      1   2   0     1.079985856389   137.30020587     0.00000000
 H      2   1   3     1.084981852383   121.49990954     0.00000000
 H      2   1   3     1.084981852383   121.49990954   180.00000000

---------------------------
INTERNAL COORDINATES (A.U.)
---------------------------
 C      0   0   0     0.000000000000     0.00000000     0.00000000
 C      1   0   0     2.486879592240     0.00000000     0.00000000
 H      1   2   0     2.040877497083   137.30020587     0.00000000
 H      2   1   3     2.050318561278   121.49990954     0.00000000
 H      2   1   3     2.050318561278   121.49990954   180.00000000

---------------------
BASIS SET INFORMATION
---------------------
There are 2 groups of distinct atoms

 Group   1 Type C   : 28s12p7d4f3g2h contracted to 9s8p7d4f3g2h pattern {11101111111/51111111/1111111/1111/111/11}
 Group   2 Type H   : 12s7p4d3f2g contracted to 8s7p4d3f2g pattern {51111111/1111111/1111/111/11}

Atom   0C    basis set group =>   1
Atom   1C    basis set group =>   1
Atom   2H    basis set group =>   2
Atom   3H    basis set group =>   2
Atom   4H    basis set group =>   2


           ************************************************************
           *        Program running with 4 parallel MPI-processes     *
           *              working on a common directory               *
           ************************************************************
------------------------------------------------------------------------------
                           ORCA GTO INTEGRAL CALCULATION
------------------------------------------------------------------------------

                         BASIS SET STATISTICS AND STARTUP INFO

 # of primitive gaussian shells          ...  196
 # of primitive gaussian functions       ...  628
 # of contracted shells                  ...  138
 # of contracted basis functions         ...  554
 Highest angular momentum                ...    5
 Maximum contraction depth               ...   11
 Integral package used                   ... LIBINT
 Integral threshhold            Thresh   ...  1.000e-12
 Primitive cut-off              TCut     ...  1.000e-14


------------------------------ INTEGRAL EVALUATION ----------------------------


 * One electron integrals 
 Pre-screening matrix                    ... done
 Shell pair data                         ... done (   0.003 sec)



           ************************************************************
           *        Program running with 4 parallel MPI-processes     *
           *              working on a common directory               *
           ************************************************************
-------------------------------------------------------------------------------
                                 ORCA SCF
-------------------------------------------------------------------------------

------------
SCF SETTINGS
------------
Hamiltonian:
 Density Functional     Method          .... DFT(GTOs)
 Exchange Functional    Exchange        .... PBE
   PBE kappa parameter   XKappa         ....  0.804000
   PBE mue parameter    XMuePBE         ....  0.219520
 Correlation Functional Correlation     .... PBE
   PBE beta parameter  CBetaPBE         ....  0.066725
 LDA part of GGA corr.  LDAOpt          .... PW91-LDA
 Gradients option       PostSCFGGA      .... off
   Density functional embedding theory  .... OFF
   NL short-range parameter             ....  6.400000


General Settings:
 Integral files         IntName         .... c2h3_pbe
 Hartree-Fock type      HFTyp           .... UHF
 Total Charge           Charge          ....    0
 Multiplicity           Mult            ....    2
 Number of Electrons    NEL             ....   15
 Basis Dimension        Dim             ....  554
 Nuclear Repulsion      ENuc            ....     28.3685888153 Eh

Convergence Acceleration:
 DIIS                   CNVDIIS         .... on
   Start iteration      DIISMaxIt       ....    12
   Startup error        DIISStart       ....  0.200000
   # of expansion vecs  DIISMaxEq       ....     5
   Bias factor          DIISBfac        ....   1.050
   Max. coefficient     DIISMaxC        ....  10.000
 Newton-Raphson         CNVNR           .... off
 SOSCF                  CNVSOSCF        .... off
 Level Shifting         CNVShift        .... on
   Level shift para.    LevelShift      ....    0.2500
   Turn off err/grad.   ShiftErr        ....    0.0010
 Zerner damping         CNVZerner       .... off
 Static damping         CNVDamp         .... on
   Fraction old density DampFac         ....    0.7000
   Max. Damping (<1)    DampMax         ....    0.9800
   Min. Damping (>=0)   DampMin         ....    0.0000
   Turn off err/grad.   DampErr         ....    0.1000
 Fernandez-Rico         CNVRico         .... off

SCF Procedure:
 Maximum # iterations   MaxIter         ....   200
 SCF integral mode      SCFMode         .... Direct
   Integral package                     .... LIBINT
 Reset frequency        DirectResetFreq ....    20
 Integral Threshold     Thresh          ....  1.000e-12 Eh
 Primitive CutOff       TCut            ....  1.000e-14 Eh

Convergence Tolerance:
 Convergence Check Mode ConvCheckMode   .... Total+1el-Energy
 Convergence forced     ConvForced      .... 0
 Energy Change          TolE            ....  1.000e-09 Eh
 1-El. energy change                    ....  1.000e-06 Eh
 DIIS Error             TolErr          ....  1.000e-08


Diagonalization of the overlap matrix:
Smallest eigenvalue                        ... 3.082e-08
Time for diagonalization                   ...    0.067 sec
Threshold for overlap eigenvalues          ... 1.000e-08
Number of eigenvalues below threshold      ... 0
Time for construction of square roots      ...    0.047 sec
Total time needed                          ...    0.116 sec

-------------------
DFT GRID GENERATION
-------------------

General Integration Accuracy     IntAcc      ...  5.010
Radial Grid Type                 RadialGrid  ... Gauss-Chebyshev
Angular Grid (max. acc.)         AngularGrid ... Lebedev-434
Angular grid pruning method      GridPruning ... 3 (G Style)
Weight generation scheme         WeightScheme... Becke
Basis function cutoff            BFCut       ...    1.0000e-12
Integration weight cutoff        WCut        ...    1.0000e-14
Grids for H and He will be reduced by one unit

# of grid points (after initial pruning)     ...  41472 (   0.0 sec)
# of grid points (after weights+screening)   ...  40415 (   0.0 sec)
nearest neighbour list constructed           ...    0.0 sec
Grid point re-assignment to atoms done       ...    0.0 sec
Grid point division into batches done        ...    0.3 sec
Reduced shell lists constructed in    0.4 sec

Total number of grid points                  ...    40415
Total number of batches                      ...      634
Average number of points per batch           ...       63
Average number of grid points per atom       ...     8083
Average number of shells per batch           ...   112.62 (81.61%)
Average number of basis functions per batch  ...   464.53 (83.85%)
Average number of large shells per batch     ...   102.24 (90.79%)
Average number of large basis fcns per batch ...   425.64 (91.63%)
Maximum spatial batch extension              ...  14.70, 13.67, 18.05 au
Average spatial batch extension              ...   0.47,  0.43,  0.53 au

Time for grid setup =    0.466 sec

------------------------------
INITIAL GUESS: MODEL POTENTIAL
------------------------------
Loading Hartree-Fock densities                     ... done
Calculating cut-offs                               ... done
Setting up the integral package                    ... done
Initializing the effective Hamiltonian             ... done
Starting the Coulomb interaction                   ... done (   0.1 sec)
Reading the grid                                   ... done
Mapping shells                                     ... done
Starting the XC term evaluation                    ... done (   1.3 sec)
  promolecular density results
     # of electrons  =     14.998530331
     EX              =    -11.020358273
     EC              =     -0.453184912
     EX+EC           =    -11.473543185
Transforming the Hamiltonian                       ... done (   0.0 sec)
Diagonalizing the Hamiltonian                      ... done (   0.1 sec)
Back transforming the eigenvectors                 ... done (   0.0 sec)
Now organizing SCF variables                       ... done
                      ------------------
                      INITIAL GUESS DONE (   2.0 sec)
                      ------------------
--------------
SCF ITERATIONS
--------------
ITER       Energy         Delta-E        Max-DP      RMS-DP      [F,P]     Damp
               ***  Starting incremental Fock matrix formation  ***
  0    -77.7632950593   0.000000000000 0.02105796  0.00016159  0.1814340 0.7000
  1    -77.7942879081  -0.030992848830 0.01982309  0.00012382  0.0808920 0.7000
                               ***Turning on DIIS***
  2    -77.8056768298  -0.011388921719 0.09668237  0.00033351  0.0214454 0.0000
  3    -77.8210050038  -0.015328174030 0.01694369  0.00007927  0.0526746 0.0000
  4    -77.8268317849  -0.005826781088 0.00941536  0.00004144  0.0123345 0.0000
  5    -77.8273237839  -0.000491998961 0.00886689  0.00003384  0.0046407 0.0000
  6    -77.8273931424  -0.000069358492 0.01572518  0.00004512  0.0009156 0.0000
  7    -77.8274233850  -0.000030242575 0.00088936  0.00000413  0.0003585 0.0000
  8    -77.8274281795  -0.000004794539 0.00049808  0.00000240  0.0001869 0.0000
  9    -77.8274298701  -0.000001690625 0.00040485  0.00000169  0.0000374 0.0000
 10    -77.8274304176  -0.000000547432 0.00012024  0.00000063  0.0000151 0.0000
 11    -77.8274305023  -0.000000084763 0.00003842  0.00000028  0.0000126 0.0000
 12    -77.8274305153  -0.000000012985 0.00005284  0.00000020  0.0000034 0.0000
 13    -77.8274305162  -0.000000000879 0.00013448  0.00000063  0.0000007 0.0000
 14    -77.8274305163  -0.000000000075 0.00045472  0.00000157  0.0000003 0.0000
                 **** Energy Check signals convergence ****

               *****************************************************
               *                     SUCCESS                       *
               *           SCF CONVERGED AFTER  15 CYCLES          *
               *****************************************************


----------------
TOTAL SCF ENERGY
----------------

Total Energy       :          -77.82743052 Eh           -2117.79205 eV

Components:
Nuclear Repulsion  :           28.36858882 Eh             771.94855 eV
Electronic Energy  :         -106.19601933 Eh           -2889.74060 eV
One Electron Energy:         -159.63835972 Eh           -4343.98061 eV
Two Electron Energy:           53.44234039 Eh            1454.24001 eV

Virial components:
Potential Energy   :         -155.31057448 Eh           -4226.21559 eV
Kinetic Energy     :           77.48314397 Eh            2108.42354 eV
Virial Ratio       :            2.00444337


DFT components:
N(Alpha)           :        8.000000275716 electrons
N(Beta)            :        7.000000265460 electrons
N(Total)           :       15.000000541176 electrons
E(X)               :      -11.308711237715 Eh       
E(C)               :       -0.454048375667 Eh       
E(XC)              :      -11.762759613382 Eh       
DFET-embed. en.    :        0.000000000000 Eh       

---------------
SCF CONVERGENCE
---------------

  Last Energy change         ...   -1.9895e-12  Tolerance :   1.0000e-09
  Last MAX-Density change    ...    2.3499e-04  Tolerance :   1.0000e-08
  Last RMS-Density change    ...    1.2332e-06  Tolerance :   1.0000e-09
  Last DIIS Error            ...    2.6411e-07  Tolerance :   1.0000e-08

             **** THE GBW FILE WAS UPDATED (c2h3_pbe.gbw) ****
             **** DENSITY FILE WAS UPDATED (c2h3_pbe.scfp.tmp) ****
             **** ENERGY FILE WAS UPDATED (c2h3_pbe.en.tmp) ****
----------------------
UHF SPIN CONTAMINATION
----------------------

Warning: in a DFT calculation there is little theoretical justification to 
         calculate <S**2> as in Hartree-Fock theory. We will do it anyways
         but you should keep in mind that the values have only limited relevance

Expectation value of <S**2>     :     0.758574
Ideal value S*(S+1) for S=0.5   :     0.750000
Deviation                       :     0.008574

----------------
ORBITAL ENERGIES
----------------
                 SPIN UP ORBITALS
  NO   OCC          E(Eh)            E(eV) 
   0   1.0000      -9.918205      -269.8881 
   1   1.0000      -9.894858      -269.2528 
   2   1.0000      -0.698642       -19.0110 
   3   1.0000      -0.523575       -14.2472 
   4   1.0000      -0.418927       -11.3996 
   5   1.0000      -0.387078       -10.5329 
   6   1.0000      -0.259775        -7.0688 
   7   1.0000      -0.204077        -5.5532 
   8   0.0000      -0.044037        -1.1983 
   9   0.0000      -0.013107        -0.3567 
  10   0.0000       0.001885         0.0513 
  11   0.0000       0.008927         0.2429 
  12   0.0000       0.016480         0.4485 
  13   0.0000       0.031473         0.8564 
  14   0.0000       0.032635         0.8880 
  15   0.0000       0.038580         1.0498 
  16   0.0000       0.041369         1.1257 
  17   0.0000       0.043008         1.1703 
  18   0.0000       0.047529         1.2933 
  19   0.0000       0.055311         1.5051 
  20   0.0000       0.063081         1.7165 
  21   0.0000       0.065269         1.7760 
  22   0.0000       0.068123         1.8537 
  23   0.0000       0.077056         2.0968 
  24   0.0000       0.079889         2.1739 
  25   0.0000       0.088795         2.4162 
  26   0.0000       0.103575         2.8184 
  27   0.0000       0.104812         2.8521 
  28   0.0000       0.111691         3.0393 
  29   0.0000       0.113396         3.0857 
  30   0.0000       0.119196         3.2435 
  31   0.0000       0.121370         3.3026 
  32   0.0000       0.125124         3.4048 
  33   0.0000       0.133071         3.6210 
  34   0.0000       0.137011         3.7283 
  35   0.0000       0.142086         3.8664 
  36   0.0000       0.147214         4.0059 
  37   0.0000       0.155139         4.2215 
  38   0.0000       0.157614         4.2889 
  39   0.0000       0.165357         4.4996 
  40   0.0000       0.165557         4.5050 
  41   0.0000       0.171744         4.6734 
  42   0.0000       0.174329         4.7437 
  43   0.0000       0.179185         4.8759 
  44   0.0000       0.186669         5.0795 
  45   0.0000       0.194684         5.2976 
  46   0.0000       0.198816         5.4101 
  47   0.0000       0.200801         5.4641 
  48   0.0000       0.207481         5.6458 
  49   0.0000       0.214590         5.8393 
  50   0.0000       0.218086         5.9344 
  51   0.0000       0.222115         6.0441 
  52   0.0000       0.232401         6.3240 
  53   0.0000       0.232611         6.3297 
  54   0.0000       0.240145         6.5347 
  55   0.0000       0.248555         6.7635 
  56   0.0000       0.251584         6.8459 
  57   0.0000       0.253762         6.9052 
  58   0.0000       0.264661         7.2018 
  59   0.0000       0.265059         7.2126 
  60   0.0000       0.271147         7.3783 
  61   0.0000       0.276574         7.5260 
  62   0.0000       0.283075         7.7029 
  63   0.0000       0.288029         7.8377 
  64   0.0000       0.289423         7.8756 
  65   0.0000       0.295378         8.0377 
  66   0.0000       0.299448         8.1484 
  67   0.0000       0.302239         8.2243 
  68   0.0000       0.309764         8.4291 
  69   0.0000       0.311941         8.4883 
  70   0.0000       0.321252         8.7417 
  71   0.0000       0.321606         8.7513 
  72   0.0000       0.323346         8.7987 
  73   0.0000       0.331072         9.0089 
  74   0.0000       0.332436         9.0460 
  75   0.0000       0.339145         9.2286 
  76   0.0000       0.347522         9.4565 
  77   0.0000       0.353218         9.6115 
  78   0.0000       0.358079         9.7438 
  79   0.0000       0.359053         9.7703 
  80   0.0000       0.367673        10.0049 
  81   0.0000       0.369573        10.0566 
  82   0.0000       0.381806        10.3895 
  83   0.0000       0.389463        10.5978 
  84   0.0000       0.397499        10.8165 
  85   0.0000       0.401073        10.9138 
  86   0.0000       0.413797        11.2600 
  87   0.0000       0.423327        11.5193 
  88   0.0000       0.425609        11.5814 
  89   0.0000       0.429491        11.6870 
  90   0.0000       0.432294        11.7633 
  91   0.0000       0.443376        12.0649 
  92   0.0000       0.446902        12.1608 
  93   0.0000       0.447353        12.1731 
  94   0.0000       0.450447        12.2573 
  95   0.0000       0.457636        12.4529 
  96   0.0000       0.464145        12.6300 
  97   0.0000       0.471261        12.8237 
  98   0.0000       0.473520        12.8851 
  99   0.0000       0.474858        12.9215 
 100   0.0000       0.481920        13.1137 
 101   0.0000       0.488277        13.2867 
 102   0.0000       0.489994        13.3334 
 103   0.0000       0.497004        13.5242 
 104   0.0000       0.498464        13.5639 
 105   0.0000       0.502098        13.6628 
 106   0.0000       0.503243        13.6939 
 107   0.0000       0.504302        13.7228 
 108   0.0000       0.514835        14.0094 
 109   0.0000       0.517004        14.0684 
 110   0.0000       0.520520        14.1641 
 111   0.0000       0.529560        14.4100 
 112   0.0000       0.534620        14.5478 
 113   0.0000       0.537203        14.6180 
 114   0.0000       0.542239        14.7551 
 115   0.0000       0.543149        14.7798 
 116   0.0000       0.548800        14.9336 
 117   0.0000       0.558489        15.1973 
 118   0.0000       0.558980        15.2106 
 119   0.0000       0.570087        15.5129 
 120   0.0000       0.570621        15.5274 
 121   0.0000       0.573194        15.5974 
 122   0.0000       0.584941        15.9171 
 123   0.0000       0.586598        15.9621 
 124   0.0000       0.594844        16.1865 
 125   0.0000       0.607765        16.5381 
 126   0.0000       0.608316        16.5531 
 127   0.0000       0.614440        16.7197 
 128   0.0000       0.622156        16.9297 
 129   0.0000       0.623311        16.9611 
 130   0.0000       0.629591        17.1321 
 131   0.0000       0.640104        17.4181 
 132   0.0000       0.644978        17.5507 
 133   0.0000       0.645957        17.5774 
 134   0.0000       0.657718        17.8974 
 135   0.0000       0.669300        18.2126 
 136   0.0000       0.678208        18.4550 
 137   0.0000       0.687848        18.7173 
 138   0.0000       0.706137        19.2150 
 139   0.0000       0.706947        19.2370 
 140   0.0000       0.718549        19.5527 
 141   0.0000       0.726405        19.7665 
 142   0.0000       0.742321        20.1996 
 143   0.0000       0.750146        20.4125 
 144   0.0000       0.758404        20.6372 
 145   0.0000       0.760182        20.6856 
 146   0.0000       0.761782        20.7291 
 147   0.0000       0.767258        20.8781 
 148   0.0000       0.778190        21.1756 
 149   0.0000       0.780694        21.2438 
 150   0.0000       0.782693        21.2982 
 151   0.0000       0.800457        21.7815 
 152   0.0000       0.803510        21.8646 
 153   0.0000       0.810704        22.0604 
 154   0.0000       0.817664        22.2498 
 155   0.0000       0.821137        22.3443 
 156   0.0000       0.822441        22.3798 
 157   0.0000       0.825857        22.4727 
 158   0.0000       0.830835        22.6082 
 159   0.0000       0.831968        22.6390 
 160   0.0000       0.834686        22.7129 
 161   0.0000       0.846292        23.0288 
 162   0.0000       0.847394        23.0588 
 163   0.0000       0.848130        23.0788 
 164   0.0000       0.852423        23.1956 
 165   0.0000       0.853680        23.2298 
 166   0.0000       0.858588        23.3634 
 167   0.0000       0.867823        23.6147 
 168   0.0000       0.876846        23.8602 
 169   0.0000       0.878525        23.9059 
 170   0.0000       0.884882        24.0789 
 171   0.0000       0.885472        24.0949 
 172   0.0000       0.890450        24.2304 
 173   0.0000       0.905224        24.6324 
 174   0.0000       0.905571        24.6418 
 175   0.0000       0.909655        24.7530 
 176   0.0000       0.914730        24.8911 
 177   0.0000       0.916778        24.9468 
 178   0.0000       0.921729        25.0815 
 179   0.0000       0.923507        25.1299 
 180   0.0000       0.924626        25.1604 
 181   0.0000       0.933137        25.3919 
 182   0.0000       0.938365        25.5342 
 183   0.0000       0.941098        25.6086 
 184   0.0000       0.945044        25.7160 
 185   0.0000       0.953455        25.9448 
 186   0.0000       0.957446        26.0534 
 187   0.0000       0.963235        26.2110 
 188   0.0000       0.968707        26.3599 
 189   0.0000       0.969952        26.3937 
 190   0.0000       0.982680        26.7401 
 191   0.0000       0.986571        26.8459 
 192   0.0000       0.988837        26.9076 
 193   0.0000       1.012533        27.5524 
 194   0.0000       1.020788        27.7771 
 195   0.0000       1.031289        28.0628 
 196   0.0000       1.051625        28.6162 
 197   0.0000       1.059316        28.8255 
 198   0.0000       1.081721        29.4351 
 199   0.0000       1.100583        29.9484 
 200   0.0000       1.115914        30.3656 
 201   0.0000       1.149315        31.2745 
 202   0.0000       1.154885        31.4260 
 203   0.0000       1.165146        31.7052 
 204   0.0000       1.166692        31.7473 
 205   0.0000       1.189959        32.3804 
 206   0.0000       1.198106        32.6021 
 207   0.0000       1.235732        33.6260 
 208   0.0000       1.271863        34.6092 
 209   0.0000       1.280015        34.8310 
 210   0.0000       1.303367        35.4664 
 211   0.0000       1.343680        36.5634 
 212   0.0000       1.355043        36.8726 
 213   0.0000       1.380542        37.5665 
 214   0.0000       1.411219        38.4012 
 215   0.0000       1.423874        38.7456 
 216   0.0000       1.436141        39.0794 
 217   0.0000       1.471568        40.0434 
 218   0.0000       1.508698        41.0538 
 219   0.0000       1.514424        41.2096 
 220   0.0000       1.527285        41.5595 
 221   0.0000       1.562346        42.5136 
 222   0.0000       1.567329        42.6492 
 223   0.0000       1.578521        42.9537 
 224   0.0000       1.584691        43.1216 
 225   0.0000       1.632330        44.4180 
 226   0.0000       1.633231        44.4425 
 227   0.0000       1.642462        44.6937 
 228   0.0000       1.645954        44.7887 
 229   0.0000       1.663417        45.2639 
 230   0.0000       1.675875        45.6029 
 231   0.0000       1.688373        45.9430 
 232   0.0000       1.700771        46.2803 
 233   0.0000       1.758024        47.8383 
 234   0.0000       1.779766        48.4299 
 235   0.0000       1.801170        49.0123 
 236   0.0000       1.834212        49.9114 
 237   0.0000       1.848509        50.3005 
 238   0.0000       1.894496        51.5519 
 239   0.0000       1.927641        52.4538 
 240   0.0000       1.955283        53.2060 
 241   0.0000       2.005912        54.5836 
 242   0.0000       2.049544        55.7709 
 243   0.0000       2.079227        56.5786 
 244   0.0000       2.095362        57.0177 
 245   0.0000       2.142365        58.2967 
 246   0.0000       2.164123        58.8888 
 247   0.0000       2.171822        59.0983 
 248   0.0000       2.195990        59.7559 
 249   0.0000       2.214733        60.2660 
 250   0.0000       2.231908        60.7333 
 251   0.0000       2.256683        61.4075 
 252   0.0000       2.271226        61.8032 
 253   0.0000       2.293932        62.4211 
 254   0.0000       2.337006        63.5932 
 255   0.0000       2.370061        64.4926 
 256   0.0000       2.419472        65.8372 
 257   0.0000       2.430265        66.1309 
 258   0.0000       2.480839        67.5071 
 259   0.0000       2.513409        68.3933 
 260   0.0000       2.571590        69.9765 
 261   0.0000       2.577113        70.1268 
 262   0.0000       2.583380        70.2973 
 263   0.0000       2.638794        71.8052 
 264   0.0000       2.680195        72.9318 
 265   0.0000       2.720373        74.0251 
 266   0.0000       2.787531        75.8526 
 267   0.0000       2.837676        77.2171 
 268   0.0000       2.922095        79.5142 
 269   0.0000       2.983491        81.1849 
 270   0.0000       3.010422        81.9177 
 271   0.0000       3.034899        82.5838 
 272   0.0000       3.073742        83.6408 
 273   0.0000       3.075543        83.6898 
 274   0.0000       3.175197        86.4015 
 275   0.0000       3.217960        87.5651 
 276   0.0000       3.275202        89.1228 
 277   0.0000       3.283136        89.3387 
 278   0.0000       3.317118        90.2634 
 279   0.0000       3.385800        92.1323 
 280   0.0000       3.389649        92.2370 
 281   0.0000       3.473753        94.5256 
 282   0.0000       3.521813        95.8334 
 283   0.0000       3.541252        96.3624 
 284   0.0000       3.587422        97.6187 
 285   0.0000       3.602236        98.0218 
 286   0.0000       3.611925        98.2855 
 287   0.0000       3.668978        99.8380 
 288   0.0000       3.671213        99.8988 
 289   0.0000       3.693900       100.5161 
 290   0.0000       3.700036       100.6831 
 291   0.0000       3.770760       102.6076 
 292   0.0000       3.786415       103.0336 
 293   0.0000       3.821759       103.9953 
 294   0.0000       3.833138       104.3050 
 295   0.0000       3.858984       105.0083 
 296   0.0000       3.914940       106.5309 
 297   0.0000       3.973445       108.1229 
 298   0.0000       3.989188       108.5513 
 299   0.0000       3.995139       108.7133 
 300   0.0000       4.000140       108.8493 
 301   0.0000       4.056569       110.3849 
 302   0.0000       4.086673       111.2040 
 303   0.0000       4.151409       112.9656 
 304   0.0000       4.169927       113.4695 
 305   0.0000       4.192783       114.0914 
 306   0.0000       4.243660       115.4759 
 307   0.0000       4.273996       116.3013 
 308   0.0000       4.311487       117.3215 
 309   0.0000       4.352846       118.4470 
 310   0.0000       4.353803       118.4730 
 311   0.0000       4.405299       119.8743 
 312   0.0000       4.445041       120.9557 
 313   0.0000       4.503757       122.5535 
 314   0.0000       4.526306       123.1670 
 315   0.0000       4.535941       123.4292 
 316   0.0000       4.599690       125.1639 
 317   0.0000       4.608441       125.4020 
 318   0.0000       4.641580       126.3038 
 319   0.0000       4.642944       126.3409 
 320   0.0000       4.693526       127.7173 
 321   0.0000       4.720756       128.4583 
 322   0.0000       4.738362       128.9374 
 323   0.0000       4.764462       129.6476 
 324   0.0000       4.776820       129.9839 
 325   0.0000       4.794330       130.4603 
 326   0.0000       4.862416       132.3131 
 327   0.0000       4.915455       133.7563 
 328   0.0000       4.918791       133.8471 
 329   0.0000       5.028132       136.8224 
 330   0.0000       5.033252       136.9617 
 331   0.0000       5.037269       137.0710 
 332   0.0000       5.073435       138.0552 
 333   0.0000       5.201621       141.5433 
 334   0.0000       5.209224       141.7502 
 335   0.0000       5.219686       142.0349 
 336   0.0000       5.291432       143.9872 
 337   0.0000       5.319915       144.7622 
 338   0.0000       5.388893       146.6392 
 339   0.0000       5.475747       149.0026 
 340   0.0000       5.508511       149.8942 
 341   0.0000       5.587209       152.0357 
 342   0.0000       5.616722       152.8388 
 343   0.0000       5.641151       153.5035 
 344   0.0000       5.717620       155.5844 
 345   0.0000       5.759542       156.7251 
 346   0.0000       5.818494       158.3293 
 347   0.0000       5.834231       158.7575 
 348   0.0000       5.942113       161.6931 
 349   0.0000       5.958564       162.1408 
 350   0.0000       6.126513       166.7109 
 351   0.0000       6.224609       169.3802 
 352   0.0000       6.276981       170.8053 
 353   0.0000       6.385350       173.7542 
 354   0.0000       6.401314       174.1886 
 355   0.0000       6.450826       175.5359 
 356   0.0000       6.478131       176.2789 
 357   0.0000       6.571387       178.8165 
 358   0.0000       6.654184       181.0696 
 359   0.0000       6.701580       182.3593 
 360   0.0000       6.785901       184.6538 
 361   0.0000       6.797474       184.9687 
 362   0.0000       6.956698       189.3014 
 363   0.0000       6.971446       189.7027 
 364   0.0000       7.000168       190.4843 
 365   0.0000       7.154257       194.6772 
 366   0.0000       7.200859       195.9453 
 367   0.0000       7.285183       198.2399 
 368   0.0000       7.517060       204.5496 
 369   0.0000       7.606862       206.9932 
 370   0.0000       7.745211       210.7579 
 371   0.0000       7.844179       213.4510 
 372   0.0000       7.968512       216.8342 
 373   0.0000       8.444020       229.7735 
 374   0.0000       8.568409       233.1583 
 375   0.0000       8.622424       234.6281 
 376   0.0000       8.653946       235.4859 
 377   0.0000       8.785926       239.0772 
 378   0.0000       8.839886       240.5455 
 379   0.0000       8.922929       242.8052 
 380   0.0000       8.947486       243.4735 
 381   0.0000       9.008483       245.1333 
 382   0.0000       9.017252       245.3719 
 383   0.0000       9.042148       246.0494 
 384   0.0000       9.077562       247.0130 
 385   0.0000       9.101372       247.6609 
 386   0.0000       9.159623       249.2460 
 387   0.0000       9.249158       251.6824 
 388   0.0000       9.279449       252.5067 
 389   0.0000       9.447029       257.0667 
 390   0.0000       9.462968       257.5004 
 391   0.0000       9.513468       258.8746 
 392   0.0000       9.604103       261.3409 
 393   0.0000       9.923084       270.0209 
 394   0.0000      10.027327       272.8574 
 395   0.0000      10.122445       275.4457 
 396   0.0000      10.244937       278.7789 
 397   0.0000      10.337503       281.2978 
 398   0.0000      10.404001       283.1072 
 399   0.0000      10.460964       284.6573 
 400   0.0000      10.568925       287.5951 
 401   0.0000      10.624423       289.1053 
 402   0.0000      10.677699       290.5550 
 403   0.0000      10.714766       291.5636 
 404   0.0000      10.719596       291.6950 
 405   0.0000      10.766224       292.9638 
 406   0.0000      10.767971       293.0114 
 407   0.0000      10.784416       293.4589 
 408   0.0000      10.848793       295.2107 
 409   0.0000      10.899599       296.5932 
 410   0.0000      10.908247       296.8285 
 411   0.0000      10.967495       298.4407 
 412   0.0000      11.072123       301.2878 
 413   0.0000      11.156049       303.5715 
 414   0.0000      11.227678       305.5206 
 415   0.0000      11.308899       307.7308 
 416   0.0000      11.368239       309.3455 
 417   0.0000      11.421140       310.7850 
 418   0.0000      11.425126       310.8935 
 419   0.0000      11.457409       311.7719 
 420   0.0000      11.563142       314.6491 
 421   0.0000      11.592210       315.4401 
 422   0.0000      11.609288       315.9048 
 423   0.0000      11.696085       318.2666 
 424   0.0000      11.708321       318.5996 
 425   0.0000      11.732723       319.2636 
 426   0.0000      11.743800       319.5651 
 427   0.0000      11.812850       321.4440 
 428   0.0000      11.823226       321.7263 
 429   0.0000      11.838502       322.1420 
 430   0.0000      11.854503       322.5774 
 431   0.0000      11.861881       322.7782 
 432   0.0000      11.956820       325.3616 
 433   0.0000      12.014656       326.9354 
 434   0.0000      12.055723       328.0529 
 435   0.0000      12.165464       331.0391 
 436   0.0000      12.211351       332.2878 
 437   0.0000      12.228503       332.7545 
 438   0.0000      12.319449       335.2293 
 439   0.0000      12.347737       335.9990 
 440   0.0000      12.373871       336.7102 
 441   0.0000      12.412627       337.7647 
 442   0.0000      12.455452       338.9301 
 443   0.0000      12.499872       340.1388 
 444   0.0000      12.513333       340.5051 
 445   0.0000      12.547119       341.4245 
 446   0.0000      12.609581       343.1242 
 447   0.0000      12.668667       344.7319 
 448   0.0000      12.705799       345.7424 
 449   0.0000      12.800150       348.3098 
 450   0.0000      12.840587       349.4101 
 451   0.0000      12.848742       349.6320 
 452   0.0000      12.884133       350.5951 
 453   0.0000      12.936504       352.0202 
 454   0.0000      12.965698       352.8146 
 455   0.0000      13.026369       354.4655 
 456   0.0000      13.167988       358.3192 
 457   0.0000      13.217461       359.6654 
 458   0.0000      13.224646       359.8609 
 459   0.0000      13.299762       361.9049 
 460   0.0000      13.391711       364.4070 
 461   0.0000      13.403200       364.7196 
 462   0.0000      13.491699       367.1278 
 463   0.0000      13.558241       368.9385 
 464   0.0000      13.633629       370.9899 
 465   0.0000      13.692852       372.6015 
 466   0.0000      13.727678       373.5491 
 467   0.0000      13.975616       380.2958 
 468   0.0000      14.054112       382.4318 
 469   0.0000      14.157812       385.2536 
 470   0.0000      14.296422       389.0254 
 471   0.0000      14.375242       391.1702 
 472   0.0000      14.501553       394.6073 
 473   0.0000      14.700919       400.0324 
 474   0.0000      14.852077       404.1456 
 475   0.0000      15.002448       408.2374 
 476   0.0000      15.155327       412.3974 
 477   0.0000      15.308012       416.5522 
 478   0.0000      15.319169       416.8558 
 479   0.0000      15.373424       418.3321 
 480   0.0000      15.774460       429.2449 
 481   0.0000      15.847119       431.2220 
 482   0.0000      16.022188       435.9859 
 483   0.0000      16.250319       442.1937 
 484   0.0000      16.599375       451.6920 
 485   0.0000      16.716433       454.8773 
 486   0.0000      16.723977       455.0826 
 487   0.0000      16.728929       455.2173 
 488   0.0000      16.744430       455.6391 
 489   0.0000      16.763561       456.1597 
 490   0.0000      16.772582       456.4052 
 491   0.0000      16.818147       457.6451 
 492   0.0000      17.081045       464.7989 
 493   0.0000      17.139868       466.3995 
 494   0.0000      17.159145       466.9241 
 495   0.0000      17.231247       468.8861 
 496   0.0000      17.250953       469.4223 
 497   0.0000      17.378806       472.9014 
 498   0.0000      17.498947       476.1706 
 499   0.0000      17.830665       485.1971 
 500   0.0000      18.037913       490.8366 
 501   0.0000      18.494264       503.2545 
 502   0.0000      18.510919       503.7077 
 503   0.0000      18.598211       506.0831 
 504   0.0000      18.716777       509.3094 
 505   0.0000      18.759385       510.4688 
 506   0.0000      18.792538       511.3709 
 507   0.0000      19.039717       518.0970 
 508   0.0000      19.191896       522.2381 
 509   0.0000      19.927236       542.2477 
 510   0.0000      20.185822       549.2841 
 511   0.0000      20.242907       550.8375 
 512   0.0000      20.246522       550.9359 
 513   0.0000      20.397332       555.0396 
 514   0.0000      20.466727       556.9279 
 515   0.0000      20.553402       559.2865 
 516   0.0000      20.586223       560.1796 
 517   0.0000      20.864800       567.7601 
 518   0.0000      21.336608       580.5986 
 519   0.0000      21.539908       586.1307 
 520   0.0000      22.672325       616.9453 
 521   0.0000      23.484703       639.0513 
 522   0.0000      23.539964       640.5550 
 523   0.0000      23.634737       643.1339 
 524   0.0000      23.684555       644.4895 
 525   0.0000      23.853040       649.0742 
 526   0.0000      24.029301       653.8705 
 527   0.0000      25.475634       693.2272 
 528   0.0000      25.486654       693.5271 
 529   0.0000      25.855842       703.5732 
 530   0.0000      31.974101       870.0595 
 531   0.0000      32.111207       873.7904 
 532   0.0000      32.197192       876.1301 
 533   0.0000      32.322223       879.5324 
 534   0.0000      32.629432       887.8920 
 535   0.0000      32.737424       890.8306 
 536   0.0000      33.466572       910.6717 
 537   0.0000      33.577534       913.6912 
 538   0.0000      34.252701       932.0634 
 539   0.0000      35.109362       955.3743 
 540   0.0000      41.021148      1116.2422 
 541   0.0000      41.138362      1119.4318 
 542   0.0000      41.480938      1128.7537 
 543   0.0000      75.049462      2042.1997 
 544   0.0000      76.804808      2089.9651 
 545   0.0000      91.034573      2477.1767 
 546   0.0000      91.076063      2478.3057 
 547   0.0000      91.136607      2479.9531 
 548   0.0000      91.162298      2480.6522 
 549   0.0000      91.283311      2483.9452 
 550   0.0000      91.383257      2486.6649 
 551   0.0000      92.340140      2512.7029 
 552   0.0000      92.396604      2514.2394 
 553   0.0000      92.593333      2519.5927 

                 SPIN DOWN ORBITALS
  NO   OCC          E(Eh)            E(eV) 
   0   1.0000      -9.903842      -269.4972 
   1   1.0000      -9.896103      -269.2867 
   2   1.0000      -0.684449       -18.6248 
   3   1.0000      -0.506050       -13.7703 
   4   1.0000      -0.406748       -11.0682 
   5   1.0000      -0.376109       -10.2345 
   6   1.0000      -0.251812        -6.8521 
   7   0.0000      -0.115917        -3.1542 
   8   0.0000      -0.032892        -0.8950 
   9   0.0000      -0.008681        -0.2362 
  10   0.0000       0.005933         0.1614 
  11   0.0000       0.015448         0.4204 
  12   0.0000       0.017886         0.4867 
  13   0.0000       0.033543         0.9127 
  14   0.0000       0.037057         1.0084 
  15   0.0000       0.040062         1.0901 
  16   0.0000       0.043021         1.1707 
  17   0.0000       0.045881         1.2485 
  18   0.0000       0.049789         1.3548 
  19   0.0000       0.057020         1.5516 
  20   0.0000       0.068363         1.8603 
  21   0.0000       0.068838         1.8732 
  22   0.0000       0.071884         1.9561 
  23   0.0000       0.078963         2.1487 
  24   0.0000       0.082463         2.2439 
  25   0.0000       0.100124         2.7245 
  26   0.0000       0.107120         2.9149 
  27   0.0000       0.107647         2.9292 
  28   0.0000       0.115381         3.1397 
  29   0.0000       0.119096         3.2408 
  30   0.0000       0.123262         3.3541 
  31   0.0000       0.125117         3.4046 
  32   0.0000       0.129938         3.5358 
  33   0.0000       0.134795         3.6680 
  34   0.0000       0.141686         3.8555 
  35   0.0000       0.143889         3.9154 
  36   0.0000       0.150967         4.1080 
  37   0.0000       0.159825         4.3491 
  38   0.0000       0.163098         4.4381 
  39   0.0000       0.168983         4.5983 
  40   0.0000       0.170622         4.6429 
  41   0.0000       0.176451         4.8015 
  42   0.0000       0.177030         4.8172 
  43   0.0000       0.183603         4.9961 
  44   0.0000       0.190831         5.1928 
  45   0.0000       0.197922         5.3857 
  46   0.0000       0.204559         5.5663 
  47   0.0000       0.205502         5.5920 
  48   0.0000       0.214123         5.8266 
  49   0.0000       0.216456         5.8901 
  50   0.0000       0.222753         6.0614 
  51   0.0000       0.230999         6.2858 
  52   0.0000       0.235808         6.4167 
  53   0.0000       0.239751         6.5240 
  54   0.0000       0.242892         6.6094 
  55   0.0000       0.254479         6.9247 
  56   0.0000       0.258034         7.0214 
  57   0.0000       0.258959         7.0466 
  58   0.0000       0.271185         7.3793 
  59   0.0000       0.271544         7.3891 
  60   0.0000       0.276058         7.5119 
  61   0.0000       0.279866         7.6155 
  62   0.0000       0.287241         7.8162 
  63   0.0000       0.293021         7.9735 
  64   0.0000       0.293193         7.9782 
  65   0.0000       0.301428         8.2023 
  66   0.0000       0.304506         8.2860 
  67   0.0000       0.307155         8.3581 
  68   0.0000       0.314649         8.5620 
  69   0.0000       0.316740         8.6189 
  70   0.0000       0.323993         8.8163 
  71   0.0000       0.325818         8.8660 
  72   0.0000       0.327815         8.9203 
  73   0.0000       0.334960         9.1147 
  74   0.0000       0.336009         9.1433 
  75   0.0000       0.343258         9.3405 
  76   0.0000       0.355439         9.6720 
  77   0.0000       0.356217         9.6932 
  78   0.0000       0.365031         9.9330 
  79   0.0000       0.365552         9.9472 
  80   0.0000       0.375490        10.2176 
  81   0.0000       0.380897        10.3647 
  82   0.0000       0.387588        10.5468 
  83   0.0000       0.394794        10.7429 
  84   0.0000       0.403454        10.9786 
  85   0.0000       0.406165        11.0523 
  86   0.0000       0.417729        11.3670 
  87   0.0000       0.430233        11.7072 
  88   0.0000       0.430706        11.7201 
  89   0.0000       0.436433        11.8759 
  90   0.0000       0.437265        11.8986 
  91   0.0000       0.448924        12.2158 
  92   0.0000       0.452208        12.3052 
  93   0.0000       0.454164        12.3584 
  94   0.0000       0.455190        12.3863 
  95   0.0000       0.469242        12.7687 
  96   0.0000       0.469467        12.7748 
  97   0.0000       0.473413        12.8822 
  98   0.0000       0.481148        13.0927 
  99   0.0000       0.481660        13.1066 
 100   0.0000       0.487769        13.2729 
 101   0.0000       0.494601        13.4588 
 102   0.0000       0.494640        13.4598 
 103   0.0000       0.506015        13.7694 
 104   0.0000       0.506470        13.7817 
 105   0.0000       0.507581        13.8120 
 106   0.0000       0.507879        13.8201 
 107   0.0000       0.511146        13.9090 
 108   0.0000       0.519950        14.1486 
 109   0.0000       0.522535        14.2189 
 110   0.0000       0.528205        14.3732 
 111   0.0000       0.532705        14.4956 
 112   0.0000       0.541827        14.7439 
 113   0.0000       0.542513        14.7625 
 114   0.0000       0.546256        14.8644 
 115   0.0000       0.547923        14.9097 
 116   0.0000       0.555180        15.1072 
 117   0.0000       0.563874        15.3438 
 118   0.0000       0.564424        15.3587 
 119   0.0000       0.576063        15.6755 
 120   0.0000       0.576992        15.7007 
 121   0.0000       0.578434        15.7400 
 122   0.0000       0.592386        16.1196 
 123   0.0000       0.593766        16.1572 
 124   0.0000       0.601461        16.3666 
 125   0.0000       0.613440        16.6925 
 126   0.0000       0.614530        16.7222 
 127   0.0000       0.622735        16.9455 
 128   0.0000       0.627722        17.0812 
 129   0.0000       0.630751        17.1636 
 130   0.0000       0.638125        17.3643 
 131   0.0000       0.647153        17.6099 
 132   0.0000       0.649258        17.6672 
 133   0.0000       0.651266        17.7218 
 134   0.0000       0.670843        18.2546 
 135   0.0000       0.676488        18.4082 
 136   0.0000       0.683768        18.6063 
 137   0.0000       0.696316        18.9477 
 138   0.0000       0.711896        19.3717 
 139   0.0000       0.714955        19.4549 
 140   0.0000       0.727443        19.7947 
 141   0.0000       0.732920        19.9438 
 142   0.0000       0.750555        20.4236 
 143   0.0000       0.757639        20.6164 
 144   0.0000       0.765205        20.8223 
 145   0.0000       0.765742        20.8369 
 146   0.0000       0.772263        21.0143 
 147   0.0000       0.772476        21.0201 
 148   0.0000       0.784739        21.3538 
 149   0.0000       0.787699        21.4344 
 150   0.0000       0.788314        21.4511 
 151   0.0000       0.809251        22.0208 
 152   0.0000       0.810100        22.0439 
 153   0.0000       0.815008        22.1775 
 154   0.0000       0.824489        22.4355 
 155   0.0000       0.827828        22.5264 
 156   0.0000       0.828663        22.5491 
 157   0.0000       0.832826        22.6623 
 158   0.0000       0.836424        22.7603 
 159   0.0000       0.837084        22.7782 
 160   0.0000       0.840538        22.8722 
 161   0.0000       0.854792        23.2601 
 162   0.0000       0.854868        23.2621 
 163   0.0000       0.857625        23.3372 
 164   0.0000       0.857983        23.3469 
 165   0.0000       0.865466        23.5505 
 166   0.0000       0.866200        23.5705 
 167   0.0000       0.876081        23.8394 
 168   0.0000       0.883383        24.0381 
 169   0.0000       0.886297        24.1174 
 170   0.0000       0.888538        24.1783 
 171   0.0000       0.893137        24.3035 
 172   0.0000       0.896446        24.3935 
 173   0.0000       0.910840        24.7852 
 174   0.0000       0.911952        24.8155 
 175   0.0000       0.915521        24.9126 
 176   0.0000       0.921409        25.0728 
 177   0.0000       0.921805        25.0836 
 178   0.0000       0.928464        25.2648 
 179   0.0000       0.933427        25.3999 
 180   0.0000       0.934661        25.4334 
 181   0.0000       0.942522        25.6473 
 182   0.0000       0.944991        25.7145 
 183   0.0000       0.948200        25.8018 
 184   0.0000       0.951245        25.8847 
 185   0.0000       0.960440        26.1349 
 186   0.0000       0.963887        26.2287 
 187   0.0000       0.968258        26.3476 
 188   0.0000       0.975309        26.5395 
 189   0.0000       0.976958        26.5844 
 190   0.0000       0.990292        26.9472 
 191   0.0000       0.991572        26.9820 
 192   0.0000       0.996502        27.1162 
 193   0.0000       1.019626        27.7454 
 194   0.0000       1.030827        28.0502 
 195   0.0000       1.039891        28.2969 
 196   0.0000       1.059614        28.8336 
 197   0.0000       1.067751        29.0550 
 198   0.0000       1.089394        29.6439 
 199   0.0000       1.107406        30.1341 
 200   0.0000       1.125272        30.6202 
 201   0.0000       1.160485        31.5784 
 202   0.0000       1.166079        31.7306 
 203   0.0000       1.176286        32.0084 
 204   0.0000       1.179005        32.0824 
 205   0.0000       1.202865        32.7316 
 206   0.0000       1.215287        33.0696 
 207   0.0000       1.243849        33.8469 
 208   0.0000       1.285461        34.9792 
 209   0.0000       1.288305        35.0566 
 210   0.0000       1.312606        35.7178 
 211   0.0000       1.347992        36.6807 
 212   0.0000       1.363937        37.1146 
 213   0.0000       1.391501        37.8647 
 214   0.0000       1.428983        38.8846 
 215   0.0000       1.430904        38.9369 
 216   0.0000       1.449254        39.4362 
 217   0.0000       1.478223        40.2245 
 218   0.0000       1.514387        41.2086 
 219   0.0000       1.528618        41.5958 
 220   0.0000       1.537026        41.8246 
 221   0.0000       1.570558        42.7370 
 222   0.0000       1.573743        42.8237 
 223   0.0000       1.591565        43.3087 
 224   0.0000       1.592730        43.3404 
 225   0.0000       1.641464        44.6665 
 226   0.0000       1.643952        44.7342 
 227   0.0000       1.652281        44.9609 
 228   0.0000       1.658488        45.1297 
 229   0.0000       1.670725        45.4627 
 230   0.0000       1.683597        45.8130 
 231   0.0000       1.700948        46.2851 
 232   0.0000       1.710849        46.5546 
 233   0.0000       1.767665        48.1006 
 234   0.0000       1.786487        48.6128 
 235   0.0000       1.809287        49.2332 
 236   0.0000       1.846498        50.2458 
 237   0.0000       1.870076        50.8874 
 238   0.0000       1.904076        51.8125 
 239   0.0000       1.936883        52.7053 
 240   0.0000       1.974163        53.7197 
 241   0.0000       2.011120        54.7254 
 242   0.0000       2.058703        56.0201 
 243   0.0000       2.097366        57.0722 
 244   0.0000       2.107838        57.3572 
 245   0.0000       2.146812        58.4177 
 246   0.0000       2.175201        59.1902 
 247   0.0000       2.181092        59.3505 
 248   0.0000       2.228731        60.6469 
 249   0.0000       2.230683        60.7000 
 250   0.0000       2.251188        61.2580 
 251   0.0000       2.276943        61.9588 
 252   0.0000       2.280545        62.0568 
 253   0.0000       2.323844        63.2350 
 254   0.0000       2.349585        63.9355 
 255   0.0000       2.391893        65.0867 
 256   0.0000       2.424300        65.9686 
 257   0.0000       2.440540        66.4105 
 258   0.0000       2.498075        67.9761 
 259   0.0000       2.529831        68.8402 
 260   0.0000       2.588149        70.4271 
 261   0.0000       2.591952        70.5306 
 262   0.0000       2.595276        70.6210 
 263   0.0000       2.654761        72.2397 
 264   0.0000       2.689166        73.1759 
 265   0.0000       2.765951        75.2654 
 266   0.0000       2.792990        76.0011 
 267   0.0000       2.861130        77.8553 
 268   0.0000       2.938371        79.9572 
 269   0.0000       2.998864        81.6032 
 270   0.0000       3.018708        82.1432 
 271   0.0000       3.046419        82.8973 
 272   0.0000       3.086256        83.9813 
 273   0.0000       3.086767        83.9952 
 274   0.0000       3.185347        86.6777 
 275   0.0000       3.230435        87.9046 
 276   0.0000       3.294702        89.6534 
 277   0.0000       3.294956        89.6603 
 278   0.0000       3.328662        90.5775 
 279   0.0000       3.394118        92.3586 
 280   0.0000       3.406802        92.7038 
 281   0.0000       3.484387        94.8150 
 282   0.0000       3.534469        96.1778 
 283   0.0000       3.559014        96.8457 
 284   0.0000       3.595940        97.8505 
 285   0.0000       3.616196        98.4017 
 286   0.0000       3.621523        98.5466 
 287   0.0000       3.684715       100.2662 
 288   0.0000       3.690416       100.4213 
 289   0.0000       3.701325       100.7182 
 290   0.0000       3.706598       100.8617 
 291   0.0000       3.785902       103.0196 
 292   0.0000       3.800670       103.4215 
 293   0.0000       3.837111       104.4131 
 294   0.0000       3.840613       104.5084 
 295   0.0000       3.873962       105.4159 
 296   0.0000       3.927348       106.8686 
 297   0.0000       3.983168       108.3875 
 298   0.0000       3.997003       108.7640 
 299   0.0000       4.012416       109.1834 
 300   0.0000       4.014988       109.2534 
 301   0.0000       4.076741       110.9338 
 302   0.0000       4.099943       111.5651 
 303   0.0000       4.170115       113.4746 
 304   0.0000       4.196271       114.1863 
 305   0.0000       4.224446       114.9530 
 306   0.0000       4.261762       115.9684 
 307   0.0000       4.290849       116.7599 
 308   0.0000       4.329310       117.8065 
 309   0.0000       4.387829       119.3989 
 310   0.0000       4.391669       119.5034 
 311   0.0000       4.425488       120.4237 
 312   0.0000       4.458477       121.3213 
 313   0.0000       4.526036       123.1597 
 314   0.0000       4.543322       123.6301 
 315   0.0000       4.555375       123.9581 
 316   0.0000       4.617771       125.6559 
 317   0.0000       4.622351       125.7806 
 318   0.0000       4.646034       126.4250 
 319   0.0000       4.665600       126.9574 
 320   0.0000       4.707792       128.1055 
 321   0.0000       4.744513       129.1048 
 322   0.0000       4.749020       129.2274 
 323   0.0000       4.780620       130.0873 
 324   0.0000       4.803788       130.7177 
 325   0.0000       4.821026       131.1868 
 326   0.0000       4.883410       132.8843 
 327   0.0000       4.939681       134.4155 
 328   0.0000       4.947062       134.6164 
 329   0.0000       5.042451       137.2121 
 330   0.0000       5.046252       137.3155 
 331   0.0000       5.070068       137.9636 
 332   0.0000       5.098694       138.7425 
 333   0.0000       5.223110       142.1281 
 334   0.0000       5.235169       142.4562 
 335   0.0000       5.236023       142.4794 
 336   0.0000       5.318817       144.7324 
 337   0.0000       5.328673       145.0006 
 338   0.0000       5.399382       146.9247 
 339   0.0000       5.483297       149.2081 
 340   0.0000       5.534076       150.5899 
 341   0.0000       5.607008       152.5744 
 342   0.0000       5.636112       153.3664 
 343   0.0000       5.674612       154.4141 
 344   0.0000       5.730976       155.9478 
 345   0.0000       5.774841       157.1414 
 346   0.0000       5.831550       158.6846 
 347   0.0000       5.859079       159.4336 
 348   0.0000       5.962543       162.2490 
 349   0.0000       5.988434       162.9536 
 350   0.0000       6.138126       167.0269 
 351   0.0000       6.225452       169.4031 
 352   0.0000       6.298964       171.4035 
 353   0.0000       6.402088       174.2097 
 354   0.0000       6.411306       174.4605 
 355   0.0000       6.474801       176.1883 
 356   0.0000       6.482805       176.4061 
 357   0.0000       6.580134       179.0545 
 358   0.0000       6.681989       181.8262 
 359   0.0000       6.711996       182.6427 
 360   0.0000       6.789643       184.7556 
 361   0.0000       6.818438       185.5391 
 362   0.0000       6.984099       190.0470 
 363   0.0000       6.991458       190.2472 
 364   0.0000       7.025047       191.1613 
 365   0.0000       7.177168       195.3007 
 366   0.0000       7.213711       196.2951 
 367   0.0000       7.315026       199.0520 
 368   0.0000       7.535329       205.0467 
 369   0.0000       7.628613       207.5851 
 370   0.0000       7.759593       211.1493 
 371   0.0000       7.861497       213.9222 
 372   0.0000       7.984326       217.2646 
 373   0.0000       8.452883       230.0146 
 374   0.0000       8.577391       233.4027 
 375   0.0000       8.640717       235.1259 
 376   0.0000       8.664961       235.7856 
 377   0.0000       8.800790       239.4817 
 378   0.0000       8.851189       240.8531 
 379   0.0000       8.934143       243.1104 
 380   0.0000       8.958654       243.7774 
 381   0.0000       9.023550       245.5433 
 382   0.0000       9.031499       245.7596 
 383   0.0000       9.056118       246.4295 
 384   0.0000       9.088746       247.3174 
 385   0.0000       9.113373       247.9875 
 386   0.0000       9.173412       249.6212 
 387   0.0000       9.267258       252.1749 
 388   0.0000       9.295265       252.9370 
 389   0.0000       9.459292       257.4004 
 390   0.0000       9.476093       257.8576 
 391   0.0000       9.528185       259.2751 
 392   0.0000       9.628045       261.9924 
 393   0.0000       9.933655       270.3085 
 394   0.0000      10.039428       273.1867 
 395   0.0000      10.132280       275.7134 
 396   0.0000      10.266593       279.3682 
 397   0.0000      10.423562       283.6395 
 398   0.0000      10.484676       285.3025 
 399   0.0000      10.500147       285.7235 
 400   0.0000      10.595052       288.3060 
 401   0.0000      10.642273       289.5910 
 402   0.0000      10.716869       291.6208 
 403   0.0000      10.728675       291.9421 
 404   0.0000      10.769064       293.0411 
 405   0.0000      10.801524       293.9244 
 406   0.0000      10.809889       294.1520 
 407   0.0000      10.819546       294.4148 
 408   0.0000      10.875886       295.9479 
 409   0.0000      10.912964       296.9569 
 410   0.0000      10.941022       297.7203 
 411   0.0000      10.995017       299.1896 
 412   0.0000      11.091746       301.8218 
 413   0.0000      11.179568       304.2115 
 414   0.0000      11.254342       306.2462 
 415   0.0000      11.312342       307.8245 
 416   0.0000      11.404804       310.3405 
 417   0.0000      11.436468       311.2021 
 418   0.0000      11.440494       311.3117 
 419   0.0000      11.472728       312.1888 
 420   0.0000      11.596330       315.5522 
 421   0.0000      11.628008       316.4142 
 422   0.0000      11.632977       316.5494 
 423   0.0000      11.709786       318.6395 
 424   0.0000      11.718093       318.8655 
 425   0.0000      11.747753       319.6726 
 426   0.0000      11.803022       321.1766 
 427   0.0000      11.820024       321.6392 
 428   0.0000      11.848647       322.4181 
 429   0.0000      11.874634       323.1252 
 430   0.0000      11.892780       323.6190 
 431   0.0000      11.941495       324.9446 
 432   0.0000      11.978953       325.9639 
 433   0.0000      12.031388       327.3907 
 434   0.0000      12.101163       329.2894 
 435   0.0000      12.181264       331.4690 
 436   0.0000      12.246262       333.2377 
 437   0.0000      12.255098       333.4782 
 438   0.0000      12.344146       335.9013 
 439   0.0000      12.374962       336.7398 
 440   0.0000      12.391400       337.1871 
 441   0.0000      12.430626       338.2545 
 442   0.0000      12.481906       339.6499 
 443   0.0000      12.514683       340.5418 
 444   0.0000      12.528547       340.9191 
 445   0.0000      12.564301       341.8920 
 446   0.0000      12.616650       343.3165 
 447   0.0000      12.683597       345.1382 
 448   0.0000      12.721768       346.1769 
 449   0.0000      12.838974       349.3662 
 450   0.0000      12.863925       350.0452 
 451   0.0000      12.887539       350.6878 
 452   0.0000      12.892304       350.8174 
 453   0.0000      12.955573       352.5391 
 454   0.0000      12.980419       353.2152 
 455   0.0000      13.043308       354.9265 
 456   0.0000      13.191072       358.9473 
 457   0.0000      13.224898       359.8678 
 458   0.0000      13.237650       360.2148 
 459   0.0000      13.303642       362.0105 
 460   0.0000      13.399687       364.6240 
 461   0.0000      13.421045       365.2052 
 462   0.0000      13.510179       367.6307 
 463   0.0000      13.576812       369.4438 
 464   0.0000      13.648840       371.4038 
 465   0.0000      13.712843       373.1454 
 466   0.0000      13.741856       373.9349 
 467   0.0000      14.000876       380.9832 
 468   0.0000      14.066938       382.7808 
 469   0.0000      14.176769       385.7695 
 470   0.0000      14.302944       389.2029 
 471   0.0000      14.389164       391.5491 
 472   0.0000      14.531840       395.4315 
 473   0.0000      14.729107       400.7994 
 474   0.0000      14.876829       404.8191 
 475   0.0000      15.009945       408.4414 
 476   0.0000      15.177978       413.0138 
 477   0.0000      15.323463       416.9726 
 478   0.0000      15.332344       417.2143 
 479   0.0000      15.381410       418.5495 
 480   0.0000      15.783323       429.4860 
 481   0.0000      15.867958       431.7891 
 482   0.0000      16.044186       436.5845 
 483   0.0000      16.264956       442.5919 
 484   0.0000      16.615133       452.1207 
 485   0.0000      16.731259       455.2807 
 486   0.0000      16.731749       455.2940 
 487   0.0000      16.740129       455.5221 
 488   0.0000      16.760969       456.0892 
 489   0.0000      16.776316       456.5068 
 490   0.0000      16.786383       456.7807 
 491   0.0000      16.853969       458.6198 
 492   0.0000      17.096413       465.2170 
 493   0.0000      17.149919       466.6730 
 494   0.0000      17.168970       467.1914 
 495   0.0000      17.245340       469.2695 
 496   0.0000      17.276516       470.1179 
 497   0.0000      17.390822       473.2283 
 498   0.0000      17.528897       476.9855 
 499   0.0000      17.843605       485.5492 
 500   0.0000      18.046789       491.0781 
 501   0.0000      18.507248       503.6078 
 502   0.0000      18.524321       504.0724 
 503   0.0000      18.608551       506.3644 
 504   0.0000      18.729658       509.6599 
 505   0.0000      18.776174       510.9257 
 506   0.0000      18.804270       511.6902 
 507   0.0000      19.054836       518.5085 
 508   0.0000      19.219129       522.9791 
 509   0.0000      19.940049       542.5963 
 510   0.0000      20.197576       549.6040 
 511   0.0000      20.254542       551.1541 
 512   0.0000      20.255676       551.1850 
 513   0.0000      20.406196       555.2808 
 514   0.0000      20.476624       557.1973 
 515   0.0000      20.567343       559.6658 
 516   0.0000      20.608105       560.7750 
 517   0.0000      20.880658       568.1916 
 518   0.0000      21.348177       580.9134 
 519   0.0000      21.542860       586.2110 
 520   0.0000      22.682744       617.2288 
 521   0.0000      23.501299       639.5029 
 522   0.0000      23.552981       640.9092 
 523   0.0000      23.649961       643.5481 
 524   0.0000      23.698459       644.8679 
 525   0.0000      23.867401       649.4650 
 526   0.0000      24.048004       654.3795 
 527   0.0000      25.487089       693.5389 
 528   0.0000      25.502969       693.9711 
 529   0.0000      25.871463       703.9983 
 530   0.0000      32.021493       871.3491 
 531   0.0000      32.169413       875.3742 
 532   0.0000      32.205568       876.3581 
 533   0.0000      32.318171       879.4222 
 534   0.0000      32.650509       888.4655 
 535   0.0000      32.741820       890.9502 
 536   0.0000      33.476925       910.9534 
 537   0.0000      33.588146       913.9799 
 538   0.0000      34.260842       932.2849 
 539   0.0000      35.121512       955.7049 
 540   0.0000      41.036346      1116.6557 
 541   0.0000      41.150623      1119.7654 
 542   0.0000      41.494213      1129.1150 
 543   0.0000      75.062616      2042.5576 
 544   0.0000      76.808159      2090.0563 
 545   0.0000      91.051303      2477.6319 
 546   0.0000      91.090235      2478.6913 
 547   0.0000      91.153502      2480.4129 
 548   0.0000      91.175418      2481.0093 
 549   0.0000      91.298064      2484.3466 
 550   0.0000      91.403671      2487.2203 
 551   0.0000      92.350721      2512.9909 
 552   0.0000      92.413962      2514.7118 
 553   0.0000      92.612210      2520.1064 

                    ********************************
                    * MULLIKEN POPULATION ANALYSIS *
                    ********************************

--------------------------------------------
MULLIKEN ATOMIC CHARGES AND SPIN POPULATIONS
--------------------------------------------
   0 C :   -0.078427    0.779762
   1 C :   -0.045570    0.029510
   2 H :    0.092473    0.096485
   3 H :   -0.000012    0.066087
   4 H :    0.031536    0.028156
Sum of atomic charges         :    0.0000000
Sum of atomic spin populations:    1.0000000

-----------------------------------------------------
MULLIKEN REDUCED ORBITAL CHARGES AND SPIN POPULATIONS
-----------------------------------------------------
CHARGE
  0 C s       :     3.320487  s :     3.320487
      pz      :     0.913493  p :     2.677813
      px      :     0.818094
      py      :     0.946226
      dz2     :     0.004471  d :     0.064182
      dxz     :    -0.000122
      dyz     :     0.022802
      dx2y2   :     0.001507
      dxy     :     0.035524
      f0      :     0.002189  f :     0.012788
      f+1     :     0.000597
      f-1     :     0.000947
      f+2     :     0.003448
      f-2     :     0.000070
      f+3     :     0.004799
      f-3     :     0.000739
      g0      :     0.000084  g :     0.002901
      g+1     :    -0.000003
      g-1     :     0.000393
      g+2     :     0.000223
      g-2     :     0.000384
      g+3     :    -0.000003
      g-3     :     0.000339
      g+4     :     0.000135
      g-4     :     0.001348
      h0      :    -0.000033  h :     0.000257
      h+1     :    -0.000010
      h-1     :     0.000026
      h+2     :     0.000002
      h-2     :    -0.000000
      h+3     :     0.000031
      h-3     :     0.000027
      h+4     :     0.000056
      h-4     :     0.000000
      h+5     :     0.000162
      h-5     :    -0.000004
  1 C s       :     3.067678  s :     3.067678
      pz      :     0.923106  p :     2.867577
      px      :     1.037818
      py      :     0.906654
      dz2     :     0.002730  d :     0.097665
      dxz     :     0.000064
      dyz     :     0.014908
      dx2y2   :     0.007913
      dxy     :     0.072050
      f0      :     0.000814  f :     0.011824
      f+1     :     0.000390
      f-1     :     0.000611
      f+2     :     0.002591
      f-2     :    -0.000092
      f+3     :     0.006486
      f-3     :     0.001023
      g0      :     0.000213  g :     0.000776
      g+1     :    -0.000006
      g-1     :    -0.000309
      g+2     :     0.000380
      g-2     :     0.000285
      g+3     :    -0.000052
      g-3     :    -0.000355
      g+4     :     0.000339
      g-4     :     0.000281
      h0      :    -0.000013  h :     0.000050
      h+1     :     0.000011
      h-1     :     0.000031
      h+2     :    -0.000022
      h-2     :    -0.000000
      h+3     :    -0.000013
      h-3     :     0.000020
      h+4     :     0.000040
      h-4     :     0.000002
      h+5     :     0.000005
      h-5     :    -0.000011
  2 H s       :     0.789543  s :     0.789543
      pz      :     0.053705  p :     0.092710
      px      :     0.020647
      py      :     0.018358
      dz2     :    -0.000532  d :     0.021042
      dxz     :     0.002474
      dyz     :     0.017364
      dx2y2   :     0.000603
      dxy     :     0.001133
      f0      :     0.002368  f :     0.004080
      f+1     :     0.000221
      f-1     :    -0.000365
      f+2     :     0.001159
      f-2     :     0.001099
      f+3     :    -0.000638
      f-3     :     0.000235
      g0      :    -0.000004  g :     0.000152
      g+1     :     0.000056
      g-1     :     0.000304
      g+2     :     0.000021
      g-2     :     0.000035
      g+3     :    -0.000028
      g-3     :     0.000009
      g+4     :    -0.000156
      g-4     :    -0.000085
  3 H s       :     0.937639  s :     0.937639
      pz      :     0.021440  p :     0.062406
      px      :     0.026290
      py      :     0.014677
      dz2     :    -0.000243  d :    -0.000164
      dxz     :    -0.003099
      dyz     :     0.004920
      dx2y2   :    -0.004406
      dxy     :     0.002663
      f0      :    -0.000987  f :    -0.000108
      f+1     :    -0.000403
      f-1     :    -0.000141
      f+2     :     0.000270
      f-2     :     0.001365
      f+3     :     0.000570
      f-3     :    -0.000782
      g0      :    -0.000030  g :     0.000239
      g+1     :    -0.000057
      g-1     :     0.000001
      g+2     :     0.000019
      g-2     :    -0.000029
      g+3     :     0.000076
      g-3     :     0.000011
      g+4     :     0.000161
      g-4     :     0.000087
  4 H s       :     0.919787  s :     0.919787
      pz      :     0.027289  p :     0.055380
      px      :     0.021085
      py      :     0.007006
      dz2     :     0.000614  d :    -0.004868
      dxz     :    -0.000242
      dyz     :    -0.007862
      dx2y2   :    -0.001294
      dxy     :     0.003917
      f0      :    -0.003045  f :    -0.001448
      f+1     :    -0.000366
      f-1     :     0.000733
      f+2     :    -0.000841
      f-2     :    -0.000331
      f+3     :     0.001501
      f-3     :     0.000902
      g0      :     0.000013  g :    -0.000387
      g+1     :    -0.000083
      g-1     :    -0.000369
      g+2     :     0.000016
      g-2     :    -0.000004
      g+3     :    -0.000322
      g-3     :     0.000050
      g+4     :     0.000199
      g-4     :     0.000114

SPIN
  0 C s       :     0.019475  s :     0.019475
      pz      :     0.089374  p :     0.766899
      px      :     0.549045
      py      :     0.128480
      dz2     :     0.000720  d :    -0.010979
      dxz     :    -0.000250
      dyz     :    -0.001483
      dx2y2   :    -0.003804
      dxy     :    -0.006162
      f0      :     0.000460  f :     0.002374
      f+1     :     0.000390
      f-1     :     0.000111
      f+2     :    -0.000464
      f-2     :    -0.000057
      f+3     :     0.002242
      f-3     :    -0.000308
      g0      :     0.000024  g :     0.001861
      g+1     :    -0.000001
      g-1     :     0.000159
      g+2     :     0.000029
      g-2     :     0.000311
      g+3     :     0.000002
      g-3     :    -0.000004
      g+4     :     0.000034
      g-4     :     0.001307
      h0      :     0.000024  h :     0.000132
      h+1     :     0.000006
      h-1     :     0.000002
      h+2     :     0.000017
      h-2     :     0.000000
      h+3     :     0.000022
      h-3     :     0.000002
      h+4     :    -0.000010
      h-4     :    -0.000000
      h+5     :     0.000062
      h-5     :     0.000006
  1 C s       :     0.016153  s :     0.016153
      pz      :    -0.084629  p :    -0.066529
      px      :     0.026867
      py      :    -0.008767
      dz2     :     0.001060  d :     0.073751
      dxz     :     0.000077
      dyz     :    -0.000008
      dx2y2   :     0.003902
      dxy     :     0.068720
      f0      :     0.000177  f :     0.005872
      f+1     :    -0.000140
      f-1     :    -0.000380
      f+2     :     0.000317
      f-2     :     0.000017
      f+3     :     0.004627
      f-3     :     0.001255
      g0      :     0.000086  g :     0.000295
      g+1     :     0.000000
      g-1     :    -0.000111
      g+2     :     0.000147
      g-2     :     0.000148
      g+3     :     0.000020
      g-3     :    -0.000351
      g+4     :     0.000295
      g-4     :     0.000060
      h0      :     0.000005  h :    -0.000032
      h+1     :     0.000009
      h-1     :    -0.000006
      h+2     :    -0.000011
      h-2     :     0.000001
      h+3     :     0.000008
      h-3     :    -0.000043
      h+4     :    -0.000039
      h-4     :    -0.000003
      h+5     :     0.000065
      h-5     :    -0.000018
  2 H s       :     0.072394  s :     0.072394
      pz      :     0.003788  p :     0.027104
      px      :     0.011779
      py      :     0.011537
      dz2     :     0.001377  d :    -0.001085
      dxz     :    -0.000671
      dyz     :    -0.001100
      dx2y2   :    -0.002078
      dxy     :     0.001387
      f0      :     0.000036  f :    -0.001674
      f+1     :     0.000136
      f-1     :     0.000113
      f+2     :    -0.000617
      f-2     :    -0.000606
      f+3     :     0.000180
      f-3     :    -0.000918
      g0      :     0.000035  g :    -0.000254
      g+1     :     0.000025
      g-1     :    -0.000013
      g+2     :    -0.000073
      g-2     :     0.000065
      g+3     :    -0.000161
      g-3     :    -0.000011
      g+4     :    -0.000135
      g-4     :     0.000014
  3 H s       :     0.065517  s :     0.065517
      pz      :    -0.004186  p :    -0.004537
      px      :    -0.000589
      py      :     0.000239
      dz2     :    -0.001789  d :     0.003653
      dxz     :     0.000668
      dyz     :     0.001676
      dx2y2   :     0.003062
      dxy     :     0.000036
      f0      :     0.000272  f :     0.001061
      f+1     :    -0.000345
      f-1     :     0.000306
      f+2     :    -0.000049
      f-2     :     0.000961
      f+3     :     0.000965
      f-3     :    -0.001048
      g0      :    -0.000072  g :     0.000393
      g+1     :     0.000090
      g-1     :     0.000027
      g+2     :     0.000077
      g-2     :     0.000022
      g+3     :     0.000129
      g-3     :     0.000002
      g+4     :    -0.000042
      g-4     :     0.000158
  4 H s       :     0.031000  s :     0.031000
      pz      :    -0.000488  p :    -0.005057
      px      :    -0.001453
      py      :    -0.003116
      dz2     :     0.000221  d :     0.001641
      dxz     :    -0.001427
      dyz     :    -0.000413
      dx2y2   :     0.000830
      dxy     :     0.002430
      f0      :    -0.001263  f :     0.000602
      f+1     :    -0.000054
      f-1     :     0.000603
      f+2     :    -0.000196
      f-2     :     0.000448
      f+3     :    -0.000040
      f-3     :     0.001103
      g0      :    -0.000015  g :    -0.000031
      g+1     :    -0.000081
      g-1     :    -0.000124
      g+2     :    -0.000018
      g-2     :     0.000031
      g+3     :     0.000046
      g-3     :     0.000006
      g+4     :     0.000078
      g-4     :     0.000047


                     *******************************
                     * LOEWDIN POPULATION ANALYSIS *
                     *******************************

-------------------------------------------
LOEWDIN ATOMIC CHARGES AND SPIN POPULATIONS
-------------------------------------------
   0 C :    0.718330    0.570226
   1 C :    0.658509    0.152822
   2 H :   -0.463674    0.146559
   3 H :   -0.461050    0.067934
   4 H :   -0.452115    0.062459

----------------------------------------------------
LOEWDIN REDUCED ORBITAL CHARGES AND SPIN POPULATIONS
----------------------------------------------------
CHARGE
  0 C s       :     2.595892  s :     2.595892
      pz      :     0.620253  p :     2.205110
      px      :     0.638912
      py      :     0.945945
      dz2     :     0.036678  d :     0.330097
      dxz     :     0.000498
      dyz     :     0.053021
      dx2y2   :     0.082002
      dxy     :     0.157898
      f0      :     0.006901  f :     0.101606
      f+1     :     0.004178
      f-1     :     0.015044
      f+2     :     0.013416
      f-2     :     0.000170
      f+3     :     0.048049
      f-3     :     0.013849
      g0      :     0.002778  g :     0.036741
      g+1     :     0.000005
      g-1     :     0.003095
      g+2     :     0.003839
      g-2     :     0.004491
      g+3     :     0.000005
      g-3     :     0.002285
      g+4     :     0.003005
      g-4     :     0.017239
      h0      :     0.000409  h :     0.012222
      h+1     :     0.000413
      h-1     :     0.001888
      h+2     :     0.000728
      h-2     :     0.000049
      h+3     :     0.003011
      h-3     :     0.000855
      h+4     :     0.000222
      h-4     :     0.000012
      h+5     :     0.004277
      h-5     :     0.000359
  1 C s       :     2.516553  s :     2.516553
      pz      :     0.606643  p :     2.297830
      px      :     0.795662
      py      :     0.895525
      dz2     :     0.036186  d :     0.383618
      dxz     :     0.000031
      dyz     :     0.052929
      dx2y2   :     0.116768
      dxy     :     0.177703
      f0      :     0.006551  f :     0.101464
      f+1     :     0.006087
      f-1     :     0.013970
      f+2     :     0.015561
      f-2     :     0.000023
      f+3     :     0.035991
      f-3     :     0.023281
      g0      :     0.002407  g :     0.030339
      g+1     :     0.000002
      g-1     :     0.003171
      g+2     :     0.004453
      g-2     :     0.002939
      g+3     :     0.000005
      g-3     :     0.002194
      g+4     :     0.004017
      g-4     :     0.011151
      h0      :     0.000780  h :     0.011688
      h+1     :     0.000239
      h-1     :     0.002309
      h+2     :     0.000681
      h-2     :     0.000000
      h+3     :     0.001307
      h-3     :     0.001767
      h+4     :     0.000237
      h-4     :     0.000002
      h+5     :     0.003526
      h-5     :     0.000840
  2 H s       :     0.698274  s :     0.698274
      pz      :     0.075960  p :     0.323998
      px      :     0.126944
      py      :     0.121093
      dz2     :     0.023680  d :     0.242283
      dxz     :     0.025048
      dyz     :     0.049939
      dx2y2   :     0.084232
      dxy     :     0.059384
      f0      :     0.013718  f :     0.123725
      f+1     :     0.005454
      f-1     :     0.016298
      f+2     :     0.005323
      f-2     :     0.014944
      f+3     :     0.032020
      f-3     :     0.035968
      g0      :     0.004783  g :     0.075394
      g+1     :     0.001858
      g-1     :     0.009166
      g+2     :     0.007799
      g-2     :     0.005959
      g+3     :     0.005790
      g-3     :     0.000507
      g+4     :     0.024606
      g-4     :     0.014925
  3 H s       :     0.657870  s :     0.657870
      pz      :     0.082643  p :     0.326890
      px      :     0.136718
      py      :     0.107529
      dz2     :     0.028494  d :     0.267838
      dxz     :     0.042883
      dyz     :     0.033142
      dx2y2   :     0.097864
      dxy     :     0.065455
      f0      :     0.013759  f :     0.135774
      f+1     :     0.010177
      f-1     :     0.014605
      f+2     :     0.001258
      f-2     :     0.015800
      f+3     :     0.044815
      f-3     :     0.035360
      g0      :     0.005286  g :     0.072679
      g+1     :     0.003149
      g-1     :     0.007268
      g+2     :     0.009297
      g-2     :     0.004484
      g+3     :     0.003735
      g-3     :     0.000116
      g+4     :     0.028890
      g-4     :     0.010455
  4 H s       :     0.671936  s :     0.671936
      pz      :     0.081177  p :     0.321452
      px      :     0.136418
      py      :     0.103856
      dz2     :     0.027266  d :     0.262954
      dxz     :     0.044338
      dyz     :     0.031858
      dx2y2   :     0.093316
      dxy     :     0.066176
      f0      :     0.013685  f :     0.128292
      f+1     :     0.010363
      f-1     :     0.011159
      f+2     :     0.001085
      f-2     :     0.017090
      f+3     :     0.046411
      f-3     :     0.028499
      g0      :     0.004411  g :     0.067480
      g+1     :     0.003331
      g-1     :     0.007272
      g+2     :     0.006556
      g-2     :     0.005988
      g+3     :     0.004101
      g-3     :     0.000177
      g+4     :     0.021052
      g-4     :     0.014592

SPIN
  0 C s       :     0.044274  s :     0.044274
      pz      :     0.044707  p :     0.502831
      px      :     0.387905
      py      :     0.070219
      dz2     :     0.001635  d :     0.020660
      dxz     :     0.000278
      dyz     :    -0.007695
      dx2y2   :     0.001374
      dxy     :     0.025068
      f0      :    -0.000447  f :    -0.000359
      f+1     :     0.000284
      f-1     :     0.000114
      f+2     :    -0.002307
      f-2     :     0.000093
      f+3     :     0.001962
      f-3     :    -0.000059
      g0      :     0.000047  g :     0.001980
      g+1     :    -0.000001
      g-1     :    -0.000283
      g+2     :     0.000047
      g-2     :     0.000746
      g+3     :    -0.000000
      g-3     :    -0.000203
      g+4     :     0.000005
      g-4     :     0.001621
      h0      :    -0.000024  h :     0.000840
      h+1     :     0.000053
      h-1     :     0.000052
      h+2     :    -0.000063
      h-2     :     0.000002
      h+3     :     0.000386
      h-3     :     0.000005
      h+4     :    -0.000021
      h-4     :    -0.000003
      h+5     :     0.000441
      h-5     :     0.000011
  1 C s       :     0.002147  s :     0.002147
      pz      :    -0.037066  p :    -0.033850
      px      :    -0.001458
      py      :     0.004674
      dz2     :     0.003212  d :     0.144414
      dxz     :    -0.000010
      dyz     :     0.006204
      dx2y2   :     0.008199
      dxy     :     0.126808
      f0      :     0.001145  f :     0.030537
      f+1     :     0.000687
      f-1     :     0.000834
      f+2     :     0.001810
      f-2     :    -0.000007
      f+3     :     0.024270
      f-3     :     0.001798
      g0      :     0.000052  g :     0.007643
      g+1     :    -0.000001
      g-1     :     0.000420
      g+2     :     0.000133
      g-2     :     0.001653
      g+3     :    -0.000004
      g-3     :     0.000254
      g+4     :     0.000361
      g-4     :     0.004774
      h0      :     0.000094  h :     0.001931
      h+1     :     0.000016
      h-1     :     0.000050
      h+2     :     0.000118
      h-2     :     0.000000
      h+3     :     0.000414
      h-3     :     0.000080
      h+4     :     0.000011
      h-4     :    -0.000002
      h+5     :     0.000883
      h-5     :     0.000265
  2 H s       :     0.009089  s :     0.009089
      pz      :     0.004919  p :     0.073264
      px      :     0.058562
      py      :     0.009783
      dz2     :     0.002480  d :     0.048300
      dxz     :     0.002516
      dyz     :     0.001700
      dx2y2   :     0.037070
      dxy     :     0.004535
      f0      :     0.000249  f :     0.011905
      f+1     :     0.000534
      f-1     :     0.000316
      f+2     :    -0.000783
      f-2     :     0.000529
      f+3     :     0.006202
      f-3     :     0.004857
      g0      :     0.000085  g :     0.004001
      g+1     :     0.000063
      g-1     :    -0.000498
      g+2     :     0.000097
      g-2     :     0.000151
      g+3     :    -0.000493
      g-3     :    -0.000170
      g+4     :     0.000701
      g-4     :     0.004065
  3 H s       :     0.034674  s :     0.034674
      pz      :    -0.005390  p :    -0.002335
      px      :    -0.000160
      py      :     0.003216
      dz2     :     0.001323  d :     0.003660
      dxz     :    -0.003185
      dyz     :    -0.000534
      dx2y2   :     0.000170
      dxy     :     0.005885
      f0      :     0.000137  f :     0.016352
      f+1     :     0.000387
      f-1     :     0.000340
      f+2     :     0.000138
      f-2     :     0.000006
      f+3     :     0.010264
      f-3     :     0.005079
      g0      :     0.000205  g :     0.015583
      g+1     :     0.000117
      g-1     :     0.000677
      g+2     :     0.000116
      g-2     :     0.001904
      g+3     :     0.000505
      g-3     :    -0.000035
      g+4     :     0.010630
      g-4     :     0.001464
  4 H s       :     0.021452  s :     0.021452
      pz      :    -0.005256  p :    -0.001471
      px      :    -0.000436
      py      :     0.004221
      dz2     :     0.002091  d :     0.003555
      dxz     :    -0.003248
      dyz     :    -0.000298
      dx2y2   :     0.003097
      dxy     :     0.001913
      f0      :     0.000224  f :     0.019806
      f+1     :     0.000132
      f-1     :     0.001038
      f+2     :     0.000153
      f-2     :    -0.000194
      f+3     :     0.001859
      f-3     :     0.016594
      g0      :     0.000375  g :     0.019117
      g+1     :     0.000055
      g-1     :     0.000756
      g+2     :     0.000856
      g-2     :     0.000685
      g+3     :     0.000422
      g-3     :    -0.000084
      g+4     :     0.014739
      g-4     :     0.001312


                      *****************************
                      * MAYER POPULATION ANALYSIS *
                      *****************************

  NA   - Mulliken gross atomic population
  ZA   - Total nuclear charge
  QA   - Mulliken gross atomic charge
  VA   - Mayer's total valence
  BVA  - Mayer's bonded valence
  FA   - Mayer's free valence

  ATOM       NA         ZA         QA         VA         BVA        FA
  0 C      6.0784     6.0000    -0.0784     3.8299     3.1742     0.6557
  1 C      6.0456     6.0000    -0.0456     4.1110     4.0964     0.0146
  2 H      0.9075     1.0000     0.0925     1.0775     1.0786    -0.0011
  3 H      1.0000     1.0000    -0.0000     1.1560     1.1479     0.0081
  4 H      0.9685     1.0000     0.0315     1.0771     1.0771    -0.0001

  Mayer bond orders larger than 0.1
B(  0-C ,  1-C ) :   2.0326 B(  0-C ,  2-H ) :   0.9946 B(  0-C ,  3-H ) :   0.1175 
B(  1-C ,  3-H ) :   0.9907 B(  1-C ,  4-H ) :   0.9833 

-------
TIMINGS
-------

Total SCF time: 0 days 0 hours 49 min 48 sec 

Total time                  ....    2988.081 sec
Sum of individual times     ....    2986.571 sec  ( 99.9%)

Fock matrix formation       ....    2978.155 sec  ( 99.7%)
  XC integration            ....      45.413 sec  (  1.5% of F)
    Basis function eval.    ....       2.224 sec  (  4.9% of XC)
    Density eval.           ....      12.452 sec  ( 27.4% of XC)
    XC-Functional eval.     ....       0.192 sec  (  0.4% of XC)
    XC-Potential eval.      ....      29.750 sec  ( 65.5% of XC)
Diagonalization             ....       4.085 sec  (  0.1%)
Density matrix formation    ....       0.058 sec  (  0.0%)
Population analysis         ....       0.275 sec  (  0.0%)
Initial guess               ....       1.567 sec  (  0.1%)
Orbital Transformation      ....       0.000 sec  (  0.0%)
Orbital Orthonormalization  ....       0.000 sec  (  0.0%)
DIIS solution               ....       1.966 sec  (  0.1%)
Grid generation             ....       0.466 sec  (  0.0%)

-------------------------   --------------------
FINAL SINGLE POINT ENERGY       -77.827430516256
-------------------------   --------------------


                            ***************************************
                            *     ORCA property calculations      *
                            ***************************************

                                    ---------------------
                                    Active property flags
                                    ---------------------
   (+) Dipole Moment
   (+) Polarizability


------------------------------------------------------------------------------
                       ORCA ELECTRIC PROPERTIES CALCULATION
------------------------------------------------------------------------------

Dipole Moment Calculation                       ... on
Quadrupole Moment Calculation                   ... off
Polarizability Calculation                      ... Analytic (CP-SCF)
GBWName                                         ... c2h3_pbe.gbw
Electron density file                           ... c2h3_pbe.scfp.tmp
The origin for moment calculation is the CENTER OF MASS  = ( 0.040636,  0.055371  0.000000)

-------------
DIPOLE MOMENT
-------------
                                X             Y             Z
Electronic contribution:      0.36732       0.68504      -0.00000
Nuclear contribution   :     -0.61029      -0.83170       0.00000
                        -----------------------------------------
Total Dipole Moment    :     -0.24298      -0.14666      -0.00000
                        -----------------------------------------
Magnitude (a.u.)       :      0.28381
Magnitude (Debye)      :      0.72138



--------------------
Rotational spectrum 
--------------------
 
Rotational constants in cm-1:     7.821103     1.080428     0.949290 
Rotational constants in MHz : 234470.771346 32390.407658 28459.005900 

 Dipole components along the rotational axes: 
x,y,z [a.u.] :     0.126239     0.254185    -0.000000 
x,y,z [Debye]:     0.320874     0.646088    -0.000000 

 
Transforming and storing MO dipole integrals   ... done

                ... starting polarizability calculation

Opening the Dipole integral file               ... (c2h3_pbe.dmo.tmp) done
Reading Dipole-MO integrals                    ... done
Solving CP-SCF equations                       ... 

           ************************************************************
           *        Program running with 4 parallel MPI-processes     *
           *              working on a common directory               *
           ************************************************************

------------------------------------------------------------------------------
                           ORCA CP-SCF CALCULATION
------------------------------------------------------------------------------

Input orbitals are from        ... c2h3_pbe.gbw
Input Perturbation             ... c2h3_pbe.cpv.tmp
Wavefunction output            ... c2h3_pbe.cpu.tmp
Perturbation mode              ... Real perturbation (singlet)
Solver                         ... POPLE
Max. number of iterations      ... 200
Convergence tolerance          ... 1.000e-06
Integral handling              ... Direct
Number of perturbations        ... 3
Number of operators            ... 2
Orbital ranges used for CP-SCF:
 Operator 0:  Orbitals   0...  7  to   8...553
 Operator 1:  Orbitals   0...  6  to   7...553
DFT calculation                         ... on
Exchange functional (SCF)               ... PBE
Exchange functional (CP-SCF)            ... PBE
   PBE kappa parameter  XKappa (SCF)    ...  0.804000
   PBE kappa parameter  XKappa (CP-SCF) ...  0.804000
   PBE mue parameter   XMuePBE (SCF)    ...  0.219520
   PBE mue parameter   XMuePBE (CP-SCF) ...  0.219520
Correlation functional (SCF)            ... PBE
Correlation functional (CP-SCF)         ... PBE
   PBE beta parameter CBetaPBE (SCF)    ...  0.066725
   PBE beta parameter CBetaPBE (CP-SCF) ...  0.066725
 LDA part of GGA corr.  LDAOpt (SCF)    ... PW91-LDA
 LDA part of GGA corr.  LDAOpt (CP-SCF) ... PW91-LDA
Variables per vector in CP-SCF ... 8197
Number of vectors sought       ... 3
Recalculating density on grid  ... done
Calculating the xc-kernel      ... done
     CP-SCF ITERATION   0: 
     CP-SCF ITERATION   1:      0.447271384356
     CP-SCF ITERATION   2:      0.027427751217
     CP-SCF ITERATION   3:      0.003847873549
     CP-SCF ITERATION   4:      0.000401146765
     CP-SCF ITERATION   5:      0.000075720659
     CP-SCF ITERATION   6:      0.000004483070
     CP-SCF ITERATION   7:      0.000000270642
done
Reading CP-SCF coefficients                    ... done
Doing the polarizability tensor   ... done
Cleaning up                                    ... done

-------------------------
THE POLARIZABILITY TENSOR
-------------------------

The raw cartesian tensor (atomic units):
   24.95728     -0.32498      0.00000  
   -0.32498     36.20344     -0.00000  
    0.00000     -0.00000     22.55981  
diagonalized tensor: 
   22.55981     24.94789     36.21283  

   -0.00000     -0.99958      0.02886  
    0.00000     -0.02886     -0.99958  
    1.00000     -0.00000      0.00000  

Isotropic polarizability :  27.90684


Timings for individual modules:

Sum of individual times         ...     5429.797 sec (=  90.497 min)
GTO integral calculation        ...        1.990 sec (=   0.033 min)   0.0 %
SCF iterations                  ...     2988.458 sec (=  49.808 min)  55.0 %
Solution of CP-SCF eqns.        ...     2439.350 sec (=  40.656 min)  44.9 %
                             ****ORCA TERMINATED NORMALLY****
TOTAL RUN TIME: 0 days 1 hours 30 minutes 30 seconds 764 msec
