
                                 *****************
                                 * O   R   C   A *
                                 *****************

           --- An Ab Initio, DFT and Semiempirical electronic structure package ---

                  #######################################################
                  #                        -***-                        #
                  #          Department of theory and spectroscopy      #
                  #               Directorship: Frank Neese             #
                  #        Max Planck Institute fuer Kohlenforschung    #
                  #                Kaiser Wilhelm Platz 1               #
                  #                 D-45470 Muelheim/Ruhr               #
                  #                      Germany                        #
                  #                                                     #
                  #                  All rights reserved                #
                  #                        -***-                        #
                  #######################################################


                         Program Version 4.1.2  - RELEASE  -


 With contributions from (in alphabetic order):
   Daniel Aravena         : Magnetic Properties
   Michael Atanasov       : Ab Initio Ligand Field Theory
   Alexander A. Auer      : GIAO ZORA
   Ute Becker             : Parallelization
   Giovanni Bistoni       : ED, Open-shell LED
   Martin Brehm           : Molecular dynamics
   Dmytro Bykov           : SCF Hessian
   Vijay G. Chilkuri      : MRCI spin determinant printing
   Dipayan Datta          : RHF DLPNO-CCSD density
   Achintya Kumar Dutta   : EOM-CC, STEOM-CC
   Dmitry Ganyushin       : Spin-Orbit,Spin-Spin,Magnetic field MRCI
   Miquel Garcia          : C-PCM Hessian
   Yang Guo               : DLPNO-NEVPT2, CIM, IAO-localization
   Andreas Hansen         : Spin unrestricted coupled pair/coupled cluster methods
   Benjamin Helmich-Paris : CASSCF linear response (MC-RPA)
   Lee Huntington         : MR-EOM, pCC
   Robert Izsak           : Overlap fitted RIJCOSX, COSX-SCS-MP3, EOM
   Christian Kollmar      : KDIIS, OOCD, Brueckner-CCSD(T), CCSD density
   Simone Kossmann        : Meta GGA functionals, TD-DFT gradient, OOMP2, MP2 Hessian
   Martin Krupicka        : AUTO-CI
   Lucas Lang             : DCDCAS
   Dagmar Lenk            : GEPOL surface, SMD
   Dimitrios Liakos       : Extrapolation schemes; parallel MDCI
   Dimitrios Manganas     : ROCIS; embedding schemes
   Dimitrios Pantazis     : SARC Basis sets
   Taras Petrenko         : DFT Hessian,TD-DFT gradient, ASA, ECA, R-Raman, ABS, FL, XAS/XES, NRVS
   Peter Pinski           : DLPNO-MP2, DLPNO-MP2 Gradient
   Christoph Reimann      : Effective Core Potentials
   Marius Retegan         : Local ZFS, SOC
   Christoph Riplinger    : Optimizer, TS searches, QM/MM, DLPNO-CCSD(T), (RO)-DLPNO pert. Triples
   Tobias Risthaus        : Range-separated hybrids, TD-DFT gradient, RPA, STAB
   Michael Roemelt        : Restricted open shell CIS
   Masaaki Saitow         : Open-shell DLPNO
   Barbara Sandhoefer     : DKH picture change effects
   Avijit Sen             : IP-ROCIS
   Kantharuban Sivalingam : CASSCF convergence, NEVPT2, FIC-MRCI
   Bernardo de Souza      : ESD, SOC TD-DFT
   Georgi Stoychev        : AutoAux, RI-MP2 NMR
   Willem Van den Heuvel  : Paramagnetic NMR
   Boris Wezisla          : Elementary symmetry handling
   Frank Wennmohs         : Technical directorship


 We gratefully acknowledge several colleagues who have allowed us to
 interface, adapt or use parts of their codes:
   Stefan Grimme, W. Hujo, H. Kruse,             : VdW corrections, initial TS optimization,
                  C. Bannwarth                     DFT functionals, gCP, sTDA/sTD-DF
   Ed Valeev                                     : LibInt (2-el integral package), F12 methods
   Garnet Chan, S. Sharma, J. Yang, R. Olivares  : DMRG
   Ulf Ekstrom                                   : XCFun DFT Library
   Mihaly Kallay                                 : mrcc  (arbitrary order and MRCC methods)
   Andreas Klamt, Michael Diedenhofen            : otool_cosmo (COSMO solvation model)
   Jiri Pittner, Ondrej Demel                    : Mk-CCSD
   Frank Weinhold                                : gennbo (NPA and NBO analysis)
   Christopher J. Cramer and Donald G. Truhlar   : smd solvation model
   Lars Goerigk                                  : TD-DFT with DH, B97 family of functionals
   V. Asgeirsson, H. Jonsson                     : NEB implementation
   FAccTs GmbH                                   : IRC, NEB, NEB-TS, Multilevel


 Your calculation uses the libint2 library for the computation of 2-el integrals
 For citations please refer to: http://libint.valeyev.net

 This ORCA versions uses:
   CBLAS   interface :  Fast vector & matrix operations
   LAPACKE interface :  Fast linear algebra routines
   SCALAPACK package :  Parallel linear algebra routines


----- Orbital basis set information -----
Your calculation utilizes the basis: aug-pc-4
   H, C-F              : F. Jensen, J. Chem. Phys. 115, 9113 (2001).
                         F. Jensen, J. Chem. Phys. 116, 7372 (2002).
                         F. Jensen, J. Chem. Phys. 117, 9234 (2002).
   Si-Cl               : F. Jensen, T. Helgaker, J. Chem. Phys. 121, 3463 (2004).
   He-B, Ne-Mg, Al, Ar : F. Jensen, J. Phys. Chem. A 111, 11198 (2007).
   K, Ca, Ga-Kr        : F. Jensen, J. Chem. Phys. 136, 094110 (2012).
   Sc-Zn               : F. Jensen, J. Chem. Phys. 138, 014107 (2013).

================================================================================
                                        WARNINGS
                       Please study these warnings very carefully!
================================================================================


INFO   : the flag for use of LIBINT has been found!

================================================================================
                                       INPUT FILE
================================================================================
NAME = c2h4_pbe.inp
|  1> !uks pbe nori aug-pc-4 grid5 nofinalgrid verytightscf
|  2> 
|  3> %maxcore 1500
|  4> 
|  5> %pal nprocs 4 end
|  6> 
|  7> %scf
|  8> 	maxiter 200
|  9> end
| 10> %elprop
| 11> 	dipole true
| 12> 	 polar 1
| 13> 	 maxiter 200
| 14> end
| 15> 
| 16> * xyz 0 1
| 17> C 0.0000 0.0000 0.6695
| 18> C 0.0000 0.0000 -0.6695
| 19> H 0.0000 0.9289 1.2321
| 20> H 0.0000 -0.9289 1.2321
| 21> H 0.0000 0.9289 -1.2321
| 22> H 0.0000 -0.9289 -1.2321
| 23> *
| 24> 
| 25>                          ****END OF INPUT****
================================================================================

                       ****************************
                       * Single Point Calculation *
                       ****************************

---------------------------------
CARTESIAN COORDINATES (ANGSTROEM)
---------------------------------
  C      0.000000    0.000000    0.669500
  C      0.000000    0.000000   -0.669500
  H      0.000000    0.928900    1.232100
  H      0.000000   -0.928900    1.232100
  H      0.000000    0.928900   -1.232100
  H      0.000000   -0.928900   -1.232100

----------------------------
CARTESIAN COORDINATES (A.U.)
----------------------------
  NO LB      ZA    FRAG     MASS         X           Y           Z
   0 C     6.0000    0    12.011    0.000000    0.000000    1.265172
   1 C     6.0000    0    12.011    0.000000    0.000000   -1.265172
   2 H     1.0000    0     1.008    0.000000    1.755367    2.328332
   3 H     1.0000    0     1.008    0.000000   -1.755367    2.328332
   4 H     1.0000    0     1.008    0.000000    1.755367   -2.328332
   5 H     1.0000    0     1.008    0.000000   -1.755367   -2.328332

--------------------------------
INTERNAL COORDINATES (ANGSTROEM)
--------------------------------
 C      0   0   0     0.000000000000     0.00000000     0.00000000
 C      1   0   0     1.339000000000     0.00000000     0.00000000
 H      1   2   0     1.085989857227   121.20172225     0.00000000
 H      1   2   3     1.085989857227   121.20172225   180.00000000
 H      2   1   3     1.085989857227   121.20172225     0.00000000
 H      2   1   3     1.085989857227   121.20172225   180.00000000

---------------------------
INTERNAL COORDINATES (A.U.)
---------------------------
 C      0   0   0     0.000000000000     0.00000000     0.00000000
 C      1   0   0     2.530343293321     0.00000000     0.00000000
 H      1   2   0     2.052223414375   121.20172225     0.00000000
 H      1   2   3     2.052223414375   121.20172225   180.00000000
 H      2   1   3     2.052223414375   121.20172225     0.00000000
 H      2   1   3     2.052223414375   121.20172225   180.00000000

---------------------
BASIS SET INFORMATION
---------------------
There are 2 groups of distinct atoms

 Group   1 Type C   : 28s12p7d4f3g2h contracted to 9s8p7d4f3g2h pattern {11101111111/51111111/1111111/1111/111/11}
 Group   2 Type H   : 12s7p4d3f2g contracted to 8s7p4d3f2g pattern {51111111/1111111/1111/111/11}

Atom   0C    basis set group =>   1
Atom   1C    basis set group =>   1
Atom   2H    basis set group =>   2
Atom   3H    basis set group =>   2
Atom   4H    basis set group =>   2
Atom   5H    basis set group =>   2


           ************************************************************
           *        Program running with 4 parallel MPI-processes     *
           *              working on a common directory               *
           ************************************************************
------------------------------------------------------------------------------
                           ORCA GTO INTEGRAL CALCULATION
------------------------------------------------------------------------------

                         BASIS SET STATISTICS AND STARTUP INFO

 # of primitive gaussian shells          ...  224
 # of primitive gaussian functions       ...  720
 # of contracted shells                  ...  162
 # of contracted basis functions         ...  642
 Highest angular momentum                ...    5
 Maximum contraction depth               ...   11
 Integral package used                   ... LIBINT
 Integral threshhold            Thresh   ...  1.000e-12
 Primitive cut-off              TCut     ...  1.000e-14


------------------------------ INTEGRAL EVALUATION ----------------------------


 * One electron integrals 
 Pre-screening matrix                    ... done
 Shell pair data                         ... done (   0.004 sec)



           ************************************************************
           *        Program running with 4 parallel MPI-processes     *
           *              working on a common directory               *
           ************************************************************
-------------------------------------------------------------------------------
                                 ORCA SCF
-------------------------------------------------------------------------------

------------
SCF SETTINGS
------------
Hamiltonian:
 Density Functional     Method          .... DFT(GTOs)
 Exchange Functional    Exchange        .... PBE
   PBE kappa parameter   XKappa         ....  0.804000
   PBE mue parameter    XMuePBE         ....  0.219520
 Correlation Functional Correlation     .... PBE
   PBE beta parameter  CBetaPBE         ....  0.066725
 LDA part of GGA corr.  LDAOpt          .... PW91-LDA
 Gradients option       PostSCFGGA      .... off
   Density functional embedding theory  .... OFF
   NL short-range parameter             ....  6.400000


General Settings:
 Integral files         IntName         .... c2h4_pbe
 Hartree-Fock type      HFTyp           .... UHF
 Total Charge           Charge          ....    0
 Multiplicity           Mult            ....    1
 Number of Electrons    NEL             ....   16
 Basis Dimension        Dim             ....  642
 Nuclear Repulsion      ENuc            ....     33.2650903165 Eh

Convergence Acceleration:
 DIIS                   CNVDIIS         .... on
   Start iteration      DIISMaxIt       ....    12
   Startup error        DIISStart       ....  0.200000
   # of expansion vecs  DIISMaxEq       ....     5
   Bias factor          DIISBfac        ....   1.050
   Max. coefficient     DIISMaxC        ....  10.000
 Newton-Raphson         CNVNR           .... off
 SOSCF                  CNVSOSCF        .... off
 Level Shifting         CNVShift        .... on
   Level shift para.    LevelShift      ....    0.2500
   Turn off err/grad.   ShiftErr        ....    0.0010
 Zerner damping         CNVZerner       .... off
 Static damping         CNVDamp         .... on
   Fraction old density DampFac         ....    0.7000
   Max. Damping (<1)    DampMax         ....    0.9800
   Min. Damping (>=0)   DampMin         ....    0.0000
   Turn off err/grad.   DampErr         ....    0.1000
 Fernandez-Rico         CNVRico         .... off

SCF Procedure:
 Maximum # iterations   MaxIter         ....   200
 SCF integral mode      SCFMode         .... Direct
   Integral package                     .... LIBINT
 Reset frequency        DirectResetFreq ....    20
 Integral Threshold     Thresh          ....  1.000e-12 Eh
 Primitive CutOff       TCut            ....  1.000e-14 Eh

Convergence Tolerance:
 Convergence Check Mode ConvCheckMode   .... Total+1el-Energy
 Convergence forced     ConvForced      .... 0
 Energy Change          TolE            ....  1.000e-09 Eh
 1-El. energy change                    ....  1.000e-06 Eh
 DIIS Error             TolErr          ....  1.000e-08


Diagonalization of the overlap matrix:
Smallest eigenvalue                        ... 5.175e-09
Time for diagonalization                   ...    0.146 sec
Threshold for overlap eigenvalues          ... 1.000e-08
Number of eigenvalues below threshold      ... 1
Time for construction of square roots      ...    0.081 sec
Total time needed                          ...    0.229 sec

-------------------
DFT GRID GENERATION
-------------------

General Integration Accuracy     IntAcc      ...  5.010
Radial Grid Type                 RadialGrid  ... Gauss-Chebyshev
Angular Grid (max. acc.)         AngularGrid ... Lebedev-434
Angular grid pruning method      GridPruning ... 3 (G Style)
Weight generation scheme         WeightScheme... Becke
Basis function cutoff            BFCut       ...    1.0000e-12
Integration weight cutoff        WCut        ...    1.0000e-14
Grids for H and He will be reduced by one unit

# of grid points (after initial pruning)     ...  48164 (   0.0 sec)
# of grid points (after weights+screening)   ...  46526 (   0.0 sec)
nearest neighbour list constructed           ...    0.0 sec
Grid point re-assignment to atoms done       ...    0.0 sec
Grid point division into batches done        ...    0.3 sec
Reduced shell lists constructed in    0.7 sec

Total number of grid points                  ...    46526
Total number of batches                      ...      730
Average number of points per batch           ...       63
Average number of grid points per atom       ...     7754
Average number of shells per batch           ...   139.76 (86.27%)
Average number of basis functions per batch  ...   568.78 (88.59%)
Average number of large shells per batch     ...   128.34 (91.83%)
Average number of large basis fcns per batch ...   526.27 (92.53%)
Maximum spatial batch extension              ...  19.91, 14.62, 14.91 au
Average spatial batch extension              ...   0.41,  0.29,  0.28 au

Time for grid setup =    0.725 sec

------------------------------
INITIAL GUESS: MODEL POTENTIAL
------------------------------
Loading Hartree-Fock densities                     ... done
Calculating cut-offs                               ... done
Setting up the integral package                    ... done
Initializing the effective Hamiltonian             ... done
Starting the Coulomb interaction                   ... done (   0.1 sec)
Reading the grid                                   ... done
Mapping shells                                     ... done
Starting the XC term evaluation                    ... done (   2.2 sec)
  promolecular density results
     # of electrons  =     15.998037199
     EX              =    -11.349929267
     EC              =     -0.488110940
     EX+EC           =    -11.838040207
Transforming the Hamiltonian                       ... done (   0.1 sec)
Diagonalizing the Hamiltonian                      ... done (   0.1 sec)
Back transforming the eigenvectors                 ... done (   0.0 sec)
Now organizing SCF variables                       ... done
                      ------------------
                      INITIAL GUESS DONE (   3.3 sec)
                      ------------------
--------------
SCF ITERATIONS
--------------
ITER       Energy         Delta-E        Max-DP      RMS-DP      [F,P]     Damp
               ***  Starting incremental Fock matrix formation  ***
  0    -78.4310292171   0.000000000000 0.02154391  0.00016722  0.1679666 0.7000
  1    -78.4692318292  -0.038202612089 0.01265119  0.00010240  0.0795862 0.7000
                               ***Turning on DIIS***
  2    -78.4830640104  -0.013832181201 0.01031996  0.00013929  0.0245494 0.0000
  3    -78.5008171035  -0.017753093099 0.00868485  0.00006514  0.0507587 0.0000
  4    -78.5081623066  -0.007345203036 0.00217193  0.00002289  0.0119675 0.0000
  5    -78.5086209036  -0.000458597040 0.00038835  0.00000494  0.0029785 0.0000
  6    -78.5086580701  -0.000037166485 0.00025256  0.00000296  0.0011025 0.0000
  7    -78.5086621499  -0.000004079804 0.00016191  0.00000224  0.0004645 0.0000
  8    -78.5086629412  -0.000000791290 0.00005782  0.00000042  0.0000267 0.0000
  9    -78.5086629423  -0.000000001162 0.00011597  0.00000074  0.0000122 0.0000
 10    -78.5086629426  -0.000000000257 0.00006831  0.00000065  0.0000003 0.0000
                 **** Energy Check signals convergence ****

               *****************************************************
               *                     SUCCESS                       *
               *           SCF CONVERGED AFTER  11 CYCLES          *
               *****************************************************


----------------
TOTAL SCF ENERGY
----------------

Total Energy       :          -78.50866294 Eh           -2136.32933 eV

Components:
Nuclear Repulsion  :           33.26509032 Eh             905.18913 eV
Electronic Energy  :         -111.77375326 Eh           -3041.51845 eV
One Electron Energy:         -170.14753452 Eh           -4629.94980 eV
Two Electron Energy:           58.37378126 Eh            1588.43134 eV

Virial components:
Potential Energy   :         -156.63162503 Eh           -4262.16320 eV
Kinetic Energy     :           78.12296209 Eh            2125.83387 eV
Virial Ratio       :            2.00493710


DFT components:
N(Alpha)           :        7.999999842277 electrons
N(Beta)            :        7.999999842277 electrons
N(Total)           :       15.999999684555 electrons
E(X)               :      -11.676780615575 Eh       
E(C)               :       -0.493606613300 Eh       
E(XC)              :      -12.170387228874 Eh       
DFET-embed. en.    :        0.000000000000 Eh       

---------------
SCF CONVERGENCE
---------------

  Last Energy change         ...   -1.0075e-11  Tolerance :   1.0000e-09
  Last MAX-Density change    ...    6.6582e-04  Tolerance :   1.0000e-08
  Last RMS-Density change    ...    5.8352e-06  Tolerance :   1.0000e-09
  Last DIIS Error            ...    3.3169e-08  Tolerance :   1.0000e-08

             **** THE GBW FILE WAS UPDATED (c2h4_pbe.gbw) ****
             **** DENSITY FILE WAS UPDATED (c2h4_pbe.scfp.tmp) ****
             **** ENERGY FILE WAS UPDATED (c2h4_pbe.en.tmp) ****
----------------------
UHF SPIN CONTAMINATION
----------------------

Warning: in a DFT calculation there is little theoretical justification to 
         calculate <S**2> as in Hartree-Fock theory. We will do it anyways
         but you should keep in mind that the values have only limited relevance

Expectation value of <S**2>     :     0.000000
Ideal value S*(S+1) for S=0.0   :     0.000000
Deviation                       :     0.000000

----------------
ORBITAL ENERGIES
----------------
                 SPIN UP ORBITALS
  NO   OCC          E(Eh)            E(eV) 
   0   1.0000      -9.887239      -269.0455 
   1   1.0000      -9.886582      -269.0276 
   2   1.0000      -0.689754       -18.7692 
   3   1.0000      -0.523167       -14.2361 
   4   1.0000      -0.422720       -11.5028 
   5   1.0000      -0.372322       -10.1314 
   6   1.0000      -0.315091        -8.5741 
   7   1.0000      -0.247729        -6.7410 
   8   0.0000      -0.041226        -1.1218 
   9   0.0000      -0.011827        -0.3218 
  10   0.0000       0.005144         0.1400 
  11   0.0000       0.008008         0.2179 
  12   0.0000       0.017195         0.4679 
  13   0.0000       0.031945         0.8693 
  14   0.0000       0.032122         0.8741 
  15   0.0000       0.039112         1.0643 
  16   0.0000       0.042435         1.1547 
  17   0.0000       0.044023         1.1979 
  18   0.0000       0.052582         1.4308 
  19   0.0000       0.054511         1.4833 
  20   0.0000       0.055436         1.5085 
  21   0.0000       0.060818         1.6549 
  22   0.0000       0.064561         1.7568 
  23   0.0000       0.069516         1.8916 
  24   0.0000       0.076831         2.0907 
  25   0.0000       0.084138         2.2895 
  26   0.0000       0.100301         2.7293 
  27   0.0000       0.102292         2.7835 
  28   0.0000       0.106142         2.8883 
  29   0.0000       0.107503         2.9253 
  30   0.0000       0.111866         3.0440 
  31   0.0000       0.116621         3.1734 
  32   0.0000       0.120178         3.2702 
  33   0.0000       0.127182         3.4608 
  34   0.0000       0.131446         3.5768 
  35   0.0000       0.135382         3.6839 
  36   0.0000       0.137563         3.7433 
  37   0.0000       0.142155         3.8682 
  38   0.0000       0.143747         3.9115 
  39   0.0000       0.153255         4.1703 
  40   0.0000       0.154770         4.2115 
  41   0.0000       0.156292         4.2529 
  42   0.0000       0.165485         4.5031 
  43   0.0000       0.171713         4.6726 
  44   0.0000       0.175227         4.7682 
  45   0.0000       0.189175         5.1477 
  46   0.0000       0.190161         5.1746 
  47   0.0000       0.196997         5.3605 
  48   0.0000       0.201259         5.4765 
  49   0.0000       0.206311         5.6140 
  50   0.0000       0.209286         5.6950 
  51   0.0000       0.210656         5.7322 
  52   0.0000       0.211618         5.7584 
  53   0.0000       0.213275         5.8035 
  54   0.0000       0.213872         5.8198 
  55   0.0000       0.214169         5.8278 
  56   0.0000       0.215943         5.8761 
  57   0.0000       0.232679         6.3315 
  58   0.0000       0.233765         6.3611 
  59   0.0000       0.244223         6.6456 
  60   0.0000       0.245335         6.6759 
  61   0.0000       0.246764         6.7148 
  62   0.0000       0.262142         7.1333 
  63   0.0000       0.272218         7.4074 
  64   0.0000       0.280517         7.6333 
  65   0.0000       0.283473         7.7137 
  66   0.0000       0.283699         7.7198 
  67   0.0000       0.287364         7.8196 
  68   0.0000       0.288651         7.8546 
  69   0.0000       0.288819         7.8592 
  70   0.0000       0.292004         7.9458 
  71   0.0000       0.295961         8.0535 
  72   0.0000       0.305856         8.3228 
  73   0.0000       0.311599         8.4791 
  74   0.0000       0.313353         8.5268 
  75   0.0000       0.315910         8.5964 
  76   0.0000       0.316473         8.6117 
  77   0.0000       0.318350         8.6628 
  78   0.0000       0.323101         8.7920 
  79   0.0000       0.339622         9.2416 
  80   0.0000       0.346724         9.4348 
  81   0.0000       0.347412         9.4536 
  82   0.0000       0.351409         9.5623 
  83   0.0000       0.360268         9.8034 
  84   0.0000       0.363584         9.8936 
  85   0.0000       0.367499        10.0002 
  86   0.0000       0.368420        10.0252 
  87   0.0000       0.374698        10.1961 
  88   0.0000       0.375520        10.2184 
  89   0.0000       0.376244        10.2381 
  90   0.0000       0.379047        10.3144 
  91   0.0000       0.386972        10.5300 
  92   0.0000       0.394623        10.7382 
  93   0.0000       0.397132        10.8065 
  94   0.0000       0.413843        11.2612 
  95   0.0000       0.417779        11.3683 
  96   0.0000       0.418139        11.3781 
  97   0.0000       0.422539        11.4979 
  98   0.0000       0.434275        11.8172 
  99   0.0000       0.434451        11.8220 
 100   0.0000       0.442476        12.0404 
 101   0.0000       0.449338        12.2271 
 102   0.0000       0.451067        12.2742 
 103   0.0000       0.461435        12.5563 
 104   0.0000       0.461696        12.5634 
 105   0.0000       0.466172        12.6852 
 106   0.0000       0.473048        12.8723 
 107   0.0000       0.478178        13.0119 
 108   0.0000       0.480708        13.0807 
 109   0.0000       0.484337        13.1795 
 110   0.0000       0.486049        13.2261 
 111   0.0000       0.489058        13.3079 
 112   0.0000       0.494077        13.4445 
 113   0.0000       0.501805        13.6548 
 114   0.0000       0.506600        13.7853 
 115   0.0000       0.515944        14.0396 
 116   0.0000       0.519342        14.1320 
 117   0.0000       0.520964        14.1761 
 118   0.0000       0.524472        14.2716 
 119   0.0000       0.530297        14.4301 
 120   0.0000       0.534882        14.5549 
 121   0.0000       0.536490        14.5986 
 122   0.0000       0.536837        14.6081 
 123   0.0000       0.538896        14.6641 
 124   0.0000       0.542251        14.7554 
 125   0.0000       0.557598        15.1730 
 126   0.0000       0.559473        15.2240 
 127   0.0000       0.564449        15.3594 
 128   0.0000       0.571575        15.5533 
 129   0.0000       0.572325        15.5738 
 130   0.0000       0.576620        15.6906 
 131   0.0000       0.576747        15.6941 
 132   0.0000       0.580242        15.7892 
 133   0.0000       0.581802        15.8316 
 134   0.0000       0.587266        15.9803 
 135   0.0000       0.595988        16.2176 
 136   0.0000       0.601924        16.3792 
 137   0.0000       0.604294        16.4437 
 138   0.0000       0.606038        16.4911 
 139   0.0000       0.609108        16.5747 
 140   0.0000       0.609614        16.5884 
 141   0.0000       0.627072        17.0635 
 142   0.0000       0.632272        17.2050 
 143   0.0000       0.641310        17.4509 
 144   0.0000       0.645899        17.5758 
 145   0.0000       0.654211        17.8020 
 146   0.0000       0.654874        17.8200 
 147   0.0000       0.656602        17.8671 
 148   0.0000       0.658193        17.9103 
 149   0.0000       0.659372        17.9424 
 150   0.0000       0.665930        18.1209 
 151   0.0000       0.677856        18.4454 
 152   0.0000       0.684890        18.6368 
 153   0.0000       0.687172        18.6989 
 154   0.0000       0.692085        18.8326 
 155   0.0000       0.705488        19.1973 
 156   0.0000       0.713625        19.4187 
 157   0.0000       0.713860        19.4251 
 158   0.0000       0.751590        20.4518 
 159   0.0000       0.755884        20.5687 
 160   0.0000       0.767075        20.8732 
 161   0.0000       0.771256        20.9869 
 162   0.0000       0.783786        21.3279 
 163   0.0000       0.795771        21.6540 
 164   0.0000       0.803104        21.8536 
 165   0.0000       0.803509        21.8646 
 166   0.0000       0.805477        21.9182 
 167   0.0000       0.809332        22.0231 
 168   0.0000       0.811062        22.0701 
 169   0.0000       0.814780        22.1713 
 170   0.0000       0.828004        22.5311 
 171   0.0000       0.830091        22.5879 
 172   0.0000       0.832249        22.6467 
 173   0.0000       0.835715        22.7410 
 174   0.0000       0.840214        22.8634 
 175   0.0000       0.844849        22.9895 
 176   0.0000       0.847904        23.0726 
 177   0.0000       0.853256        23.2183 
 178   0.0000       0.860989        23.4287 
 179   0.0000       0.868252        23.6263 
 180   0.0000       0.871300        23.7093 
 181   0.0000       0.880106        23.9489 
 182   0.0000       0.880554        23.9611 
 183   0.0000       0.883964        24.0539 
 184   0.0000       0.888521        24.1779 
 185   0.0000       0.888651        24.1814 
 186   0.0000       0.889947        24.2167 
 187   0.0000       0.891568        24.2608 
 188   0.0000       0.896218        24.3873 
 189   0.0000       0.898954        24.4618 
 190   0.0000       0.900486        24.5035 
 191   0.0000       0.918788        25.0015 
 192   0.0000       0.919432        25.0190 
 193   0.0000       0.933467        25.4009 
 194   0.0000       0.935255        25.4496 
 195   0.0000       0.939199        25.5569 
 196   0.0000       0.939634        25.5687 
 197   0.0000       0.941554        25.6210 
 198   0.0000       0.947404        25.7802 
 199   0.0000       0.949800        25.8454 
 200   0.0000       0.955464        25.9995 
 201   0.0000       0.955504        26.0006 
 202   0.0000       0.957124        26.0447 
 203   0.0000       0.962250        26.1841 
 204   0.0000       0.966818        26.3085 
 205   0.0000       0.967779        26.3346 
 206   0.0000       0.970269        26.4024 
 207   0.0000       0.972246        26.4562 
 208   0.0000       0.982831        26.7442 
 209   0.0000       1.002982        27.2925 
 210   0.0000       1.004064        27.3220 
 211   0.0000       1.011918        27.5357 
 212   0.0000       1.021469        27.7956 
 213   0.0000       1.023552        27.8523 
 214   0.0000       1.023627        27.8543 
 215   0.0000       1.026427        27.9305 
 216   0.0000       1.031491        28.0683 
 217   0.0000       1.034746        28.1569 
 218   0.0000       1.042479        28.3673 
 219   0.0000       1.052537        28.6410 
 220   0.0000       1.061958        28.8973 
 221   0.0000       1.062077        28.9006 
 222   0.0000       1.074590        29.2411 
 223   0.0000       1.080894        29.4126 
 224   0.0000       1.089641        29.6506 
 225   0.0000       1.113351        30.2958 
 226   0.0000       1.124168        30.5902 
 227   0.0000       1.130778        30.7700 
 228   0.0000       1.147224        31.2176 
 229   0.0000       1.148122        31.2420 
 230   0.0000       1.163027        31.6476 
 231   0.0000       1.212349        32.9897 
 232   0.0000       1.212491        32.9936 
 233   0.0000       1.225404        33.3449 
 234   0.0000       1.236570        33.6488 
 235   0.0000       1.238608        33.7042 
 236   0.0000       1.241876        33.7932 
 237   0.0000       1.256903        34.2021 
 238   0.0000       1.265159        34.4267 
 239   0.0000       1.325178        36.0599 
 240   0.0000       1.392748        37.8986 
 241   0.0000       1.399374        38.0789 
 242   0.0000       1.440247        39.1911 
 243   0.0000       1.462058        39.7846 
 244   0.0000       1.474560        40.1248 
 245   0.0000       1.494281        40.6615 
 246   0.0000       1.496447        40.7204 
 247   0.0000       1.501674        40.8626 
 248   0.0000       1.525502        41.5110 
 249   0.0000       1.540088        41.9079 
 250   0.0000       1.581245        43.0279 
 251   0.0000       1.585366        43.1400 
 252   0.0000       1.603592        43.6359 
 253   0.0000       1.605100        43.6770 
 254   0.0000       1.606092        43.7040 
 255   0.0000       1.608344        43.7653 
 256   0.0000       1.609030        43.7839 
 257   0.0000       1.621922        44.1347 
 258   0.0000       1.643366        44.7183 
 259   0.0000       1.674995        45.5789 
 260   0.0000       1.693433        46.0806 
 261   0.0000       1.703521        46.3552 
 262   0.0000       1.711577        46.5744 
 263   0.0000       1.714402        46.6513 
 264   0.0000       1.725599        46.9559 
 265   0.0000       1.729408        47.0596 
 266   0.0000       1.778187        48.3869 
 267   0.0000       1.786339        48.6088 
 268   0.0000       1.809421        49.2368 
 269   0.0000       1.870779        50.9065 
 270   0.0000       1.879882        51.1542 
 271   0.0000       1.897157        51.6243 
 272   0.0000       1.963440        53.4279 
 273   0.0000       1.969135        53.5829 
 274   0.0000       1.976557        53.7849 
 275   0.0000       2.007400        54.6241 
 276   0.0000       2.072886        56.4061 
 277   0.0000       2.073521        56.4234 
 278   0.0000       2.074724        56.4561 
 279   0.0000       2.107859        57.3578 
 280   0.0000       2.113915        57.5225 
 281   0.0000       2.126901        57.8759 
 282   0.0000       2.201410        59.9034 
 283   0.0000       2.210905        60.1618 
 284   0.0000       2.256031        61.3897 
 285   0.0000       2.271600        61.8134 
 286   0.0000       2.278406        61.9986 
 287   0.0000       2.291922        62.3664 
 288   0.0000       2.299955        62.5850 
 289   0.0000       2.331536        63.4443 
 290   0.0000       2.385211        64.9049 
 291   0.0000       2.425313        65.9961 
 292   0.0000       2.452774        66.7434 
 293   0.0000       2.457790        66.8799 
 294   0.0000       2.460920        66.9650 
 295   0.0000       2.515593        68.4528 
 296   0.0000       2.567115        69.8547 
 297   0.0000       2.612059        71.0777 
 298   0.0000       2.615155        71.1620 
 299   0.0000       2.620620        71.3107 
 300   0.0000       2.668164        72.6044 
 301   0.0000       2.686345        73.0992 
 302   0.0000       2.736261        74.4575 
 303   0.0000       2.784301        75.7647 
 304   0.0000       2.789359        75.9023 
 305   0.0000       2.937931        79.9452 
 306   0.0000       2.960931        80.5710 
 307   0.0000       3.036943        82.6394 
 308   0.0000       3.038013        82.6685 
 309   0.0000       3.045245        82.8653 
 310   0.0000       3.102044        84.4109 
 311   0.0000       3.102318        84.4184 
 312   0.0000       3.133592        85.2694 
 313   0.0000       3.219821        87.6158 
 314   0.0000       3.234934        88.0270 
 315   0.0000       3.273924        89.0880 
 316   0.0000       3.294291        89.6422 
 317   0.0000       3.354609        91.2836 
 318   0.0000       3.373833        91.8067 
 319   0.0000       3.421601        93.1065 
 320   0.0000       3.469297        94.4044 
 321   0.0000       3.496934        95.1564 
 322   0.0000       3.510025        95.5126 
 323   0.0000       3.528858        96.0251 
 324   0.0000       3.597793        97.9009 
 325   0.0000       3.644374        99.1684 
 326   0.0000       3.658937        99.5647 
 327   0.0000       3.680805       100.1598 
 328   0.0000       3.687459       100.3408 
 329   0.0000       3.689299       100.3909 
 330   0.0000       3.711956       101.0074 
 331   0.0000       3.743247       101.8589 
 332   0.0000       3.754434       102.1633 
 333   0.0000       3.762447       102.3814 
 334   0.0000       3.836242       104.3894 
 335   0.0000       3.877301       105.5067 
 336   0.0000       3.892078       105.9088 
 337   0.0000       3.902290       106.1867 
 338   0.0000       3.937897       107.1556 
 339   0.0000       3.952197       107.5447 
 340   0.0000       3.978399       108.2577 
 341   0.0000       4.000776       108.8666 
 342   0.0000       4.003978       108.9538 
 343   0.0000       4.004874       108.9782 
 344   0.0000       4.026971       109.5794 
 345   0.0000       4.064324       110.5959 
 346   0.0000       4.160975       113.2259 
 347   0.0000       4.161719       113.2461 
 348   0.0000       4.174055       113.5818 
 349   0.0000       4.197846       114.2292 
 350   0.0000       4.283386       116.5569 
 351   0.0000       4.283614       116.5631 
 352   0.0000       4.398382       119.6861 
 353   0.0000       4.400805       119.7520 
 354   0.0000       4.412735       120.0766 
 355   0.0000       4.418684       120.2385 
 356   0.0000       4.448386       121.0467 
 357   0.0000       4.451359       121.1276 
 358   0.0000       4.470655       121.6527 
 359   0.0000       4.547351       123.7397 
 360   0.0000       4.577754       124.5670 
 361   0.0000       4.636890       126.1762 
 362   0.0000       4.655045       126.6702 
 363   0.0000       4.676589       127.2565 
 364   0.0000       4.687258       127.5468 
 365   0.0000       4.735791       128.8674 
 366   0.0000       4.738077       128.9296 
 367   0.0000       4.756715       129.4368 
 368   0.0000       4.757014       129.4449 
 369   0.0000       4.809059       130.8612 
 370   0.0000       4.841199       131.7357 
 371   0.0000       4.842507       131.7713 
 372   0.0000       4.878463       132.7497 
 373   0.0000       4.929038       134.1259 
 374   0.0000       4.943578       134.5216 
 375   0.0000       4.964125       135.0807 
 376   0.0000       4.998590       136.0186 
 377   0.0000       5.016644       136.5098 
 378   0.0000       5.032230       136.9339 
 379   0.0000       5.035063       137.0110 
 380   0.0000       5.071000       137.9889 
 381   0.0000       5.226918       142.2317 
 382   0.0000       5.235649       142.4693 
 383   0.0000       5.236920       142.5038 
 384   0.0000       5.254060       142.9702 
 385   0.0000       5.354638       145.7071 
 386   0.0000       5.427072       147.6781 
 387   0.0000       5.428410       147.7145 
 388   0.0000       5.448135       148.2513 
 389   0.0000       5.625625       153.0810 
 390   0.0000       5.666118       154.1829 
 391   0.0000       5.677747       154.4994 
 392   0.0000       5.697071       155.0252 
 393   0.0000       5.713869       155.4823 
 394   0.0000       5.723166       155.7353 
 395   0.0000       5.725658       155.8031 
 396   0.0000       5.822940       158.4503 
 397   0.0000       5.866302       159.6302 
 398   0.0000       5.931749       161.4111 
 399   0.0000       5.989543       162.9838 
 400   0.0000       6.199156       168.6876 
 401   0.0000       6.213286       169.0721 
 402   0.0000       6.229346       169.5091 
 403   0.0000       6.373519       173.4323 
 404   0.0000       6.383451       173.7025 
 405   0.0000       6.397207       174.0768 
 406   0.0000       6.403292       174.2424 
 407   0.0000       6.428371       174.9249 
 408   0.0000       6.510340       177.1554 
 409   0.0000       6.667176       181.4231 
 410   0.0000       6.686746       181.9556 
 411   0.0000       6.722973       182.9414 
 412   0.0000       6.768904       184.1912 
 413   0.0000       6.792133       184.8233 
 414   0.0000       6.920591       188.3189 
 415   0.0000       6.942968       188.9278 
 416   0.0000       6.958516       189.3508 
 417   0.0000       7.028711       191.2609 
 418   0.0000       7.112007       193.5276 
 419   0.0000       7.199961       195.9209 
 420   0.0000       7.328110       199.4080 
 421   0.0000       7.358208       200.2270 
 422   0.0000       7.617375       207.2793 
 423   0.0000       7.762988       211.2416 
 424   0.0000       7.767133       211.3544 
 425   0.0000       7.827267       212.9908 
 426   0.0000       7.866078       214.0469 
 427   0.0000       8.063867       219.4290 
 428   0.0000       8.475063       230.6182 
 429   0.0000       8.494760       231.1542 
 430   0.0000       8.569566       233.1897 
 431   0.0000       8.720395       237.2940 
 432   0.0000       8.731104       237.5854 
 433   0.0000       8.818258       239.9570 
 434   0.0000       8.905547       242.3323 
 435   0.0000       8.924601       242.8507 
 436   0.0000       8.960363       243.8239 
 437   0.0000       8.985614       244.5110 
 438   0.0000       9.043347       246.0820 
 439   0.0000       9.062775       246.6107 
 440   0.0000       9.076234       246.9769 
 441   0.0000       9.110608       247.9122 
 442   0.0000       9.119322       248.1494 
 443   0.0000       9.161378       249.2938 
 444   0.0000       9.229389       251.1444 
 445   0.0000       9.232359       251.2253 
 446   0.0000       9.381714       255.2894 
 447   0.0000       9.438209       256.8267 
 448   0.0000       9.465096       257.5583 
 449   0.0000       9.492637       258.3078 
 450   0.0000       9.600141       261.2331 
 451   0.0000       9.636499       262.2225 
 452   0.0000       9.676188       263.3025 
 453   0.0000       9.706933       264.1391 
 454   0.0000       9.961451       271.0649 
 455   0.0000      10.013384       272.4780 
 456   0.0000      10.108878       275.0765 
 457   0.0000      10.177846       276.9533 
 458   0.0000      10.549215       287.0587 
 459   0.0000      10.586219       288.0657 
 460   0.0000      10.592178       288.2278 
 461   0.0000      10.689154       290.8667 
 462   0.0000      10.704461       291.2832 
 463   0.0000      10.716826       291.6197 
 464   0.0000      10.777782       293.2784 
 465   0.0000      10.830834       294.7220 
 466   0.0000      10.858115       295.4643 
 467   0.0000      10.909444       296.8611 
 468   0.0000      10.910234       296.8826 
 469   0.0000      10.977599       298.7157 
 470   0.0000      11.010730       299.6172 
 471   0.0000      11.019739       299.8623 
 472   0.0000      11.185248       304.3661 
 473   0.0000      11.214570       305.1640 
 474   0.0000      11.265461       306.5488 
 475   0.0000      11.271509       306.7134 
 476   0.0000      11.320453       308.0452 
 477   0.0000      11.441081       311.3276 
 478   0.0000      11.442783       311.3740 
 479   0.0000      11.506446       313.1063 
 480   0.0000      11.518607       313.4372 
 481   0.0000      11.614251       316.0398 
 482   0.0000      11.640769       316.7614 
 483   0.0000      11.662569       317.3546 
 484   0.0000      11.718137       318.8667 
 485   0.0000      11.750939       319.7593 
 486   0.0000      11.823440       321.7322 
 487   0.0000      11.828167       321.8608 
 488   0.0000      11.834404       322.0305 
 489   0.0000      11.835909       322.0714 
 490   0.0000      11.871001       323.0264 
 491   0.0000      11.882719       323.3452 
 492   0.0000      11.903175       323.9018 
 493   0.0000      12.191508       331.7478 
 494   0.0000      12.195095       331.8454 
 495   0.0000      12.203950       332.0864 
 496   0.0000      12.218326       332.4775 
 497   0.0000      12.291227       334.4613 
 498   0.0000      12.314734       335.1010 
 499   0.0000      12.321366       335.2814 
 500   0.0000      12.443897       338.6156 
 501   0.0000      12.454459       338.9031 
 502   0.0000      12.456861       338.9684 
 503   0.0000      12.529137       340.9352 
 504   0.0000      12.548647       341.4661 
 505   0.0000      12.588708       342.5562 
 506   0.0000      12.625581       343.5595 
 507   0.0000      12.630276       343.6873 
 508   0.0000      12.639768       343.9456 
 509   0.0000      12.795554       348.1847 
 510   0.0000      12.846470       349.5702 
 511   0.0000      12.864133       350.0508 
 512   0.0000      12.868288       350.1639 
 513   0.0000      12.892968       350.8355 
 514   0.0000      12.909541       351.2865 
 515   0.0000      12.995131       353.6155 
 516   0.0000      13.064260       355.4966 
 517   0.0000      13.088723       356.1623 
 518   0.0000      13.089265       356.1770 
 519   0.0000      13.168583       358.3354 
 520   0.0000      13.170147       358.3779 
 521   0.0000      13.213580       359.5598 
 522   0.0000      13.302434       361.9776 
 523   0.0000      13.325611       362.6083 
 524   0.0000      13.364903       363.6775 
 525   0.0000      13.385303       364.2326 
 526   0.0000      13.407489       364.8363 
 527   0.0000      13.438449       365.6788 
 528   0.0000      13.491469       367.1215 
 529   0.0000      13.496170       367.2495 
 530   0.0000      13.773003       374.7825 
 531   0.0000      13.781890       375.0243 
 532   0.0000      13.857293       377.0761 
 533   0.0000      13.876704       377.6043 
 534   0.0000      13.932162       379.1134 
 535   0.0000      14.153150       385.1268 
 536   0.0000      14.194395       386.2491 
 537   0.0000      14.215526       386.8241 
 538   0.0000      14.297196       389.0465 
 539   0.0000      14.482893       394.0996 
 540   0.0000      14.510247       394.8439 
 541   0.0000      14.634228       398.2176 
 542   0.0000      14.843581       403.9144 
 543   0.0000      14.964405       407.2022 
 544   0.0000      15.079465       410.3331 
 545   0.0000      15.129149       411.6851 
 546   0.0000      15.242843       414.7788 
 547   0.0000      15.258766       415.2121 
 548   0.0000      15.509025       422.0220 
 549   0.0000      15.710335       427.5000 
 550   0.0000      15.715090       427.6293 
 551   0.0000      15.738862       428.2762 
 552   0.0000      15.994969       435.2452 
 553   0.0000      16.130765       438.9404 
 554   0.0000      16.201522       440.8658 
 555   0.0000      16.636445       452.7007 
 556   0.0000      16.743213       455.6060 
 557   0.0000      16.751579       455.8336 
 558   0.0000      16.758191       456.0136 
 559   0.0000      16.761626       456.1070 
 560   0.0000      16.770978       456.3615 
 561   0.0000      16.786101       456.7730 
 562   0.0000      16.799582       457.1399 
 563   0.0000      16.821017       457.7231 
 564   0.0000      17.002444       462.6600 
 565   0.0000      17.069958       464.4972 
 566   0.0000      17.194573       467.8881 
 567   0.0000      17.203269       468.1248 
 568   0.0000      17.250024       469.3970 
 569   0.0000      17.269013       469.9137 
 570   0.0000      17.289933       470.4830 
 571   0.0000      17.404725       473.6066 
 572   0.0000      17.444570       474.6909 
 573   0.0000      17.539614       477.2772 
 574   0.0000      18.029074       490.5961 
 575   0.0000      18.382309       500.2080 
 576   0.0000      18.452852       502.1276 
 577   0.0000      18.475274       502.7378 
 578   0.0000      18.571198       505.3480 
 579   0.0000      18.573472       505.4099 
 580   0.0000      18.629191       506.9261 
 581   0.0000      18.699146       508.8296 
 582   0.0000      18.894101       514.1346 
 583   0.0000      18.906319       514.4671 
 584   0.0000      19.087994       519.4107 
 585   0.0000      19.782883       538.3196 
 586   0.0000      19.795483       538.6625 
 587   0.0000      20.157074       548.5019 
 588   0.0000      20.202069       549.7263 
 589   0.0000      20.209297       549.9229 
 590   0.0000      20.257335       551.2301 
 591   0.0000      20.297168       552.3140 
 592   0.0000      20.425749       555.8129 
 593   0.0000      20.437541       556.1338 
 594   0.0000      20.577105       559.9315 
 595   0.0000      20.862528       567.6983 
 596   0.0000      21.217488       577.3572 
 597   0.0000      21.486506       584.6775 
 598   0.0000      21.537305       586.0599 
 599   0.0000      21.688562       590.1758 
 600   0.0000      22.482147       611.7703 
 601   0.0000      23.493827       639.2995 
 602   0.0000      23.519796       640.0062 
 603   0.0000      23.618122       642.6818 
 604   0.0000      23.641358       643.3141 
 605   0.0000      23.758487       646.5013 
 606   0.0000      23.968851       652.2256 
 607   0.0000      24.151591       657.1982 
 608   0.0000      24.168853       657.6679 
 609   0.0000      25.391227       690.9304 
 610   0.0000      25.601015       696.6390 
 611   0.0000      25.633377       697.5197 
 612   0.0000      26.071978       709.4546 
 613   0.0000      32.168500       875.3494 
 614   0.0000      32.300977       878.9543 
 615   0.0000      32.385406       881.2517 
 616   0.0000      32.646521       888.3570 
 617   0.0000      32.666484       888.9002 
 618   0.0000      33.529850       912.3936 
 619   0.0000      33.623412       914.9396 
 620   0.0000      33.773821       919.0324 
 621   0.0000      34.510884       939.0889 
 622   0.0000      34.991556       952.1686 
 623   0.0000      40.943307      1114.1240 
 624   0.0000      41.141729      1119.5233 
 625   0.0000      41.456121      1128.0784 
 626   0.0000      41.709315      1134.9682 
 627   0.0000      75.585443      2056.7845 
 628   0.0000      77.349820      2104.7956 
 629   0.0000      91.053184      2477.6831 
 630   0.0000      91.074661      2478.2675 
 631   0.0000      91.137428      2479.9755 
 632   0.0000      91.159034      2480.5634 
 633   0.0000      91.232784      2482.5703 
 634   0.0000      91.364263      2486.1480 
 635   0.0000      91.467371      2488.9537 
 636   0.0000      91.496262      2489.7399 
 637   0.0000      92.329827      2512.4223 
 638   0.0000      92.461479      2516.0048 
 639   0.0000      92.516328      2517.4973 
 640   0.0000      92.767581      2524.3342 
 641   0.0000       0.000000         0.0000 

                 SPIN DOWN ORBITALS
  NO   OCC          E(Eh)            E(eV) 
   0   1.0000      -9.887239      -269.0455 
   1   1.0000      -9.886582      -269.0276 
   2   1.0000      -0.689754       -18.7692 
   3   1.0000      -0.523167       -14.2361 
   4   1.0000      -0.422720       -11.5028 
   5   1.0000      -0.372322       -10.1314 
   6   1.0000      -0.315091        -8.5741 
   7   1.0000      -0.247729        -6.7410 
   8   0.0000      -0.041226        -1.1218 
   9   0.0000      -0.011827        -0.3218 
  10   0.0000       0.005144         0.1400 
  11   0.0000       0.008008         0.2179 
  12   0.0000       0.017195         0.4679 
  13   0.0000       0.031945         0.8693 
  14   0.0000       0.032122         0.8741 
  15   0.0000       0.039112         1.0643 
  16   0.0000       0.042435         1.1547 
  17   0.0000       0.044023         1.1979 
  18   0.0000       0.052582         1.4308 
  19   0.0000       0.054511         1.4833 
  20   0.0000       0.055436         1.5085 
  21   0.0000       0.060818         1.6549 
  22   0.0000       0.064561         1.7568 
  23   0.0000       0.069516         1.8916 
  24   0.0000       0.076831         2.0907 
  25   0.0000       0.084138         2.2895 
  26   0.0000       0.100301         2.7293 
  27   0.0000       0.102292         2.7835 
  28   0.0000       0.106142         2.8883 
  29   0.0000       0.107503         2.9253 
  30   0.0000       0.111866         3.0440 
  31   0.0000       0.116621         3.1734 
  32   0.0000       0.120178         3.2702 
  33   0.0000       0.127182         3.4608 
  34   0.0000       0.131446         3.5768 
  35   0.0000       0.135382         3.6839 
  36   0.0000       0.137563         3.7433 
  37   0.0000       0.142155         3.8682 
  38   0.0000       0.143747         3.9115 
  39   0.0000       0.153255         4.1703 
  40   0.0000       0.154770         4.2115 
  41   0.0000       0.156292         4.2529 
  42   0.0000       0.165485         4.5031 
  43   0.0000       0.171713         4.6726 
  44   0.0000       0.175227         4.7682 
  45   0.0000       0.189175         5.1477 
  46   0.0000       0.190161         5.1746 
  47   0.0000       0.196997         5.3605 
  48   0.0000       0.201259         5.4765 
  49   0.0000       0.206311         5.6140 
  50   0.0000       0.209286         5.6950 
  51   0.0000       0.210656         5.7322 
  52   0.0000       0.211618         5.7584 
  53   0.0000       0.213275         5.8035 
  54   0.0000       0.213872         5.8198 
  55   0.0000       0.214169         5.8278 
  56   0.0000       0.215943         5.8761 
  57   0.0000       0.232679         6.3315 
  58   0.0000       0.233765         6.3611 
  59   0.0000       0.244223         6.6456 
  60   0.0000       0.245335         6.6759 
  61   0.0000       0.246764         6.7148 
  62   0.0000       0.262142         7.1333 
  63   0.0000       0.272218         7.4074 
  64   0.0000       0.280517         7.6333 
  65   0.0000       0.283473         7.7137 
  66   0.0000       0.283699         7.7198 
  67   0.0000       0.287364         7.8196 
  68   0.0000       0.288651         7.8546 
  69   0.0000       0.288819         7.8592 
  70   0.0000       0.292004         7.9458 
  71   0.0000       0.295961         8.0535 
  72   0.0000       0.305856         8.3228 
  73   0.0000       0.311599         8.4791 
  74   0.0000       0.313353         8.5268 
  75   0.0000       0.315910         8.5964 
  76   0.0000       0.316473         8.6117 
  77   0.0000       0.318350         8.6628 
  78   0.0000       0.323101         8.7920 
  79   0.0000       0.339622         9.2416 
  80   0.0000       0.346724         9.4348 
  81   0.0000       0.347412         9.4536 
  82   0.0000       0.351409         9.5623 
  83   0.0000       0.360268         9.8034 
  84   0.0000       0.363584         9.8936 
  85   0.0000       0.367499        10.0002 
  86   0.0000       0.368420        10.0252 
  87   0.0000       0.374698        10.1961 
  88   0.0000       0.375520        10.2184 
  89   0.0000       0.376244        10.2381 
  90   0.0000       0.379047        10.3144 
  91   0.0000       0.386972        10.5300 
  92   0.0000       0.394623        10.7382 
  93   0.0000       0.397132        10.8065 
  94   0.0000       0.413843        11.2612 
  95   0.0000       0.417779        11.3683 
  96   0.0000       0.418139        11.3781 
  97   0.0000       0.422539        11.4979 
  98   0.0000       0.434275        11.8172 
  99   0.0000       0.434451        11.8220 
 100   0.0000       0.442476        12.0404 
 101   0.0000       0.449338        12.2271 
 102   0.0000       0.451067        12.2742 
 103   0.0000       0.461435        12.5563 
 104   0.0000       0.461696        12.5634 
 105   0.0000       0.466172        12.6852 
 106   0.0000       0.473048        12.8723 
 107   0.0000       0.478178        13.0119 
 108   0.0000       0.480708        13.0807 
 109   0.0000       0.484337        13.1795 
 110   0.0000       0.486049        13.2261 
 111   0.0000       0.489058        13.3079 
 112   0.0000       0.494077        13.4445 
 113   0.0000       0.501805        13.6548 
 114   0.0000       0.506600        13.7853 
 115   0.0000       0.515944        14.0396 
 116   0.0000       0.519342        14.1320 
 117   0.0000       0.520964        14.1761 
 118   0.0000       0.524472        14.2716 
 119   0.0000       0.530297        14.4301 
 120   0.0000       0.534882        14.5549 
 121   0.0000       0.536490        14.5986 
 122   0.0000       0.536837        14.6081 
 123   0.0000       0.538896        14.6641 
 124   0.0000       0.542251        14.7554 
 125   0.0000       0.557598        15.1730 
 126   0.0000       0.559473        15.2240 
 127   0.0000       0.564449        15.3594 
 128   0.0000       0.571575        15.5533 
 129   0.0000       0.572325        15.5738 
 130   0.0000       0.576620        15.6906 
 131   0.0000       0.576747        15.6941 
 132   0.0000       0.580242        15.7892 
 133   0.0000       0.581802        15.8316 
 134   0.0000       0.587266        15.9803 
 135   0.0000       0.595988        16.2176 
 136   0.0000       0.601924        16.3792 
 137   0.0000       0.604294        16.4437 
 138   0.0000       0.606038        16.4911 
 139   0.0000       0.609108        16.5747 
 140   0.0000       0.609614        16.5884 
 141   0.0000       0.627072        17.0635 
 142   0.0000       0.632272        17.2050 
 143   0.0000       0.641310        17.4509 
 144   0.0000       0.645899        17.5758 
 145   0.0000       0.654211        17.8020 
 146   0.0000       0.654874        17.8200 
 147   0.0000       0.656602        17.8671 
 148   0.0000       0.658193        17.9103 
 149   0.0000       0.659372        17.9424 
 150   0.0000       0.665930        18.1209 
 151   0.0000       0.677856        18.4454 
 152   0.0000       0.684890        18.6368 
 153   0.0000       0.687172        18.6989 
 154   0.0000       0.692085        18.8326 
 155   0.0000       0.705488        19.1973 
 156   0.0000       0.713625        19.4187 
 157   0.0000       0.713860        19.4251 
 158   0.0000       0.751590        20.4518 
 159   0.0000       0.755884        20.5687 
 160   0.0000       0.767075        20.8732 
 161   0.0000       0.771256        20.9869 
 162   0.0000       0.783786        21.3279 
 163   0.0000       0.795771        21.6540 
 164   0.0000       0.803104        21.8536 
 165   0.0000       0.803509        21.8646 
 166   0.0000       0.805477        21.9182 
 167   0.0000       0.809332        22.0231 
 168   0.0000       0.811062        22.0701 
 169   0.0000       0.814780        22.1713 
 170   0.0000       0.828004        22.5311 
 171   0.0000       0.830091        22.5879 
 172   0.0000       0.832249        22.6467 
 173   0.0000       0.835715        22.7410 
 174   0.0000       0.840214        22.8634 
 175   0.0000       0.844849        22.9895 
 176   0.0000       0.847904        23.0726 
 177   0.0000       0.853256        23.2183 
 178   0.0000       0.860989        23.4287 
 179   0.0000       0.868252        23.6263 
 180   0.0000       0.871300        23.7093 
 181   0.0000       0.880106        23.9489 
 182   0.0000       0.880554        23.9611 
 183   0.0000       0.883964        24.0539 
 184   0.0000       0.888521        24.1779 
 185   0.0000       0.888651        24.1814 
 186   0.0000       0.889947        24.2167 
 187   0.0000       0.891568        24.2608 
 188   0.0000       0.896218        24.3873 
 189   0.0000       0.898954        24.4618 
 190   0.0000       0.900486        24.5035 
 191   0.0000       0.918788        25.0015 
 192   0.0000       0.919432        25.0190 
 193   0.0000       0.933467        25.4009 
 194   0.0000       0.935255        25.4496 
 195   0.0000       0.939199        25.5569 
 196   0.0000       0.939634        25.5687 
 197   0.0000       0.941554        25.6210 
 198   0.0000       0.947404        25.7802 
 199   0.0000       0.949800        25.8454 
 200   0.0000       0.955464        25.9995 
 201   0.0000       0.955504        26.0006 
 202   0.0000       0.957124        26.0447 
 203   0.0000       0.962250        26.1841 
 204   0.0000       0.966818        26.3085 
 205   0.0000       0.967779        26.3346 
 206   0.0000       0.970269        26.4024 
 207   0.0000       0.972246        26.4562 
 208   0.0000       0.982831        26.7442 
 209   0.0000       1.002982        27.2925 
 210   0.0000       1.004064        27.3220 
 211   0.0000       1.011918        27.5357 
 212   0.0000       1.021469        27.7956 
 213   0.0000       1.023552        27.8523 
 214   0.0000       1.023627        27.8543 
 215   0.0000       1.026427        27.9305 
 216   0.0000       1.031491        28.0683 
 217   0.0000       1.034746        28.1569 
 218   0.0000       1.042479        28.3673 
 219   0.0000       1.052537        28.6410 
 220   0.0000       1.061958        28.8973 
 221   0.0000       1.062077        28.9006 
 222   0.0000       1.074590        29.2411 
 223   0.0000       1.080894        29.4126 
 224   0.0000       1.089641        29.6506 
 225   0.0000       1.113351        30.2958 
 226   0.0000       1.124168        30.5902 
 227   0.0000       1.130778        30.7700 
 228   0.0000       1.147224        31.2176 
 229   0.0000       1.148122        31.2420 
 230   0.0000       1.163027        31.6476 
 231   0.0000       1.212349        32.9897 
 232   0.0000       1.212491        32.9936 
 233   0.0000       1.225404        33.3449 
 234   0.0000       1.236570        33.6488 
 235   0.0000       1.238608        33.7042 
 236   0.0000       1.241876        33.7932 
 237   0.0000       1.256903        34.2021 
 238   0.0000       1.265159        34.4267 
 239   0.0000       1.325178        36.0599 
 240   0.0000       1.392748        37.8986 
 241   0.0000       1.399374        38.0789 
 242   0.0000       1.440247        39.1911 
 243   0.0000       1.462058        39.7846 
 244   0.0000       1.474560        40.1248 
 245   0.0000       1.494281        40.6615 
 246   0.0000       1.496447        40.7204 
 247   0.0000       1.501674        40.8626 
 248   0.0000       1.525502        41.5110 
 249   0.0000       1.540088        41.9079 
 250   0.0000       1.581245        43.0279 
 251   0.0000       1.585366        43.1400 
 252   0.0000       1.603592        43.6359 
 253   0.0000       1.605100        43.6770 
 254   0.0000       1.606092        43.7040 
 255   0.0000       1.608344        43.7653 
 256   0.0000       1.609030        43.7839 
 257   0.0000       1.621922        44.1347 
 258   0.0000       1.643366        44.7183 
 259   0.0000       1.674995        45.5789 
 260   0.0000       1.693433        46.0806 
 261   0.0000       1.703521        46.3552 
 262   0.0000       1.711577        46.5744 
 263   0.0000       1.714402        46.6513 
 264   0.0000       1.725599        46.9559 
 265   0.0000       1.729408        47.0596 
 266   0.0000       1.778187        48.3869 
 267   0.0000       1.786339        48.6088 
 268   0.0000       1.809421        49.2368 
 269   0.0000       1.870779        50.9065 
 270   0.0000       1.879882        51.1542 
 271   0.0000       1.897157        51.6243 
 272   0.0000       1.963440        53.4279 
 273   0.0000       1.969135        53.5829 
 274   0.0000       1.976557        53.7849 
 275   0.0000       2.007400        54.6241 
 276   0.0000       2.072886        56.4061 
 277   0.0000       2.073521        56.4234 
 278   0.0000       2.074724        56.4561 
 279   0.0000       2.107859        57.3578 
 280   0.0000       2.113915        57.5225 
 281   0.0000       2.126901        57.8759 
 282   0.0000       2.201410        59.9034 
 283   0.0000       2.210905        60.1618 
 284   0.0000       2.256031        61.3897 
 285   0.0000       2.271600        61.8134 
 286   0.0000       2.278406        61.9986 
 287   0.0000       2.291922        62.3664 
 288   0.0000       2.299955        62.5850 
 289   0.0000       2.331536        63.4443 
 290   0.0000       2.385211        64.9049 
 291   0.0000       2.425313        65.9961 
 292   0.0000       2.452774        66.7434 
 293   0.0000       2.457790        66.8799 
 294   0.0000       2.460920        66.9650 
 295   0.0000       2.515593        68.4528 
 296   0.0000       2.567115        69.8547 
 297   0.0000       2.612059        71.0777 
 298   0.0000       2.615155        71.1620 
 299   0.0000       2.620620        71.3107 
 300   0.0000       2.668164        72.6044 
 301   0.0000       2.686345        73.0992 
 302   0.0000       2.736261        74.4575 
 303   0.0000       2.784301        75.7647 
 304   0.0000       2.789359        75.9023 
 305   0.0000       2.937931        79.9452 
 306   0.0000       2.960931        80.5710 
 307   0.0000       3.036943        82.6394 
 308   0.0000       3.038013        82.6685 
 309   0.0000       3.045245        82.8653 
 310   0.0000       3.102044        84.4109 
 311   0.0000       3.102318        84.4184 
 312   0.0000       3.133592        85.2694 
 313   0.0000       3.219821        87.6158 
 314   0.0000       3.234934        88.0270 
 315   0.0000       3.273924        89.0880 
 316   0.0000       3.294291        89.6422 
 317   0.0000       3.354609        91.2836 
 318   0.0000       3.373833        91.8067 
 319   0.0000       3.421601        93.1065 
 320   0.0000       3.469297        94.4044 
 321   0.0000       3.496934        95.1564 
 322   0.0000       3.510025        95.5126 
 323   0.0000       3.528858        96.0251 
 324   0.0000       3.597793        97.9009 
 325   0.0000       3.644374        99.1684 
 326   0.0000       3.658937        99.5647 
 327   0.0000       3.680805       100.1598 
 328   0.0000       3.687459       100.3408 
 329   0.0000       3.689299       100.3909 
 330   0.0000       3.711956       101.0074 
 331   0.0000       3.743247       101.8589 
 332   0.0000       3.754434       102.1633 
 333   0.0000       3.762447       102.3814 
 334   0.0000       3.836242       104.3894 
 335   0.0000       3.877301       105.5067 
 336   0.0000       3.892078       105.9088 
 337   0.0000       3.902290       106.1867 
 338   0.0000       3.937897       107.1556 
 339   0.0000       3.952197       107.5447 
 340   0.0000       3.978399       108.2577 
 341   0.0000       4.000776       108.8666 
 342   0.0000       4.003978       108.9538 
 343   0.0000       4.004874       108.9782 
 344   0.0000       4.026971       109.5794 
 345   0.0000       4.064324       110.5959 
 346   0.0000       4.160975       113.2259 
 347   0.0000       4.161719       113.2461 
 348   0.0000       4.174055       113.5818 
 349   0.0000       4.197846       114.2292 
 350   0.0000       4.283386       116.5569 
 351   0.0000       4.283614       116.5631 
 352   0.0000       4.398382       119.6861 
 353   0.0000       4.400805       119.7520 
 354   0.0000       4.412735       120.0766 
 355   0.0000       4.418684       120.2385 
 356   0.0000       4.448386       121.0467 
 357   0.0000       4.451359       121.1276 
 358   0.0000       4.470655       121.6527 
 359   0.0000       4.547351       123.7397 
 360   0.0000       4.577754       124.5670 
 361   0.0000       4.636890       126.1762 
 362   0.0000       4.655045       126.6702 
 363   0.0000       4.676589       127.2565 
 364   0.0000       4.687258       127.5468 
 365   0.0000       4.735791       128.8674 
 366   0.0000       4.738077       128.9296 
 367   0.0000       4.756715       129.4368 
 368   0.0000       4.757014       129.4449 
 369   0.0000       4.809059       130.8612 
 370   0.0000       4.841199       131.7357 
 371   0.0000       4.842507       131.7713 
 372   0.0000       4.878463       132.7497 
 373   0.0000       4.929038       134.1259 
 374   0.0000       4.943578       134.5216 
 375   0.0000       4.964125       135.0807 
 376   0.0000       4.998590       136.0186 
 377   0.0000       5.016644       136.5098 
 378   0.0000       5.032230       136.9339 
 379   0.0000       5.035063       137.0110 
 380   0.0000       5.071000       137.9889 
 381   0.0000       5.226918       142.2317 
 382   0.0000       5.235649       142.4693 
 383   0.0000       5.236920       142.5038 
 384   0.0000       5.254060       142.9702 
 385   0.0000       5.354638       145.7071 
 386   0.0000       5.427072       147.6781 
 387   0.0000       5.428410       147.7145 
 388   0.0000       5.448135       148.2513 
 389   0.0000       5.625625       153.0810 
 390   0.0000       5.666118       154.1829 
 391   0.0000       5.677747       154.4994 
 392   0.0000       5.697071       155.0252 
 393   0.0000       5.713869       155.4823 
 394   0.0000       5.723166       155.7353 
 395   0.0000       5.725658       155.8031 
 396   0.0000       5.822940       158.4503 
 397   0.0000       5.866302       159.6302 
 398   0.0000       5.931749       161.4111 
 399   0.0000       5.989543       162.9838 
 400   0.0000       6.199156       168.6876 
 401   0.0000       6.213286       169.0721 
 402   0.0000       6.229346       169.5091 
 403   0.0000       6.373519       173.4323 
 404   0.0000       6.383451       173.7025 
 405   0.0000       6.397207       174.0768 
 406   0.0000       6.403292       174.2424 
 407   0.0000       6.428371       174.9249 
 408   0.0000       6.510340       177.1554 
 409   0.0000       6.667176       181.4231 
 410   0.0000       6.686746       181.9556 
 411   0.0000       6.722973       182.9414 
 412   0.0000       6.768904       184.1912 
 413   0.0000       6.792133       184.8233 
 414   0.0000       6.920591       188.3189 
 415   0.0000       6.942968       188.9278 
 416   0.0000       6.958516       189.3508 
 417   0.0000       7.028711       191.2609 
 418   0.0000       7.112007       193.5276 
 419   0.0000       7.199961       195.9209 
 420   0.0000       7.328110       199.4080 
 421   0.0000       7.358208       200.2270 
 422   0.0000       7.617375       207.2793 
 423   0.0000       7.762988       211.2416 
 424   0.0000       7.767133       211.3544 
 425   0.0000       7.827267       212.9908 
 426   0.0000       7.866078       214.0469 
 427   0.0000       8.063867       219.4290 
 428   0.0000       8.475063       230.6182 
 429   0.0000       8.494760       231.1542 
 430   0.0000       8.569566       233.1897 
 431   0.0000       8.720395       237.2940 
 432   0.0000       8.731104       237.5854 
 433   0.0000       8.818258       239.9570 
 434   0.0000       8.905547       242.3323 
 435   0.0000       8.924601       242.8507 
 436   0.0000       8.960363       243.8239 
 437   0.0000       8.985614       244.5110 
 438   0.0000       9.043347       246.0820 
 439   0.0000       9.062775       246.6107 
 440   0.0000       9.076234       246.9769 
 441   0.0000       9.110608       247.9122 
 442   0.0000       9.119322       248.1494 
 443   0.0000       9.161378       249.2938 
 444   0.0000       9.229389       251.1444 
 445   0.0000       9.232359       251.2253 
 446   0.0000       9.381714       255.2894 
 447   0.0000       9.438209       256.8267 
 448   0.0000       9.465096       257.5583 
 449   0.0000       9.492637       258.3078 
 450   0.0000       9.600141       261.2331 
 451   0.0000       9.636499       262.2225 
 452   0.0000       9.676188       263.3025 
 453   0.0000       9.706933       264.1391 
 454   0.0000       9.961451       271.0649 
 455   0.0000      10.013384       272.4780 
 456   0.0000      10.108878       275.0765 
 457   0.0000      10.177846       276.9533 
 458   0.0000      10.549215       287.0587 
 459   0.0000      10.586219       288.0657 
 460   0.0000      10.592178       288.2278 
 461   0.0000      10.689154       290.8667 
 462   0.0000      10.704461       291.2832 
 463   0.0000      10.716826       291.6197 
 464   0.0000      10.777782       293.2784 
 465   0.0000      10.830834       294.7220 
 466   0.0000      10.858115       295.4643 
 467   0.0000      10.909444       296.8611 
 468   0.0000      10.910234       296.8826 
 469   0.0000      10.977599       298.7157 
 470   0.0000      11.010730       299.6172 
 471   0.0000      11.019739       299.8623 
 472   0.0000      11.185248       304.3661 
 473   0.0000      11.214570       305.1640 
 474   0.0000      11.265461       306.5488 
 475   0.0000      11.271509       306.7134 
 476   0.0000      11.320453       308.0452 
 477   0.0000      11.441081       311.3276 
 478   0.0000      11.442783       311.3740 
 479   0.0000      11.506446       313.1063 
 480   0.0000      11.518607       313.4372 
 481   0.0000      11.614251       316.0398 
 482   0.0000      11.640769       316.7614 
 483   0.0000      11.662569       317.3546 
 484   0.0000      11.718137       318.8667 
 485   0.0000      11.750939       319.7593 
 486   0.0000      11.823440       321.7322 
 487   0.0000      11.828167       321.8608 
 488   0.0000      11.834404       322.0305 
 489   0.0000      11.835909       322.0714 
 490   0.0000      11.871001       323.0264 
 491   0.0000      11.882719       323.3452 
 492   0.0000      11.903175       323.9018 
 493   0.0000      12.191508       331.7478 
 494   0.0000      12.195095       331.8454 
 495   0.0000      12.203950       332.0864 
 496   0.0000      12.218326       332.4775 
 497   0.0000      12.291227       334.4613 
 498   0.0000      12.314734       335.1010 
 499   0.0000      12.321366       335.2814 
 500   0.0000      12.443897       338.6156 
 501   0.0000      12.454459       338.9031 
 502   0.0000      12.456861       338.9684 
 503   0.0000      12.529137       340.9352 
 504   0.0000      12.548647       341.4661 
 505   0.0000      12.588708       342.5562 
 506   0.0000      12.625581       343.5595 
 507   0.0000      12.630276       343.6873 
 508   0.0000      12.639768       343.9456 
 509   0.0000      12.795554       348.1847 
 510   0.0000      12.846470       349.5702 
 511   0.0000      12.864133       350.0508 
 512   0.0000      12.868288       350.1639 
 513   0.0000      12.892968       350.8355 
 514   0.0000      12.909541       351.2865 
 515   0.0000      12.995131       353.6155 
 516   0.0000      13.064260       355.4966 
 517   0.0000      13.088723       356.1623 
 518   0.0000      13.089265       356.1770 
 519   0.0000      13.168583       358.3354 
 520   0.0000      13.170147       358.3779 
 521   0.0000      13.213580       359.5598 
 522   0.0000      13.302434       361.9776 
 523   0.0000      13.325611       362.6083 
 524   0.0000      13.364903       363.6775 
 525   0.0000      13.385303       364.2326 
 526   0.0000      13.407489       364.8363 
 527   0.0000      13.438449       365.6788 
 528   0.0000      13.491469       367.1215 
 529   0.0000      13.496170       367.2495 
 530   0.0000      13.773003       374.7825 
 531   0.0000      13.781890       375.0243 
 532   0.0000      13.857293       377.0761 
 533   0.0000      13.876704       377.6043 
 534   0.0000      13.932162       379.1134 
 535   0.0000      14.153150       385.1268 
 536   0.0000      14.194395       386.2491 
 537   0.0000      14.215526       386.8241 
 538   0.0000      14.297196       389.0465 
 539   0.0000      14.482893       394.0996 
 540   0.0000      14.510247       394.8439 
 541   0.0000      14.634228       398.2176 
 542   0.0000      14.843581       403.9144 
 543   0.0000      14.964405       407.2022 
 544   0.0000      15.079465       410.3331 
 545   0.0000      15.129149       411.6851 
 546   0.0000      15.242843       414.7788 
 547   0.0000      15.258766       415.2121 
 548   0.0000      15.509025       422.0220 
 549   0.0000      15.710335       427.5000 
 550   0.0000      15.715090       427.6293 
 551   0.0000      15.738862       428.2762 
 552   0.0000      15.994969       435.2452 
 553   0.0000      16.130765       438.9404 
 554   0.0000      16.201522       440.8658 
 555   0.0000      16.636445       452.7007 
 556   0.0000      16.743213       455.6060 
 557   0.0000      16.751579       455.8336 
 558   0.0000      16.758191       456.0136 
 559   0.0000      16.761626       456.1070 
 560   0.0000      16.770978       456.3615 
 561   0.0000      16.786101       456.7730 
 562   0.0000      16.799582       457.1399 
 563   0.0000      16.821017       457.7231 
 564   0.0000      17.002444       462.6600 
 565   0.0000      17.069958       464.4972 
 566   0.0000      17.194573       467.8881 
 567   0.0000      17.203269       468.1248 
 568   0.0000      17.250024       469.3970 
 569   0.0000      17.269013       469.9137 
 570   0.0000      17.289933       470.4830 
 571   0.0000      17.404725       473.6066 
 572   0.0000      17.444570       474.6909 
 573   0.0000      17.539614       477.2772 
 574   0.0000      18.029074       490.5961 
 575   0.0000      18.382309       500.2080 
 576   0.0000      18.452852       502.1276 
 577   0.0000      18.475274       502.7378 
 578   0.0000      18.571198       505.3480 
 579   0.0000      18.573472       505.4099 
 580   0.0000      18.629191       506.9261 
 581   0.0000      18.699146       508.8296 
 582   0.0000      18.894101       514.1346 
 583   0.0000      18.906319       514.4671 
 584   0.0000      19.087994       519.4107 
 585   0.0000      19.782883       538.3196 
 586   0.0000      19.795483       538.6625 
 587   0.0000      20.157074       548.5019 
 588   0.0000      20.202069       549.7263 
 589   0.0000      20.209297       549.9229 
 590   0.0000      20.257335       551.2301 
 591   0.0000      20.297168       552.3140 
 592   0.0000      20.425749       555.8129 
 593   0.0000      20.437541       556.1338 
 594   0.0000      20.577105       559.9315 
 595   0.0000      20.862528       567.6983 
 596   0.0000      21.217488       577.3572 
 597   0.0000      21.486506       584.6775 
 598   0.0000      21.537305       586.0599 
 599   0.0000      21.688562       590.1758 
 600   0.0000      22.482147       611.7703 
 601   0.0000      23.493827       639.2995 
 602   0.0000      23.519796       640.0062 
 603   0.0000      23.618122       642.6818 
 604   0.0000      23.641358       643.3141 
 605   0.0000      23.758487       646.5013 
 606   0.0000      23.968851       652.2256 
 607   0.0000      24.151591       657.1982 
 608   0.0000      24.168853       657.6679 
 609   0.0000      25.391227       690.9304 
 610   0.0000      25.601015       696.6390 
 611   0.0000      25.633377       697.5197 
 612   0.0000      26.071978       709.4546 
 613   0.0000      32.168500       875.3494 
 614   0.0000      32.300977       878.9543 
 615   0.0000      32.385406       881.2517 
 616   0.0000      32.646521       888.3570 
 617   0.0000      32.666484       888.9002 
 618   0.0000      33.529850       912.3936 
 619   0.0000      33.623412       914.9396 
 620   0.0000      33.773821       919.0324 
 621   0.0000      34.510884       939.0889 
 622   0.0000      34.991556       952.1686 
 623   0.0000      40.943307      1114.1240 
 624   0.0000      41.141729      1119.5233 
 625   0.0000      41.456121      1128.0784 
 626   0.0000      41.709315      1134.9682 
 627   0.0000      75.585443      2056.7845 
 628   0.0000      77.349820      2104.7956 
 629   0.0000      91.053184      2477.6831 
 630   0.0000      91.074661      2478.2675 
 631   0.0000      91.137428      2479.9755 
 632   0.0000      91.159034      2480.5634 
 633   0.0000      91.232784      2482.5703 
 634   0.0000      91.364263      2486.1480 
 635   0.0000      91.467371      2488.9537 
 636   0.0000      91.496262      2489.7399 
 637   0.0000      92.329827      2512.4223 
 638   0.0000      92.461479      2516.0048 
 639   0.0000      92.516328      2517.4973 
 640   0.0000      92.767581      2524.3342 
 641   0.0000       0.000000         0.0000 

                    ********************************
                    * MULLIKEN POPULATION ANALYSIS *
                    ********************************

--------------------------------------------
MULLIKEN ATOMIC CHARGES AND SPIN POPULATIONS
--------------------------------------------
   0 C :    0.002243    0.000000
   1 C :    0.002313   -0.000000
   2 H :   -0.001216   -0.000000
   3 H :   -0.000924   -0.000000
   4 H :   -0.001165    0.000000
   5 H :   -0.001252    0.000000
Sum of atomic charges         :    0.0000000
Sum of atomic spin populations:   -0.0000000

-----------------------------------------------------
MULLIKEN REDUCED ORBITAL CHARGES AND SPIN POPULATIONS
-----------------------------------------------------
CHARGE
  0 C s       :     3.087690  s :     3.087690
      pz      :     0.908932  p :     2.886823
      px      :     0.929475
      py      :     1.048416
      dz2     :     0.014409  d :     0.001678
      dxz     :     0.015893
      dyz     :    -0.031238
      dx2y2   :     0.002613
      dxy     :    -0.000000
      f0      :     0.000127  f :     0.015959
      f+1     :     0.001803
      f-1     :     0.014018
      f+2     :     0.000021
      f-2     :     0.000000
      f+3     :    -0.000016
      f-3     :     0.000005
      g0      :     0.000718  g :     0.005043
      g+1     :    -0.000444
      g-1     :     0.004540
      g+2     :     0.000017
      g-2     :     0.000000
      g+3     :     0.000016
      g-3     :     0.000184
      g+4     :     0.000012
      g-4     :    -0.000000
      h0      :     0.000075  h :     0.000565
      h+1     :    -0.000093
      h-1     :     0.000568
[...]
      dxy     :     0.000000
      f0      :     0.000000  f :     0.000000
      f+1     :    -0.000000
      f-1     :     0.000000
      f+2     :     0.000000
      f-2     :     0.000000
      f+3     :     0.000000
      f-3     :     0.000000
      g0      :    -0.000000  g :     0.000000
      g+1     :    -0.000000
      g-1     :     0.000000
      g+2     :     0.000000
      g-2     :    -0.000000
      g+3     :     0.000000
      g-3     :     0.000000
      g+4     :    -0.000000
      g-4     :     0.000000


                     *******************************
                     * LOEWDIN POPULATION ANALYSIS *
                     *******************************

-------------------------------------------
LOEWDIN ATOMIC CHARGES AND SPIN POPULATIONS
-------------------------------------------
   0 C :    0.799906    0.000000
   1 C :    0.799906   -0.000000
   2 H :   -0.399953   -0.000000
   3 H :   -0.399953   -0.000000
   4 H :   -0.399953    0.000000
   5 H :   -0.399953    0.000000

----------------------------------------------------
LOEWDIN REDUCED ORBITAL CHARGES AND SPIN POPULATIONS
----------------------------------------------------
CHARGE
  0 C s       :     2.476262  s :     2.476262
      pz      :     0.851319  p :     2.182661
      px      :     0.557218
      py      :     0.774124
      dz2     :     0.116248  d :     0.388349
      dxz     :     0.047532
      dyz     :     0.202199
      dx2y2   :     0.022370
      dxy     :     0.000000
      f0      :     0.025524  f :     0.105438
      f+1     :     0.018938
      f-1     :     0.048920
      f+2     :     0.007290
      f-2     :     0.000000
      f+3     :     0.000488
      f-3     :     0.004278
      g0      :     0.006624  g :     0.034378
      g+1     :     0.004626
      g-1     :     0.020086
      g+2     :     0.001455
      g-2     :     0.000000
      g+3     :     0.000039
      g-3     :     0.001266
      g+4     :     0.000282
      g-4     :     0.000000
      h0      :     0.001717  h :     0.013006
      h+1     :     0.001310
      h-1     :     0.006544
      h+2     :     0.002278
      h-2     :    -0.000000
      h+3     :     0.000146
      h-3     :     0.000769
      h+4     :     0.000081
      h-4     :     0.000000
      h+5     :     0.000023
      h-5     :     0.000137
  1 C s       :     2.476262  s :     2.476262
      pz      :     0.851319  p :     2.182661
      px      :     0.557218
      py      :     0.774124
      dz2     :     0.116248  d :     0.388349
      dxz     :     0.047532
      dyz     :     0.202199
      dx2y2   :     0.022370
      dxy     :     0.000000
      f0      :     0.025524  f :     0.105438
      f+1     :     0.018938
      f-1     :     0.048920
      f+2     :     0.007290
      f-2     :     0.000000
      f+3     :     0.000488
      f-3     :     0.004278
      g0      :     0.006624  g :     0.034378
      g+1     :     0.004626
      g-1     :     0.020086
      g+2     :     0.001455
      g-2     :     0.000000
      g+3     :     0.000039
      g-3     :     0.001266
      g+4     :     0.000282
      g-4     :     0.000000
      h0      :     0.001717  h :     0.013006
      h+1     :     0.001310
      h-1     :     0.006544
      h+2     :     0.002278
      h-2     :     0.000000
      h+3     :     0.000146
      h-3     :     0.000769
      h+4     :     0.000081
      h-4     :     0.000000
      h+5     :     0.000023
      h-5     :     0.000137
  2 H s       :     0.642327  s :     0.642327
      pz      :     0.095940  p :     0.296592
      px      :     0.073447
      py      :     0.127205
      dz2     :     0.070308  d :     0.250641
      dxz     :     0.029692
      dyz     :     0.063464
      dx2y2   :     0.047480
      dxy     :     0.039697
      f0      :     0.034645  f :     0.132564
      f+1     :     0.006695
      f-1     :     0.041861
      f+2     :     0.014911
      f-2     :     0.014770
      f+3     :     0.007204
      f-3     :     0.012477
      g0      :     0.029398  g :     0.077829
      g+1     :     0.003039
      g-1     :     0.012569
      g+2     :     0.015603
      g-2     :     0.005686
      g+3     :     0.003650
      g-3     :     0.003195
      g+4     :     0.003729
      g-4     :     0.000959
  3 H s       :     0.642327  s :     0.642327
      pz      :     0.095940  p :     0.296592
      px      :     0.073447
      py      :     0.127205
      dz2     :     0.070308  d :     0.250641
      dxz     :     0.029692
      dyz     :     0.063464
      dx2y2   :     0.047480
      dxy     :     0.039697
      f0      :     0.034645  f :     0.132564
      f+1     :     0.006695
      f-1     :     0.041861
      f+2     :     0.014911
      f-2     :     0.014770
      f+3     :     0.007204
      f-3     :     0.012477
      g0      :     0.029398  g :     0.077829
      g+1     :     0.003039
      g-1     :     0.012569
      g+2     :     0.015603
      g-2     :     0.005686
      g+3     :     0.003650
      g-3     :     0.003195
      g+4     :     0.003729
      g-4     :     0.000959
  4 H s       :     0.642327  s :     0.642327
      pz      :     0.095940  p :     0.296592
      px      :     0.073447
      py      :     0.127205
      dz2     :     0.070308  d :     0.250641
      dxz     :     0.029692
      dyz     :     0.063464
      dx2y2   :     0.047480
      dxy     :     0.039697
      f0      :     0.034645  f :     0.132564
      f+1     :     0.006695
      f-1     :     0.041861
      f+2     :     0.014911
      f-2     :     0.014770
      f+3     :     0.007204
      f-3     :     0.012477
      g0      :     0.029398  g :     0.077829
      g+1     :     0.003039
      g-1     :     0.012569
      g+2     :     0.015603
      g-2     :     0.005686
      g+3     :     0.003650
      g-3     :     0.003195
      g+4     :     0.003729
      g-4     :     0.000959
  5 H s       :     0.642327  s :     0.642327
      pz      :     0.095940  p :     0.296592
      px      :     0.073447
      py      :     0.127205
      dz2     :     0.070308  d :     0.250641
      dxz     :     0.029692
      dyz     :     0.063464
      dx2y2   :     0.047480
      dxy     :     0.039697
      f0      :     0.034645  f :     0.132564
      f+1     :     0.006695
      f-1     :     0.041861
      f+2     :     0.014911
      f-2     :     0.014770
      f+3     :     0.007204
      f-3     :     0.012477
      g0      :     0.029398  g :     0.077829
      g+1     :     0.003039
      g-1     :     0.012569
      g+2     :     0.015603
      g-2     :     0.005686
      g+3     :     0.003650
      g-3     :     0.003195
      g+4     :     0.003729
      g-4     :     0.000959

SPIN
  0 C s       :     0.000000  s :     0.000000
      pz      :    -0.000000  p :    -0.000000
      px      :     0.000000
      py      :    -0.000000
      dz2     :     0.000000  d :     0.000000
      dxz     :    -0.000000
      dyz     :    -0.000000
      dx2y2   :     0.000000
      dxy     :     0.000000
      f0      :    -0.000000  f :    -0.000000
      f+1     :    -0.000000
      f-1     :    -0.000000
      f+2     :     0.000000
      f-2     :     0.000000
      f+3     :    -0.000000
      f-3     :     0.000000
      g0      :     0.000000  g :     0.000000
      g+1     :    -0.000000
      g-1     :     0.000000
      g+2     :     0.000000
      g-2     :     0.000000
      g+3     :     0.000000
      g-3     :    -0.000000
      g+4     :     0.000000
      g-4     :     0.000000
      h0      :    -0.000000  h :     0.000000
      h+1     :    -0.000000
      h-1     :     0.000000
      h+2     :     0.000000
      h-2     :     0.000000
      h+3     :    -0.000000
      h-3     :     0.000000
      h+4     :    -0.000000
      h-4     :     0.000000
      h+5     :     0.000000
      h-5     :    -0.000000
  1 C s       :    -0.000000  s :    -0.000000
      pz      :    -0.000000  p :    -0.000000
      px      :    -0.000000
      py      :    -0.000000
      dz2     :     0.000000  d :     0.000000
      dxz     :     0.000000
      dyz     :     0.000000
      dx2y2   :    -0.000000
      dxy     :     0.000000
      f0      :     0.000000  f :     0.000000
      f+1     :     0.000000
      f-1     :     0.000000
      f+2     :    -0.000000
      f-2     :     0.000000
      f+3     :     0.000000
      f-3     :    -0.000000
      g0      :    -0.000000  g :     0.000000
      g+1     :     0.000000
      g-1     :    -0.000000
      g+2     :     0.000000
      g-2     :     0.000000
      g+3     :    -0.000000
      g-3     :    -0.000000
      g+4     :     0.000000
      g-4     :     0.000000
      h0      :    -0.000000  h :    -0.000000
      h+1     :     0.000000
      h-1     :    -0.000000
      h+2     :    -0.000000
      h-2     :     0.000000
      h+3     :     0.000000
      h-3     :     0.000000
      h+4     :    -0.000000
      h-4     :     0.000000
      h+5     :    -0.000000
      h-5     :    -0.000000
  2 H s       :     0.000000  s :     0.000000
      pz      :    -0.000000  p :     0.000000
      px      :     0.000000
      py      :     0.000000
      dz2     :     0.000000  d :    -0.000000
      dxz     :     0.000000
      dyz     :    -0.000000
      dx2y2   :    -0.000000
      dxy     :     0.000000
      f0      :     0.000000  f :     0.000000
      f+1     :     0.000000
      f-1     :     0.000000
      f+2     :     0.000000
      f-2     :     0.000000
      f+3     :     0.000000
      f-3     :    -0.000000
      g0      :    -0.000000  g :    -0.000000
      g+1     :    -0.000000
      g-1     :     0.000000
      g+2     :    -0.000000
      g-2     :    -0.000000
      g+3     :    -0.000000
      g-3     :     0.000000
      g+4     :     0.000000
      g-4     :     0.000000
  3 H s       :     0.000000  s :     0.000000
      pz      :     0.000000  p :    -0.000000
      px      :     0.000000
      py      :    -0.000000
      dz2     :     0.000000  d :    -0.000000
      dxz     :    -0.000000
      dyz     :    -0.000000
      dx2y2   :    -0.000000
      dxy     :     0.000000
      f0      :    -0.000000  f :    -0.000000
      f+1     :    -0.000000
      f-1     :    -0.000000
      f+2     :     0.000000
      f-2     :    -0.000000
      f+3     :    -0.000000
      f-3     :    -0.000000
      g0      :    -0.000000  g :    -0.000000
      g+1     :    -0.000000
      g-1     :    -0.000000
      g+2     :     0.000000
      g-2     :     0.000000
      g+3     :     0.000000
      g-3     :     0.000000
      g+4     :     0.000000
      g-4     :     0.000000
  4 H s       :     0.000000  s :     0.000000
      pz      :    -0.000000  p :     0.000000
      px      :    -0.000000
      py      :     0.000000
      dz2     :     0.000000  d :     0.000000
      dxz     :     0.000000
      dyz     :    -0.000000
      dx2y2   :     0.000000
      dxy     :    -0.000000
      f0      :    -0.000000  f :    -0.000000
      f+1     :    -0.000000
      f-1     :     0.000000
      f+2     :    -0.000000
      f-2     :    -0.000000
      f+3     :    -0.000000
      f-3     :     0.000000
      g0      :     0.000000  g :     0.000000
      g+1     :     0.000000
      g-1     :     0.000000
      g+2     :     0.000000
      g-2     :     0.000000
      g+3     :     0.000000
      g-3     :    -0.000000
      g+4     :    -0.000000
      g-4     :    -0.000000
  5 H s       :    -0.000000  s :    -0.000000
      pz      :     0.000000  p :    -0.000000
      px      :    -0.000000
      py      :    -0.000000
      dz2     :     0.000000  d :     0.000000
      dxz     :     0.000000
      dyz     :     0.000000
      dx2y2   :     0.000000
      dxy     :    -0.000000
      f0      :    -0.000000  f :     0.000000
      f+1     :     0.000000
      f-1     :     0.000000
      f+2     :     0.000000
      f-2     :    -0.000000
      f+3     :    -0.000000
      f-3     :     0.000000
      g0      :     0.000000  g :     0.000000
      g+1     :     0.000000
      g-1     :     0.000000
      g+2     :     0.000000
      g-2     :    -0.000000
      g+3     :    -0.000000
      g-3     :    -0.000000
      g+4     :    -0.000000
      g-4     :    -0.000000


                      *****************************
                      * MAYER POPULATION ANALYSIS *
                      *****************************

  NA   - Mulliken gross atomic population
  ZA   - Total nuclear charge
  QA   - Mulliken gross atomic charge
  VA   - Mayer's total valence
  BVA  - Mayer's bonded valence
  FA   - Mayer's free valence

  ATOM       NA         ZA         QA         VA         BVA        FA
  0 C      5.9978     6.0000     0.0022     3.9410     3.9410     0.0000
  1 C      5.9977     6.0000     0.0023     3.9410     3.9410     0.0000
  2 H      1.0012     1.0000    -0.0012     1.0721     1.0721    -0.0000
  3 H      1.0009     1.0000    -0.0009     1.0724     1.0724     0.0000
  4 H      1.0012     1.0000    -0.0012     1.0722     1.0722     0.0000
  5 H      1.0013     1.0000    -0.0013     1.0724     1.0724     0.0000

  Mayer bond orders larger than 0.1
B(  0-C ,  1-C ) :   1.8441 B(  0-C ,  2-H ) :   1.0470 B(  0-C ,  3-H ) :   1.0470 
B(  1-C ,  4-H ) :   1.0469 B(  1-C ,  5-H ) :   1.0472 

-------
TIMINGS
-------

Total SCF time: 0 days 1 hours 9 min 4 sec 

Total time                  ....    4144.901 sec
Sum of individual times     ....    4142.659 sec  ( 99.9%)

Fock matrix formation       ....    4130.943 sec  ( 99.7%)
  XC integration            ....      62.361 sec  (  1.5% of F)
    Basis function eval.    ....       2.689 sec  (  4.3% of XC)
    Density eval.           ....      21.295 sec  ( 34.1% of XC)
    XC-Functional eval.     ....       0.196 sec  (  0.3% of XC)
    XC-Potential eval.      ....      35.183 sec  ( 56.4% of XC)
Diagonalization             ....       4.839 sec  (  0.1%)
Density matrix formation    ....       0.083 sec  (  0.0%)
Population analysis         ....       0.457 sec  (  0.0%)
Initial guess               ....       2.618 sec  (  0.1%)
Orbital Transformation      ....       0.000 sec  (  0.0%)
Orbital Orthonormalization  ....       0.000 sec  (  0.0%)
DIIS solution               ....       2.994 sec  (  0.1%)
Grid generation             ....       0.725 sec  (  0.0%)

-------------------------   --------------------
FINAL SINGLE POINT ENERGY       -78.508662942611
-------------------------   --------------------


                            ***************************************
                            *     ORCA property calculations      *
                            ***************************************

                                    ---------------------
                                    Active property flags
                                    ---------------------
   (+) Dipole Moment
   (+) Polarizability


------------------------------------------------------------------------------
                       ORCA ELECTRIC PROPERTIES CALCULATION
------------------------------------------------------------------------------

Dipole Moment Calculation                       ... on
Quadrupole Moment Calculation                   ... off
Polarizability Calculation                      ... Analytic (CP-SCF)
GBWName                                         ... c2h4_pbe.gbw
Electron density file                           ... c2h4_pbe.scfp.tmp
The origin for moment calculation is the CENTER OF MASS  = ( 0.000000,  0.000000  0.000000)

-------------
DIPOLE MOMENT
-------------
                                X             Y             Z
Electronic contribution:     -0.00000       0.00000       0.00000
Nuclear contribution   :      0.00000       0.00000       0.00000
                        -----------------------------------------
Total Dipole Moment    :     -0.00000       0.00000       0.00000
                        -----------------------------------------
Magnitude (a.u.)       :      0.00000
Magnitude (Debye)      :      0.00000



--------------------
Rotational spectrum 
--------------------
 
Rotational constants in cm-1:     4.845498     0.998188     0.827683 
Rotational constants in MHz : 145264.386663 29924.922399 24813.303514 

 Dipole components along the rotational axes: 
x,y,z [a.u.] :     0.000000     0.000000    -0.000000 
x,y,z [Debye]:     0.000000     0.000000    -0.000000 

 
Transforming and storing MO dipole integrals   ... done

                ... starting polarizability calculation

Opening the Dipole integral file               ... (c2h4_pbe.dmo.tmp) done
Reading Dipole-MO integrals                    ... done
Solving CP-SCF equations                       ... 

           ************************************************************
           *        Program running with 4 parallel MPI-processes     *
           *              working on a common directory               *
           ************************************************************

------------------------------------------------------------------------------
                           ORCA CP-SCF CALCULATION
------------------------------------------------------------------------------

Input orbitals are from        ... c2h4_pbe.gbw
Input Perturbation             ... c2h4_pbe.cpv.tmp
Wavefunction output            ... c2h4_pbe.cpu.tmp
Perturbation mode              ... Real perturbation (singlet)
Solver                         ... POPLE
Max. number of iterations      ... 200
Convergence tolerance          ... 1.000e-06
Integral handling              ... Direct
Number of perturbations        ... 3
Number of operators            ... 2
Orbital ranges used for CP-SCF:
 Operator 0:  Orbitals   0...  7  to   8...641
 Operator 1:  Orbitals   0...  7  to   8...641
DFT calculation                         ... on
Exchange functional (SCF)               ... PBE
Exchange functional (CP-SCF)            ... PBE
   PBE kappa parameter  XKappa (SCF)    ...  0.804000
   PBE kappa parameter  XKappa (CP-SCF) ...  0.804000
   PBE mue parameter   XMuePBE (SCF)    ...  0.219520
   PBE mue parameter   XMuePBE (CP-SCF) ...  0.219520
Correlation functional (SCF)            ... PBE
Correlation functional (CP-SCF)         ... PBE
   PBE beta parameter CBetaPBE (SCF)    ...  0.066725
   PBE beta parameter CBetaPBE (CP-SCF) ...  0.066725
 LDA part of GGA corr.  LDAOpt (SCF)    ... PW91-LDA
 LDA part of GGA corr.  LDAOpt (CP-SCF) ... PW91-LDA
Variables per vector in CP-SCF ... 10144
Number of vectors sought       ... 3
Recalculating density on grid  ... done
Calculating the xc-kernel      ... done
     CP-SCF ITERATION   0: 
     CP-SCF ITERATION   1:      0.346673482556
     CP-SCF ITERATION   2:      0.002223551782
     CP-SCF ITERATION   3:      0.000003420626
     CP-SCF ITERATION   4:      0.000000803703
done
Reading CP-SCF coefficients                    ... done
Doing the polarizability tensor   ... done
Cleaning up                                    ... done

-------------------------
THE POLARIZABILITY TENSOR
-------------------------

The raw cartesian tensor (atomic units):
   23.31068      0.00000     -0.00000  
    0.00000     26.36567     -0.00000  
   -0.00000     -0.00000     36.30546  
diagonalized tensor: 
   23.31068     26.36567     36.30546  

    1.00000      0.00000     -0.00000  
   -0.00000      1.00000     -0.00000  
    0.00000      0.00000      1.00000  

Isotropic polarizability :  28.66060


Timings for individual modules:

Sum of individual times         ...     6765.829 sec (= 112.764 min)
GTO integral calculation        ...        4.849 sec (=   0.081 min)   0.1 %
SCF iterations                  ...     4147.041 sec (=  69.117 min)  61.3 %
Solution of CP-SCF eqns.        ...     2613.939 sec (=  43.566 min)  38.6 %
                             ****ORCA TERMINATED NORMALLY****
TOTAL RUN TIME: 0 days 1 hours 52 minutes 47 seconds 233 msec
