
                                 *****************
                                 * O   R   C   A *
                                 *****************

           --- An Ab Initio, DFT and Semiempirical electronic structure package ---

                  #######################################################
                  #                        -***-                        #
                  #          Department of theory and spectroscopy      #
                  #               Directorship: Frank Neese             #
                  #        Max Planck Institute fuer Kohlenforschung    #
                  #                Kaiser Wilhelm Platz 1               #
                  #                 D-45470 Muelheim/Ruhr               #
                  #                      Germany                        #
                  #                                                     #
                  #                  All rights reserved                #
                  #                        -***-                        #
                  #######################################################


                         Program Version 4.1.2  - RELEASE  -


 With contributions from (in alphabetic order):
   Daniel Aravena         : Magnetic Properties
   Michael Atanasov       : Ab Initio Ligand Field Theory
   Alexander A. Auer      : GIAO ZORA
   Ute Becker             : Parallelization
   Giovanni Bistoni       : ED, Open-shell LED
   Martin Brehm           : Molecular dynamics
   Dmytro Bykov           : SCF Hessian
   Vijay G. Chilkuri      : MRCI spin determinant printing
   Dipayan Datta          : RHF DLPNO-CCSD density
   Achintya Kumar Dutta   : EOM-CC, STEOM-CC
   Dmitry Ganyushin       : Spin-Orbit,Spin-Spin,Magnetic field MRCI
   Miquel Garcia          : C-PCM Hessian
   Yang Guo               : DLPNO-NEVPT2, CIM, IAO-localization
   Andreas Hansen         : Spin unrestricted coupled pair/coupled cluster methods
   Benjamin Helmich-Paris : CASSCF linear response (MC-RPA)
   Lee Huntington         : MR-EOM, pCC
   Robert Izsak           : Overlap fitted RIJCOSX, COSX-SCS-MP3, EOM
   Christian Kollmar      : KDIIS, OOCD, Brueckner-CCSD(T), CCSD density
   Simone Kossmann        : Meta GGA functionals, TD-DFT gradient, OOMP2, MP2 Hessian
   Martin Krupicka        : AUTO-CI
   Lucas Lang             : DCDCAS
   Dagmar Lenk            : GEPOL surface, SMD
   Dimitrios Liakos       : Extrapolation schemes; parallel MDCI
   Dimitrios Manganas     : ROCIS; embedding schemes
   Dimitrios Pantazis     : SARC Basis sets
   Taras Petrenko         : DFT Hessian,TD-DFT gradient, ASA, ECA, R-Raman, ABS, FL, XAS/XES, NRVS
   Peter Pinski           : DLPNO-MP2, DLPNO-MP2 Gradient
   Christoph Reimann      : Effective Core Potentials
   Marius Retegan         : Local ZFS, SOC
   Christoph Riplinger    : Optimizer, TS searches, QM/MM, DLPNO-CCSD(T), (RO)-DLPNO pert. Triples
   Tobias Risthaus        : Range-separated hybrids, TD-DFT gradient, RPA, STAB
   Michael Roemelt        : Restricted open shell CIS
   Masaaki Saitow         : Open-shell DLPNO
   Barbara Sandhoefer     : DKH picture change effects
   Avijit Sen             : IP-ROCIS
   Kantharuban Sivalingam : CASSCF convergence, NEVPT2, FIC-MRCI
   Bernardo de Souza      : ESD, SOC TD-DFT
   Georgi Stoychev        : AutoAux, RI-MP2 NMR
   Willem Van den Heuvel  : Paramagnetic NMR
   Boris Wezisla          : Elementary symmetry handling
   Frank Wennmohs         : Technical directorship


 We gratefully acknowledge several colleagues who have allowed us to
 interface, adapt or use parts of their codes:
   Stefan Grimme, W. Hujo, H. Kruse,             : VdW corrections, initial TS optimization,
                  C. Bannwarth                     DFT functionals, gCP, sTDA/sTD-DF
   Ed Valeev                                     : LibInt (2-el integral package), F12 methods
   Garnet Chan, S. Sharma, J. Yang, R. Olivares  : DMRG
   Ulf Ekstrom                                   : XCFun DFT Library
   Mihaly Kallay                                 : mrcc  (arbitrary order and MRCC methods)
   Andreas Klamt, Michael Diedenhofen            : otool_cosmo (COSMO solvation model)
   Jiri Pittner, Ondrej Demel                    : Mk-CCSD
   Frank Weinhold                                : gennbo (NPA and NBO analysis)
   Christopher J. Cramer and Donald G. Truhlar   : smd solvation model
   Lars Goerigk                                  : TD-DFT with DH, B97 family of functionals
   V. Asgeirsson, H. Jonsson                     : NEB implementation
   FAccTs GmbH                                   : IRC, NEB, NEB-TS, Multilevel


 Your calculation uses the libint2 library for the computation of 2-el integrals
 For citations please refer to: http://libint.valeyev.net

 This ORCA versions uses:
   CBLAS   interface :  Fast vector & matrix operations
   LAPACKE interface :  Fast linear algebra routines
   SCALAPACK package :  Parallel linear algebra routines


----- Orbital basis set information -----
Your calculation utilizes the basis: aug-pc-4
   H, C-F              : F. Jensen, J. Chem. Phys. 115, 9113 (2001).
                         F. Jensen, J. Chem. Phys. 116, 7372 (2002).
                         F. Jensen, J. Chem. Phys. 117, 9234 (2002).
   Si-Cl               : F. Jensen, T. Helgaker, J. Chem. Phys. 121, 3463 (2004).
   He-B, Ne-Mg, Al, Ar : F. Jensen, J. Phys. Chem. A 111, 11198 (2007).
   K, Ca, Ga-Kr        : F. Jensen, J. Chem. Phys. 136, 094110 (2012).
   Sc-Zn               : F. Jensen, J. Chem. Phys. 138, 014107 (2013).

================================================================================
                                        WARNINGS
                       Please study these warnings very carefully!
================================================================================


INFO   : the flag for use of LIBINT has been found!

================================================================================
                                       INPUT FILE
================================================================================
NAME = c2h_pbe.inp
|  1> !uks pbe nori aug-pc-4 grid5 nofinalgrid verytightscf
|  2> 
|  3> %maxcore 1500
|  4> 
|  5> %pal nprocs 4 end
|  6> 
|  7> %scf
|  8> 	maxiter 200
|  9> end
| 10> %elprop
| 11> 	dipole true
| 12> 	 polar 1
| 13> 	 maxiter 200
| 14> end
| 15> 
| 16> * xyz 0 2
| 17> C 0.0000 0.0000 0.0000
| 18> C 0.0000 0.0000 -1.2165
| 19> H 0.0000 0.0000 1.0465
| 20> *
| 21> 
| 22>                          ****END OF INPUT****
================================================================================

                       ****************************
                       * Single Point Calculation *
                       ****************************

---------------------------------
CARTESIAN COORDINATES (ANGSTROEM)
---------------------------------
  C      0.000000    0.000000    0.000000
  C      0.000000    0.000000   -1.216500
  H      0.000000    0.000000    1.046500

----------------------------
CARTESIAN COORDINATES (A.U.)
----------------------------
  NO LB      ZA    FRAG     MASS         X           Y           Z
   0 C     6.0000    0    12.011    0.000000    0.000000    0.000000
   1 C     6.0000    0    12.011    0.000000    0.000000   -2.298852
   2 H     1.0000    0     1.008    0.000000    0.000000    1.977598

--------------------------------
INTERNAL COORDINATES (ANGSTROEM)
--------------------------------
 C      0   0   0     0.000000000000     0.00000000     0.00000000
 C      1   0   0     1.216500000000     0.00000000     0.00000000
 H      1   2   0     1.046500000000   180.00000000     0.00000000

---------------------------
INTERNAL COORDINATES (A.U.)
---------------------------
 C      0   0   0     0.000000000000     0.00000000     0.00000000
 C      1   0   0     2.298851841915     0.00000000     0.00000000
 H      1   2   0     1.977598399149   180.00000000     0.00000000

---------------------
BASIS SET INFORMATION
---------------------
There are 2 groups of distinct atoms

 Group   1 Type C   : 28s12p7d4f3g2h contracted to 9s8p7d4f3g2h pattern {11101111111/51111111/1111111/1111/111/11}
 Group   2 Type H   : 12s7p4d3f2g contracted to 8s7p4d3f2g pattern {51111111/1111111/1111/111/11}

Atom   0C    basis set group =>   1
Atom   1C    basis set group =>   1
Atom   2H    basis set group =>   2


           ************************************************************
           *        Program running with 4 parallel MPI-processes     *
           *              working on a common directory               *
           ************************************************************
------------------------------------------------------------------------------
                           ORCA GTO INTEGRAL CALCULATION
------------------------------------------------------------------------------

                         BASIS SET STATISTICS AND STARTUP INFO

 # of primitive gaussian shells          ...  140
 # of primitive gaussian functions       ...  444
 # of contracted shells                  ...   90
 # of contracted basis functions         ...  378
 Highest angular momentum                ...    5
 Maximum contraction depth               ...   11
 Integral package used                   ... LIBINT
 Integral threshhold            Thresh   ...  1.000e-12
 Primitive cut-off              TCut     ...  1.000e-14


------------------------------ INTEGRAL EVALUATION ----------------------------


 * One electron integrals 
 Pre-screening matrix                    ... done
 Shell pair data                         ... done (   0.001 sec)



           ************************************************************
           *        Program running with 4 parallel MPI-processes     *
           *              working on a common directory               *
           ************************************************************
-------------------------------------------------------------------------------
                                 ORCA SCF
-------------------------------------------------------------------------------

------------
SCF SETTINGS
------------
Hamiltonian:
 Density Functional     Method          .... DFT(GTOs)
 Exchange Functional    Exchange        .... PBE
   PBE kappa parameter   XKappa         ....  0.804000
   PBE mue parameter    XMuePBE         ....  0.219520
 Correlation Functional Correlation     .... PBE
   PBE beta parameter  CBetaPBE         ....  0.066725
 LDA part of GGA corr.  LDAOpt          .... PW91-LDA
 Gradients option       PostSCFGGA      .... off
   Density functional embedding theory  .... OFF
   NL short-range parameter             ....  6.400000


General Settings:
 Integral files         IntName         .... c2h_pbe
 Hartree-Fock type      HFTyp           .... UHF
 Total Charge           Charge          ....    0
 Multiplicity           Mult            ....    2
 Number of Electrons    NEL             ....   13
 Basis Dimension        Dim             ....  378
 Nuclear Repulsion      ENuc            ....     20.0970072165 Eh

Convergence Acceleration:
 DIIS                   CNVDIIS         .... on
   Start iteration      DIISMaxIt       ....    12
   Startup error        DIISStart       ....  0.200000
   # of expansion vecs  DIISMaxEq       ....     5
   Bias factor          DIISBfac        ....   1.050
   Max. coefficient     DIISMaxC        ....  10.000
 Newton-Raphson         CNVNR           .... off
 SOSCF                  CNVSOSCF        .... off
 Level Shifting         CNVShift        .... on
   Level shift para.    LevelShift      ....    0.2500
   Turn off err/grad.   ShiftErr        ....    0.0010
 Zerner damping         CNVZerner       .... off
 Static damping         CNVDamp         .... on
   Fraction old density DampFac         ....    0.7000
   Max. Damping (<1)    DampMax         ....    0.9800
   Min. Damping (>=0)   DampMin         ....    0.0000
   Turn off err/grad.   DampErr         ....    0.1000
 Fernandez-Rico         CNVRico         .... off

SCF Procedure:
 Maximum # iterations   MaxIter         ....   200
 SCF integral mode      SCFMode         .... Direct
   Integral package                     .... LIBINT
 Reset frequency        DirectResetFreq ....    20
 Integral Threshold     Thresh          ....  1.000e-12 Eh
 Primitive CutOff       TCut            ....  1.000e-14 Eh

Convergence Tolerance:
 Convergence Check Mode ConvCheckMode   .... Total+1el-Energy
 Convergence forced     ConvForced      .... 0
 Energy Change          TolE            ....  1.000e-09 Eh
 1-El. energy change                    ....  1.000e-06 Eh
 DIIS Error             TolErr          ....  1.000e-08


Diagonalization of the overlap matrix:
Smallest eigenvalue                        ... 3.652e-07
Time for diagonalization                   ...    0.098 sec
Threshold for overlap eigenvalues          ... 1.000e-08
Number of eigenvalues below threshold      ... 0
Time for construction of square roots      ...    0.020 sec
Total time needed                          ...    0.119 sec

-------------------
DFT GRID GENERATION
-------------------

General Integration Accuracy     IntAcc      ...  5.010
Radial Grid Type                 RadialGrid  ... Gauss-Chebyshev
Angular Grid (max. acc.)         AngularGrid ... Lebedev-434
Angular grid pruning method      GridPruning ... 3 (G Style)
Weight generation scheme         WeightScheme... Becke
Basis function cutoff            BFCut       ...    1.0000e-12
Integration weight cutoff        WCut        ...    1.0000e-14
Grids for H and He will be reduced by one unit

# of grid points (after initial pruning)     ...  28088 (   0.0 sec)
# of grid points (after weights+screening)   ...  27750 (   0.0 sec)
nearest neighbour list constructed           ...    0.0 sec
Grid point re-assignment to atoms done       ...    0.0 sec
Grid point division into batches done        ...    0.2 sec
Reduced shell lists constructed in    0.3 sec

Total number of grid points                  ...    27750
Total number of batches                      ...      435
Average number of points per batch           ...       63
Average number of grid points per atom       ...     9250
Average number of shells per batch           ...    78.75 (87.49%)
Average number of basis functions per batch  ...   338.22 (89.48%)
Average number of large shells per batch     ...    73.55 (93.41%)
Average number of large basis fcns per batch ...   320.30 (94.70%)
Maximum spatial batch extension              ...  27.58, 27.58,  2.13 au
Average spatial batch extension              ...   0.68,  0.66,  0.31 au

Time for grid setup =    0.323 sec

------------------------------
INITIAL GUESS: MODEL POTENTIAL
------------------------------
Loading Hartree-Fock densities                     ... done
Calculating cut-offs                               ... done
Setting up the integral package                    ... done
Initializing the effective Hamiltonian             ... done
Starting the Coulomb interaction                   ... done (   0.0 sec)
Reading the grid                                   ... done
Mapping shells                                     ... done
Starting the XC term evaluation                    ... done (   0.5 sec)
  promolecular density results
     # of electrons  =     12.999507729
     EX              =    -10.387109744
     EC              =     -0.386950530
     EX+EC           =    -10.774060274
Transforming the Hamiltonian                       ... done (   0.0 sec)
Diagonalizing the Hamiltonian                      ... done (   0.0 sec)
Back transforming the eigenvectors                 ... done (   0.0 sec)
Now organizing SCF variables                       ... done
                      ------------------
                      INITIAL GUESS DONE (   1.8 sec)
                      ------------------
--------------
SCF ITERATIONS
--------------
ITER       Energy         Delta-E        Max-DP      RMS-DP      [F,P]     Damp
               ***  Starting incremental Fock matrix formation  ***
  0    -76.4632628591   0.000000000000 0.01773238  0.00014907  0.1885749 0.7000
  1    -76.5010378110  -0.037774951818 0.01031033  0.00009807  0.0764673 0.7000
                               ***Turning on DIIS***
  2    -76.5120421163  -0.011004305352 0.01385837  0.00015357  0.0383246 0.0000
  3    -76.5334700432  -0.021427926901 0.00679102  0.00007495  0.0390648 0.0000
  4    -76.5370384036  -0.003568360344 0.00275961  0.00002433  0.0335860 0.0000
  5    -76.5384899415  -0.001451537970 0.00278280  0.00001959  0.0094721 0.0000
  6    -76.5386551567  -0.000165215139 0.00106839  0.00000917  0.0024460 0.0000
  7    -76.5387020113  -0.000046854602 0.00063986  0.00000816  0.0008239 0.0000
  8    -76.5387385480  -0.000036536741 0.00040128  0.00000347  0.0002528 0.0000
  9    -76.5387449467  -0.000006398655 0.00021249  0.00000273  0.0001105 0.0000
 10    -76.5387471720  -0.000002225310 0.00005388  0.00000064  0.0000546 0.0000
 11    -76.5387473294  -0.000000157468 0.00003084  0.00000037  0.0000208 0.0000
 12    -76.5387473611  -0.000000031619 0.00000684  0.00000007  0.0000034 0.0000
 13    -76.5387473620  -0.000000000926 0.00000152  0.00000001  0.0000005 0.0000
                 **** Energy Check signals convergence ****

               *****************************************************
               *                     SUCCESS                       *
               *           SCF CONVERGED AFTER  14 CYCLES          *
               *****************************************************


----------------
TOTAL SCF ENERGY
----------------

Total Energy       :          -76.53874736 Eh           -2082.72520 eV

Components:
Nuclear Repulsion  :           20.09700722 Eh             546.86737 eV
Electronic Energy  :          -96.63575458 Eh           -2629.59257 eV
One Electron Energy:         -141.81879662 Eh           -3859.08565 eV
Two Electron Energy:           45.18304204 Eh            1229.49308 eV

Virial components:
Potential Energy   :         -152.77330069 Eh           -4157.17286 eV
Kinetic Energy     :           76.23455333 Eh            2074.44766 eV
Virial Ratio       :            2.00399024


DFT components:
N(Alpha)           :        6.999999293150 electrons
N(Beta)            :        5.999999275711 electrons
N(Total)           :       12.999998568862 electrons
E(X)               :      -10.586636380383 Eh       
E(C)               :       -0.386297108002 Eh       
E(XC)              :      -10.972933488385 Eh       
DFET-embed. en.    :        0.000000000000 Eh       

---------------
SCF CONVERGENCE
---------------

  Last Energy change         ...   -2.4542e-11  Tolerance :   1.0000e-09
  Last MAX-Density change    ...    2.3628e-06  Tolerance :   1.0000e-08
  Last RMS-Density change    ...    2.0299e-08  Tolerance :   1.0000e-09
  Last DIIS Error            ...    6.4853e-08  Tolerance :   1.0000e-08

             **** THE GBW FILE WAS UPDATED (c2h_pbe.gbw) ****
             **** DENSITY FILE WAS UPDATED (c2h_pbe.scfp.tmp) ****
             **** ENERGY FILE WAS UPDATED (c2h_pbe.en.tmp) ****
----------------------
UHF SPIN CONTAMINATION
----------------------

Warning: in a DFT calculation there is little theoretical justification to 
         calculate <S**2> as in Hartree-Fock theory. We will do it anyways
         but you should keep in mind that the values have only limited relevance

Expectation value of <S**2>     :     0.773068
Ideal value S*(S+1) for S=0.5   :     0.750000
Deviation                       :     0.023068

----------------
ORBITAL ENERGIES
----------------
                 SPIN UP ORBITALS
  NO   OCC          E(Eh)            E(eV) 
   0   1.0000      -9.959909      -271.0229 
   1   1.0000      -9.913217      -269.7524 
   2   1.0000      -0.701661       -19.0932 
   3   1.0000      -0.509827       -13.8731 
   4   1.0000      -0.356868        -9.7109 
   5   1.0000      -0.282662        -7.6916 
   6   1.0000      -0.282662        -7.6916 
   7   0.0000      -0.029798        -0.8108 
   8   0.0000      -0.029798        -0.8108 
   9   0.0000      -0.006094        -0.1658 
  10   0.0000       0.006646         0.1808 
  11   0.0000       0.018296         0.4979 
  12   0.0000       0.018296         0.4979 
  13   0.0000       0.032912         0.8956 
  14   0.0000       0.040531         1.1029 
  15   0.0000       0.040531         1.1029 
  16   0.0000       0.044573         1.2129 
  17   0.0000       0.047861         1.3024 
  18   0.0000       0.076242         2.0746 
  19   0.0000       0.079226         2.1558 
  20   0.0000       0.079226         2.1558 
  21   0.0000       0.081491         2.2175 
  22   0.0000       0.081491         2.2175 
  23   0.0000       0.108482         2.9519 
  24   0.0000       0.111898         3.0449 
  25   0.0000       0.111898         3.0449 
  26   0.0000       0.122781         3.3410 
  27   0.0000       0.122781         3.3410 
  28   0.0000       0.127869         3.4795 
  29   0.0000       0.127869         3.4795 
  30   0.0000       0.132772         3.6129 
  31   0.0000       0.145023         3.9463 
  32   0.0000       0.163741         4.4556 
  33   0.0000       0.172997         4.7075 
  34   0.0000       0.186558         5.0765 
  35   0.0000       0.186558         5.0765 
  36   0.0000       0.195961         5.3324 
  37   0.0000       0.195961         5.3324 
  38   0.0000       0.220576         6.0022 
  39   0.0000       0.220576         6.0022 
  40   0.0000       0.225068         6.1244 
  41   0.0000       0.225068         6.1244 
  42   0.0000       0.233658         6.3582 
  43   0.0000       0.239109         6.5065 
  44   0.0000       0.239109         6.5065 
  45   0.0000       0.249686         6.7943 
  46   0.0000       0.249686         6.7943 
  47   0.0000       0.252913         6.8821 
  48   0.0000       0.252913         6.8821 
  49   0.0000       0.270952         7.3730 
  50   0.0000       0.270952         7.3730 
  51   0.0000       0.277748         7.5579 
  52   0.0000       0.287274         7.8171 
  53   0.0000       0.291834         7.9412 
  54   0.0000       0.291834         7.9412 
  55   0.0000       0.301532         8.2051 
  56   0.0000       0.301532         8.2051 
  57   0.0000       0.313167         8.5217 
  58   0.0000       0.325109         8.8467 
  59   0.0000       0.333840         9.0843 
  60   0.0000       0.333841         9.0843 
  61   0.0000       0.366711         9.9787 
  62   0.0000       0.366711         9.9787 
  63   0.0000       0.370073        10.0702 
  64   0.0000       0.381826        10.3900 
  65   0.0000       0.381826        10.3900 
  66   0.0000       0.399821        10.8797 
  67   0.0000       0.399823        10.8797 
  68   0.0000       0.414579        11.2813 
  69   0.0000       0.414579        11.2813 
  70   0.0000       0.417607        11.3637 
  71   0.0000       0.462463        12.5843 
  72   0.0000       0.462463        12.5843 
  73   0.0000       0.472802        12.8656 
  74   0.0000       0.472802        12.8656 
  75   0.0000       0.474640        12.9156 
  76   0.0000       0.474640        12.9156 
  77   0.0000       0.479143        13.0381 
  78   0.0000       0.479143        13.0381 
  79   0.0000       0.489155        13.3106 
  80   0.0000       0.489158        13.3107 
  81   0.0000       0.496264        13.5040 
  82   0.0000       0.509365        13.8605 
  83   0.0000       0.509365        13.8605 
  84   0.0000       0.514899        14.0111 
  85   0.0000       0.514899        14.0111 
  86   0.0000       0.517036        14.0693 
  87   0.0000       0.532460        14.4890 
  88   0.0000       0.535905        14.5827 
  89   0.0000       0.535905        14.5827 
  90   0.0000       0.563795        15.3416 
  91   0.0000       0.564423        15.3587 
  92   0.0000       0.564423        15.3587 
  93   0.0000       0.566017        15.4021 
  94   0.0000       0.566017        15.4021 
  95   0.0000       0.573684        15.6107 
  96   0.0000       0.573684        15.6107 
  97   0.0000       0.585337        15.9278 
  98   0.0000       0.588965        16.0266 
  99   0.0000       0.588965        16.0266 
 100   0.0000       0.622891        16.9497 
 101   0.0000       0.622891        16.9497 
 102   0.0000       0.647676        17.6242 
 103   0.0000       0.647678        17.6242 
 104   0.0000       0.667396        18.1608 
 105   0.0000       0.667396        18.1608 
 106   0.0000       0.692586        18.8462 
 107   0.0000       0.705399        19.1949 
 108   0.0000       0.705399        19.1949 
 109   0.0000       0.726292        19.7634 
 110   0.0000       0.729056        19.8386 
 111   0.0000       0.729056        19.8386 
 112   0.0000       0.733398        19.9568 
 113   0.0000       0.733402        19.9569 
 114   0.0000       0.744643        20.2628 
 115   0.0000       0.752627        20.4800 
 116   0.0000       0.752627        20.4800 
 117   0.0000       0.763874        20.7861 
 118   0.0000       0.763875        20.7861 
 119   0.0000       0.782964        21.3055 
 120   0.0000       0.782964        21.3055 
 121   0.0000       0.785508        21.3748 
 122   0.0000       0.785509        21.3748 
 123   0.0000       0.799544        21.7567 
 124   0.0000       0.799544        21.7567 
 125   0.0000       0.842257        22.9190 
 126   0.0000       0.842257        22.9190 
 127   0.0000       0.851654        23.1747 
 128   0.0000       0.863786        23.5048 
 129   0.0000       0.863786        23.5048 
 130   0.0000       0.874123        23.7861 
 131   0.0000       0.882723        24.0201 
 132   0.0000       0.882723        24.0201 
 133   0.0000       0.886713        24.1287 
 134   0.0000       0.886713        24.1287 
 135   0.0000       0.914991        24.8982 
 136   0.0000       0.962352        26.1869 
 137   0.0000       0.962352        26.1869 
 138   0.0000       0.988905        26.9095 
 139   0.0000       1.030080        28.0299 
 140   0.0000       1.030080        28.0299 
 141   0.0000       1.057921        28.7875 
 142   0.0000       1.077938        29.3322 
 143   0.0000       1.114893        30.3378 
 144   0.0000       1.114894        30.3378 
 145   0.0000       1.226012        33.3615 
 146   0.0000       1.226013        33.3615 
 147   0.0000       1.242838        33.8193 
 148   0.0000       1.242838        33.8193 
 149   0.0000       1.264083        34.3975 
 150   0.0000       1.264083        34.3975 
 151   0.0000       1.272047        34.6142 
 152   0.0000       1.353288        36.8248 
 153   0.0000       1.353288        36.8248 
 154   0.0000       1.362560        37.0771 
 155   0.0000       1.441259        39.2186 
 156   0.0000       1.495347        40.6905 
 157   0.0000       1.495347        40.6905 
 158   0.0000       1.608680        43.7744 
 159   0.0000       1.608680        43.7744 
 160   0.0000       1.614123        43.9225 
 161   0.0000       1.647014        44.8175 
 162   0.0000       1.671436        45.4821 
 163   0.0000       1.671436        45.4821 
 164   0.0000       1.735497        47.2253 
 165   0.0000       1.735498        47.2253 
 166   0.0000       1.863367        50.7048 
 167   0.0000       1.863367        50.7048 
 168   0.0000       1.910849        51.9968 
 169   0.0000       1.953540        53.1585 
 170   0.0000       1.953540        53.1585 
 171   0.0000       2.066716        56.2382 
 172   0.0000       2.066716        56.2382 
 173   0.0000       2.118575        57.6493 
 174   0.0000       2.158495        58.7356 
 175   0.0000       2.158495        58.7356 
 176   0.0000       2.206679        60.0468 
 177   0.0000       2.206679        60.0468 
 178   0.0000       2.248747        61.1915 
 179   0.0000       2.252457        61.2925 
 180   0.0000       2.252457        61.2925 
 181   0.0000       2.401756        65.3551 
 182   0.0000       2.473445        67.3059 
 183   0.0000       2.593005        70.5593 
 184   0.0000       2.593005        70.5593 
 185   0.0000       2.651183        72.1424 
 186   0.0000       2.651183        72.1424 
 187   0.0000       2.676813        72.8398 
 188   0.0000       2.731952        74.3402 
 189   0.0000       2.731952        74.3402 
 190   0.0000       2.733956        74.3947 
 191   0.0000       3.073632        83.6378 
 192   0.0000       3.073632        83.6378 
 193   0.0000       3.091178        84.1152 
 194   0.0000       3.393202        92.3337 
 195   0.0000       3.393202        92.3337 
 196   0.0000       3.438487        93.5660 
 197   0.0000       3.477664        94.6321 
 198   0.0000       3.477664        94.6321 
 199   0.0000       3.580776        97.4379 
 200   0.0000       3.580776        97.4379 
 201   0.0000       3.877051       105.4999 
 202   0.0000       3.877051       105.4999 
 203   0.0000       3.877403       105.5095 
 204   0.0000       3.877403       105.5095 
 205   0.0000       3.881528       105.6218 
 206   0.0000       3.881529       105.6218 
 207   0.0000       3.894671       105.9794 
 208   0.0000       3.999042       108.8195 
 209   0.0000       3.999042       108.8195 
 210   0.0000       4.118494       112.0699 
 211   0.0000       4.118494       112.0699 
 212   0.0000       4.125948       112.2728 
 213   0.0000       4.148806       112.8948 
 214   0.0000       4.148806       112.8948 
 215   0.0000       4.248326       115.6028 
 216   0.0000       4.248326       115.6028 
 217   0.0000       4.311850       117.3314 
 218   0.0000       4.311850       117.3314 
 219   0.0000       4.317143       117.4754 
 220   0.0000       4.317143       117.4754 
 221   0.0000       4.343524       118.1933 
 222   0.0000       4.507297       122.6498 
 223   0.0000       4.556413       123.9863 
 224   0.0000       4.556415       123.9864 
 225   0.0000       4.567117       124.2776 
 226   0.0000       4.567117       124.2776 
 227   0.0000       4.707491       128.0974 
 228   0.0000       4.707492       128.0974 
 229   0.0000       4.764245       129.6417 
 230   0.0000       4.805236       130.7571 
 231   0.0000       4.805236       130.7571 
 232   0.0000       4.948143       134.6458 
 233   0.0000       4.948143       134.6458 
 234   0.0000       5.032971       136.9541 
 235   0.0000       5.100758       138.7987 
 236   0.0000       5.100758       138.7987 
 237   0.0000       5.189172       141.2046 
 238   0.0000       5.189172       141.2046 
 239   0.0000       5.352855       145.6586 
 240   0.0000       5.467060       148.7663 
 241   0.0000       5.467061       148.7663 
 242   0.0000       5.549485       151.0092 
 243   0.0000       6.175101       168.0330 
 244   0.0000       6.175101       168.0330 
 245   0.0000       6.207758       168.9217 
 246   0.0000       6.207758       168.9217 
 247   0.0000       6.216867       169.1695 
 248   0.0000       6.422317       174.7601 
 249   0.0000       6.535960       177.8525 
 250   0.0000       6.535960       177.8525 
 251   0.0000       6.708504       182.5477 
 252   0.0000       6.708508       182.5478 
 253   0.0000       6.708983       182.5607 
 254   0.0000       7.236821       196.9239 
 255   0.0000       7.242121       197.0681 
 256   0.0000       7.242121       197.0681 
 257   0.0000       7.705673       209.6820 
 258   0.0000       7.732274       210.4059 
 259   0.0000       7.732274       210.4059 
 260   0.0000       8.100265       220.4194 
 261   0.0000       8.761263       238.4061 
 262   0.0000       8.761264       238.4061 
 263   0.0000       8.833357       240.3679 
 264   0.0000       8.833357       240.3679 
 265   0.0000       9.389189       255.4928 
 266   0.0000       9.598040       261.1760 
 267   0.0000       9.927738       270.1475 
 268   0.0000       9.927738       270.1475 
 269   0.0000       9.968277       271.2506 
 270   0.0000       9.968277       271.2506 
 271   0.0000      10.100077       274.8371 
 272   0.0000      10.100077       274.8371 
 273   0.0000      10.130025       275.6520 
 274   0.0000      10.130025       275.6520 
 275   0.0000      10.201904       277.6079 
 276   0.0000      10.201904       277.6079 
 277   0.0000      10.276182       279.6291 
 278   0.0000      10.276182       279.6291 
 279   0.0000      10.330513       281.1076 
 280   0.0000      10.330515       281.1076 
 281   0.0000      10.621019       289.0126 
 282   0.0000      10.621020       289.0127 
 283   0.0000      10.664531       290.1966 
 284   0.0000      10.699814       291.1567 
 285   0.0000      10.699814       291.1567 
 286   0.0000      10.838262       294.9241 
 287   0.0000      10.838262       294.9241 
 288   0.0000      11.074906       301.3635 
 289   0.0000      11.074907       301.3635 
 290   0.0000      11.130881       302.8867 
 291   0.0000      11.233307       305.6738 
 292   0.0000      11.233309       305.6739 
 293   0.0000      11.371685       309.4393 
 294   0.0000      11.424169       310.8674 
 295   0.0000      11.424169       310.8674 
 296   0.0000      11.555101       314.4303 
 297   0.0000      11.555102       314.4303 
 298   0.0000      11.567407       314.7651 
 299   0.0000      11.567408       314.7652 
 300   0.0000      11.628694       316.4329 
 301   0.0000      11.628694       316.4329 
 302   0.0000      11.660037       317.2857 
 303   0.0000      11.660046       317.2860 
 304   0.0000      11.674474       317.6786 
 305   0.0000      11.674474       317.6786 
 306   0.0000      11.717245       318.8424 
 307   0.0000      11.717245       318.8424 
 308   0.0000      11.827790       321.8505 
 309   0.0000      11.827799       321.8508 
 310   0.0000      11.883031       323.3537 
 311   0.0000      11.883033       323.3538 
 312   0.0000      12.031796       327.4018 
 313   0.0000      12.037116       327.5466 
 314   0.0000      12.037116       327.5466 
 315   0.0000      12.202283       332.0410 
 316   0.0000      12.202283       332.0410 
 317   0.0000      12.465384       339.2003 
 318   0.0000      12.600750       342.8839 
 319   0.0000      12.600750       342.8839 
 320   0.0000      12.688430       345.2697 
 321   0.0000      12.688430       345.2697 
 322   0.0000      12.711621       345.9008 
 323   0.0000      12.711624       345.9009 
 324   0.0000      12.891532       350.7964 
 325   0.0000      13.088093       356.1451 
 326   0.0000      13.088093       356.1451 
 327   0.0000      13.132320       357.3486 
 328   0.0000      13.515977       367.7884 
 329   0.0000      13.515977       367.7884 
 330   0.0000      13.963289       379.9604 
 331   0.0000      14.011820       381.2810 
 332   0.0000      14.011820       381.2810 
 333   0.0000      15.043843       409.3638 
 334   0.0000      15.043845       409.3638 
 335   0.0000      15.106259       411.0622 
 336   0.0000      16.078204       437.5102 
 337   0.0000      16.078204       437.5102 
 338   0.0000      16.146171       439.3596 
 339   0.0000      16.474806       448.3023 
 340   0.0000      16.635446       452.6735 
 341   0.0000      16.635446       452.6735 
 342   0.0000      16.694160       454.2712 
 343   0.0000      16.694168       454.2714 
 344   0.0000      17.214062       468.4184 
 345   0.0000      17.214062       468.4184 
 346   0.0000      17.590566       478.6636 
 347   0.0000      18.088464       492.2121 
 348   0.0000      18.104107       492.6378 
 349   0.0000      18.104107       492.6378 
 350   0.0000      19.093679       519.5654 
 351   0.0000      19.093689       519.5657 
 352   0.0000      19.384883       527.4895 
 353   0.0000      19.384883       527.4895 
 354   0.0000      20.580096       560.0129 
 355   0.0000      21.172777       576.1405 
 356   0.0000      21.314126       579.9869 
 357   0.0000      21.314126       579.9869 
 358   0.0000      23.811435       647.9421 
 359   0.0000      23.811435       647.9421 
 360   0.0000      24.012557       653.4149 
 361   0.0000      26.170583       712.1378 
 362   0.0000      31.863308       867.0447 
 363   0.0000      31.863352       867.0459 
 364   0.0000      31.954596       869.5288 
 365   0.0000      31.954640       869.5300 
 366   0.0000      32.111985       873.8115 
 367   0.0000      32.111985       873.8115 
 368   0.0000      33.249170       904.7559 
 369   0.0000      33.249170       904.7559 
 370   0.0000      33.377072       908.2363 
 371   0.0000      35.513818       966.3801 
 372   0.0000      41.537440      1130.2912 
 373   0.0000      74.444332      2025.7332 
 374   0.0000      76.794006      2089.6711 
 375   0.0000      91.202339      2481.7418 
 376   0.0000      91.202339      2481.7418 
 377   0.0000      92.600825      2519.7966 

                 SPIN DOWN ORBITALS
  NO   OCC          E(Eh)            E(eV) 
   0   1.0000      -9.940544      -270.4960 
   1   1.0000      -9.913214      -269.7523 
   2   1.0000      -0.687281       -18.7019 
   3   1.0000      -0.501778       -13.6541 
   4   1.0000      -0.269247        -7.3266 
   5   1.0000      -0.269247        -7.3266 
   6   0.0000      -0.232155        -6.3173 
   7   0.0000      -0.007727        -0.2103 
   8   0.0000      -0.007727        -0.2103 
   9   0.0000      -0.004816        -0.1310 
  10   0.0000       0.011879         0.3232 
  11   0.0000       0.018763         0.5106 
  12   0.0000       0.018763         0.5106 
  13   0.0000       0.034427         0.9368 
  14   0.0000       0.042077         1.1450 
  15   0.0000       0.042077         1.1450 
  16   0.0000       0.044662         1.2153 
  17   0.0000       0.053416         1.4535 
  18   0.0000       0.080522         2.1911 
  19   0.0000       0.080522         2.1911 
  20   0.0000       0.081534         2.2186 
  21   0.0000       0.081534         2.2186 
  22   0.0000       0.082626         2.2484 
  23   0.0000       0.113876         3.0987 
  24   0.0000       0.115216         3.1352 
  25   0.0000       0.115216         3.1352 
  26   0.0000       0.126300         3.4368 
  27   0.0000       0.126300         3.4368 
  28   0.0000       0.128990         3.5100 
  29   0.0000       0.128990         3.5100 
  30   0.0000       0.137608         3.7445 
  31   0.0000       0.144634         3.9357 
  32   0.0000       0.167637         4.5616 
  33   0.0000       0.183762         5.0004 
  34   0.0000       0.186361         5.0711 
  35   0.0000       0.186361         5.0711 
  36   0.0000       0.197393         5.3713 
  37   0.0000       0.197393         5.3713 
  38   0.0000       0.221679         6.0322 
  39   0.0000       0.221679         6.0322 
  40   0.0000       0.231801         6.3076 
  41   0.0000       0.231801         6.3076 
  42   0.0000       0.240713         6.5501 
  43   0.0000       0.240713         6.5501 
  44   0.0000       0.247650         6.7389 
  45   0.0000       0.249700         6.7947 
  46   0.0000       0.249700         6.7947 
  47   0.0000       0.255322         6.9477 
  48   0.0000       0.255322         6.9477 
  49   0.0000       0.275904         7.5077 
  50   0.0000       0.275904         7.5077 
  51   0.0000       0.280180         7.6241 
  52   0.0000       0.290368         7.9013 
  53   0.0000       0.296143         8.0585 
  54   0.0000       0.296143         8.0585 
  55   0.0000       0.305545         8.3143 
  56   0.0000       0.305545         8.3143 
  57   0.0000       0.315794         8.5932 
  58   0.0000       0.334383         9.0990 
  59   0.0000       0.334384         9.0990 
  60   0.0000       0.337089         9.1726 
  61   0.0000       0.368240        10.0203 
  62   0.0000       0.368240        10.0203 
  63   0.0000       0.381842        10.3904 
  64   0.0000       0.383842        10.4449 
  65   0.0000       0.383842        10.4449 
  66   0.0000       0.398807        10.8521 
  67   0.0000       0.398810        10.8522 
  68   0.0000       0.419411        11.4128 
  69   0.0000       0.419411        11.4128 
  70   0.0000       0.434054        11.8112 
  71   0.0000       0.469258        12.7692 
  72   0.0000       0.469258        12.7692 
  73   0.0000       0.475973        12.9519 
  74   0.0000       0.475973        12.9519 
  75   0.0000       0.479265        13.0415 
  76   0.0000       0.479265        13.0415 
  77   0.0000       0.483366        13.1530 
  78   0.0000       0.483366        13.1530 
  79   0.0000       0.492904        13.4126 
  80   0.0000       0.492908        13.4127 
  81   0.0000       0.504499        13.7281 
  82   0.0000       0.517121        14.0716 
  83   0.0000       0.517121        14.0716 
  84   0.0000       0.520660        14.1679 
  85   0.0000       0.520660        14.1679 
  86   0.0000       0.520783        14.1712 
  87   0.0000       0.541199        14.7268 
  88   0.0000       0.541199        14.7268 
  89   0.0000       0.544523        14.8172 
  90   0.0000       0.565557        15.3896 
  91   0.0000       0.565557        15.3896 
  92   0.0000       0.565983        15.4012 
  93   0.0000       0.565983        15.4012 
  94   0.0000       0.570294        15.5185 
  95   0.0000       0.581272        15.8172 
  96   0.0000       0.581272        15.8172 
  97   0.0000       0.600315        16.3354 
  98   0.0000       0.600315        16.3354 
  99   0.0000       0.603701        16.4275 
 100   0.0000       0.624002        16.9800 
 101   0.0000       0.624002        16.9800 
 102   0.0000       0.649388        17.6707 
 103   0.0000       0.649389        17.6708 
 104   0.0000       0.668624        18.1942 
 105   0.0000       0.668624        18.1942 
 106   0.0000       0.705813        19.2062 
 107   0.0000       0.714647        19.4465 
 108   0.0000       0.714647        19.4465 
 109   0.0000       0.733392        19.9566 
 110   0.0000       0.733397        19.9567 
 111   0.0000       0.740081        20.1386 
 112   0.0000       0.742157        20.1951 
 113   0.0000       0.742158        20.1951 
 114   0.0000       0.759149        20.6575 
 115   0.0000       0.759149        20.6575 
 116   0.0000       0.767603        20.8875 
 117   0.0000       0.767603        20.8876 
 118   0.0000       0.769998        20.9527 
 119   0.0000       0.786115        21.3913 
 120   0.0000       0.786115        21.3913 
 121   0.0000       0.791053        21.5256 
 122   0.0000       0.791053        21.5257 
 123   0.0000       0.803067        21.8526 
 124   0.0000       0.803067        21.8526 
 125   0.0000       0.853803        23.2332 
 126   0.0000       0.853803        23.2332 
 127   0.0000       0.857463        23.3328 
 128   0.0000       0.871608        23.7177 
 129   0.0000       0.871608        23.7177 
 130   0.0000       0.883683        24.0462 
 131   0.0000       0.886124        24.1127 
 132   0.0000       0.886124        24.1127 
 133   0.0000       0.901699        24.5365 
 134   0.0000       0.901699        24.5365 
 135   0.0000       0.924113        25.1464 
 136   0.0000       0.962997        26.2045 
 137   0.0000       0.962997        26.2045 
 138   0.0000       0.990606        26.9558 
 139   0.0000       1.048332        28.5266 
 140   0.0000       1.048332        28.5266 
 141   0.0000       1.087355        29.5884 
 142   0.0000       1.090828        29.6829 
 143   0.0000       1.123465        30.5710 
 144   0.0000       1.123467        30.5711 
 145   0.0000       1.232868        33.5480 
 146   0.0000       1.232868        33.5480 
 147   0.0000       1.247258        33.9396 
 148   0.0000       1.247258        33.9396 
 149   0.0000       1.287693        35.0399 
 150   0.0000       1.287693        35.0399 
 151   0.0000       1.310184        35.6519 
 152   0.0000       1.365482        37.1566 
 153   0.0000       1.365482        37.1566 
 154   0.0000       1.376474        37.4558 
 155   0.0000       1.460673        39.7469 
 156   0.0000       1.496876        40.7321 
 157   0.0000       1.496876        40.7321 
 158   0.0000       1.613309        43.9004 
 159   0.0000       1.613309        43.9004 
 160   0.0000       1.623647        44.1817 
 161   0.0000       1.653576        44.9961 
 162   0.0000       1.681844        45.7653 
 163   0.0000       1.681844        45.7653 
 164   0.0000       1.762768        47.9674 
 165   0.0000       1.762768        47.9674 
 166   0.0000       1.880247        51.1641 
 167   0.0000       1.880247        51.1641 
 168   0.0000       1.917235        52.1706 
 169   0.0000       1.971823        53.6560 
 170   0.0000       1.971823        53.6560 
 171   0.0000       2.075505        56.4774 
 172   0.0000       2.075505        56.4774 
 173   0.0000       2.144224        58.3473 
 174   0.0000       2.167853        58.9903 
 175   0.0000       2.167853        58.9903 
 176   0.0000       2.247763        61.1647 
 177   0.0000       2.247763        61.1647 
 178   0.0000       2.267059        61.6898 
 179   0.0000       2.267060        61.6898 
 180   0.0000       2.324523        63.2535 
 181   0.0000       2.410301        65.5876 
 182   0.0000       2.491887        67.8077 
 183   0.0000       2.623160        71.3798 
 184   0.0000       2.623160        71.3798 
 185   0.0000       2.660326        72.3912 
 186   0.0000       2.660326        72.3912 
 187   0.0000       2.721372        74.0523 
 188   0.0000       2.752313        74.8943 
 189   0.0000       2.752313        74.8943 
 190   0.0000       2.778342        75.6025 
 191   0.0000       3.076582        83.7180 
 192   0.0000       3.076582        83.7180 
 193   0.0000       3.100427        84.3669 
 194   0.0000       3.412546        92.8601 
 195   0.0000       3.412546        92.8601 
 196   0.0000       3.448621        93.8417 
 197   0.0000       3.481397        94.7336 
 198   0.0000       3.481397        94.7336 
 199   0.0000       3.587701        97.6263 
 200   0.0000       3.587701        97.6263 
 201   0.0000       3.880814       105.6023 
 202   0.0000       3.880814       105.6023 
 203   0.0000       3.885171       105.7209 
 204   0.0000       3.885171       105.7209 
 205   0.0000       3.913520       106.4923 
 206   0.0000       3.913521       106.4923 
 207   0.0000       3.927894       106.8834 
 208   0.0000       4.013483       109.2124 
 209   0.0000       4.013483       109.2124 
 210   0.0000       4.135891       112.5433 
 211   0.0000       4.141120       112.6856 
 212   0.0000       4.141120       112.6856 
 213   0.0000       4.179421       113.7278 
 214   0.0000       4.179421       113.7278 
 215   0.0000       4.260304       115.9288 
 216   0.0000       4.260304       115.9288 
 217   0.0000       4.323645       117.6524 
 218   0.0000       4.323645       117.6524 
 219   0.0000       4.323656       117.6527 
 220   0.0000       4.323656       117.6527 
 221   0.0000       4.354103       118.4812 
 222   0.0000       4.548253       123.7643 
 223   0.0000       4.590959       124.9264 
 224   0.0000       4.590959       124.9264 
 225   0.0000       4.617859       125.6583 
 226   0.0000       4.617860       125.6584 
 227   0.0000       4.726102       128.6038 
 228   0.0000       4.726103       128.6038 
 229   0.0000       4.768241       129.7504 
 230   0.0000       4.820455       131.1712 
 231   0.0000       4.820455       131.1712 
 232   0.0000       5.053424       137.5107 
 233   0.0000       5.053424       137.5107 
 234   0.0000       5.117357       139.2504 
 235   0.0000       5.117357       139.2504 
 236   0.0000       5.153412       140.2315 
 237   0.0000       5.239096       142.5630 
 238   0.0000       5.239096       142.5630 
 239   0.0000       5.387913       146.6126 
 240   0.0000       5.497057       149.5825 
 241   0.0000       5.497058       149.5825 
 242   0.0000       5.597009       152.3024 
 243   0.0000       6.197117       168.6321 
 244   0.0000       6.197117       168.6321 
 245   0.0000       6.237445       169.7295 
 246   0.0000       6.237445       169.7295 
 247   0.0000       6.256346       170.2438 
 248   0.0000       6.456886       175.7008 
 249   0.0000       6.535559       177.8416 
 250   0.0000       6.535559       177.8416 
 251   0.0000       6.723013       182.9425 
 252   0.0000       6.723017       182.9426 
 253   0.0000       6.757526       183.8816 
 254   0.0000       7.263203       197.6418 
 255   0.0000       7.264583       197.6794 
 256   0.0000       7.264583       197.6794 
 257   0.0000       7.724900       210.2052 
 258   0.0000       7.762962       211.2409 
 259   0.0000       7.762962       211.2409 
 260   0.0000       8.109178       220.6619 
 261   0.0000       8.767287       238.5700 
 262   0.0000       8.767288       238.5700 
 263   0.0000       8.839098       240.5241 
 264   0.0000       8.839098       240.5241 
 265   0.0000       9.399985       255.7866 
 266   0.0000       9.620053       261.7750 
 267   0.0000       9.947696       270.6906 
 268   0.0000       9.947696       270.6906 
 269   0.0000      10.013245       272.4742 
 270   0.0000      10.013248       272.4743 
 271   0.0000      10.127111       275.5727 
 272   0.0000      10.127111       275.5727 
 273   0.0000      10.151534       276.2373 
 274   0.0000      10.151534       276.2373 
 275   0.0000      10.232135       278.4306 
 276   0.0000      10.232135       278.4306 
 277   0.0000      10.283638       279.8320 
 278   0.0000      10.283638       279.8320 
 279   0.0000      10.360479       281.9230 
 280   0.0000      10.360481       281.9230 
 281   0.0000      10.644623       289.6549 
 282   0.0000      10.644623       289.6549 
 283   0.0000      10.698911       291.1322 
 284   0.0000      10.715393       291.5807 
 285   0.0000      10.715393       291.5807 
 286   0.0000      10.848413       295.2003 
 287   0.0000      10.848413       295.2003 
 288   0.0000      11.116095       302.4843 
 289   0.0000      11.116096       302.4843 
 290   0.0000      11.161986       303.7331 
 291   0.0000      11.257013       306.3189 
 292   0.0000      11.257014       306.3189 
 293   0.0000      11.421086       310.7836 
 294   0.0000      11.448812       311.5380 
 295   0.0000      11.448812       311.5380 
 296   0.0000      11.549533       314.2788 
 297   0.0000      11.549535       314.2788 
 298   0.0000      11.594256       315.4958 
 299   0.0000      11.594257       315.4958 
 300   0.0000      11.657765       317.2239 
 301   0.0000      11.657765       317.2239 
 302   0.0000      11.674451       317.6780 
 303   0.0000      11.674460       317.6782 
 304   0.0000      11.722766       318.9927 
 305   0.0000      11.722766       318.9927 
 306   0.0000      11.807899       321.3093 
 307   0.0000      11.807899       321.3093 
 308   0.0000      11.845835       322.3416 
 309   0.0000      11.845845       322.3418 
 310   0.0000      11.908618       324.0500 
 311   0.0000      11.908622       324.0501 
 312   0.0000      12.094832       329.1171 
 313   0.0000      12.094832       329.1171 
 314   0.0000      12.118135       329.7512 
 315   0.0000      12.215080       332.3892 
 316   0.0000      12.215080       332.3892 
 317   0.0000      12.506625       340.3226 
 318   0.0000      12.678491       344.9993 
 319   0.0000      12.678491       344.9993 
 320   0.0000      12.719164       346.1060 
 321   0.0000      12.719164       346.1060 
 322   0.0000      12.826764       349.0340 
 323   0.0000      12.826784       349.0345 
 324   0.0000      12.917554       351.5045 
 325   0.0000      13.111361       356.7783 
 326   0.0000      13.111361       356.7783 
 327   0.0000      13.197540       359.1233 
 328   0.0000      13.530639       368.1874 
 329   0.0000      13.530643       368.1875 
 330   0.0000      14.042859       382.1256 
 331   0.0000      14.081887       383.1876 
 332   0.0000      14.081887       383.1876 
 333   0.0000      15.070624       410.0925 
 334   0.0000      15.070629       410.0927 
 335   0.0000      15.121856       411.4866 
 336   0.0000      16.102589       438.1737 
 337   0.0000      16.102589       438.1737 
 338   0.0000      16.197899       440.7672 
 339   0.0000      16.515233       449.4023 
 340   0.0000      16.650126       453.0730 
 341   0.0000      16.650126       453.0730 
 342   0.0000      16.699952       454.4288 
 343   0.0000      16.699960       454.4290 
 344   0.0000      17.219596       468.5690 
 345   0.0000      17.219596       468.5690 
 346   0.0000      17.599980       478.9198 
 347   0.0000      18.115177       492.9390 
 348   0.0000      18.125329       493.2153 
 349   0.0000      18.125329       493.2153 
 350   0.0000      19.099537       519.7248 
 351   0.0000      19.099546       519.7251 
 352   0.0000      19.401209       527.9337 
 353   0.0000      19.401209       527.9337 
 354   0.0000      20.587583       560.2166 
 355   0.0000      21.203922       576.9880 
 356   0.0000      21.319828       580.1420 
 357   0.0000      21.319828       580.1420 
 358   0.0000      23.819761       648.1686 
 359   0.0000      23.819761       648.1686 
 360   0.0000      24.030266       653.8968 
 361   0.0000      26.178017       712.3401 
 362   0.0000      31.876405       867.4011 
 363   0.0000      31.876449       867.4023 
 364   0.0000      31.957632       869.6114 
 365   0.0000      31.957676       869.6126 
 366   0.0000      32.136406       874.4761 
 367   0.0000      32.136406       874.4761 
 368   0.0000      33.276362       905.4958 
 369   0.0000      33.276362       905.4958 
 370   0.0000      33.422887       909.4830 
 371   0.0000      35.531282       966.8553 
 372   0.0000      41.544911      1130.4945 
 373   0.0000      74.467997      2026.3772 
 374   0.0000      76.794667      2089.6891 
 375   0.0000      91.211489      2481.9908 
 376   0.0000      91.211489      2481.9908 
 377   0.0000      92.609828      2520.0415 

                    ********************************
                    * MULLIKEN POPULATION ANALYSIS *
                    ********************************

--------------------------------------------
MULLIKEN ATOMIC CHARGES AND SPIN POPULATIONS
--------------------------------------------
   0 C :   -0.047939   -0.008247
   1 C :    0.002785    0.972883
   2 H :    0.045154    0.035364
Sum of atomic charges         :    0.0000000
Sum of atomic spin populations:    1.0000000

-----------------------------------------------------
MULLIKEN REDUCED ORBITAL CHARGES AND SPIN POPULATIONS
-----------------------------------------------------
CHARGE
  0 C s       :     3.129241  s :     3.129241
      pz      :     0.926716  p :     2.882658
      px      :     0.977971
      py      :     0.977971
      dz2     :    -0.005940  d :     0.028333
      dxz     :     0.017137
      dyz     :     0.017137
      dx2y2   :    -0.000000
      dxy     :     0.000000
      f0      :     0.003161  f :     0.007636
      f+1     :     0.002237
      f-1     :     0.002237
      f+2     :     0.000000
      f-2     :     0.000000
      f+3     :     0.000000
      f-3     :     0.000000
      g0      :     0.000372  g :     0.000239
      g+1     :    -0.000067
      g-1     :    -0.000067
      g+2     :     0.000000
      g-2     :    -0.000000
      g+3     :     0.000000
      g-3     :     0.000000
      g+4     :     0.000000
      g-4     :    -0.000000
      h0      :    -0.000025  h :    -0.000166
      h+1     :    -0.000070
      h-1     :    -0.000070
      h+2     :    -0.000000
      h-2     :    -0.000000
      h+3     :     0.000000
      h-3     :     0.000000
      h+4     :     0.000000
      h-4     :    -0.000000
      h+5     :     0.000000
      h-5     :     0.000000
  1 C s       :     3.288245  s :     3.288245
      pz      :     0.756996  p :     2.674231
      px      :     0.958617
      py      :     0.958617
      dz2     :     0.007711  d :     0.028300
      dxz     :     0.010294
      dyz     :     0.010294
      dx2y2   :    -0.000000
      dxy     :    -0.000000
      f0      :     0.001269  f :     0.005711
      f+1     :     0.002221
      f-1     :     0.002221
      f+2     :     0.000000
      f-2     :     0.000000
      f+3     :     0.000000
      f-3     :     0.000000
      g0      :     0.000252  g :     0.000759
      g+1     :     0.000253
      g-1     :     0.000253
      g+2     :    -0.000000
      g-2     :    -0.000000
      g+3     :     0.000000
      g-3     :     0.000000
      g+4     :     0.000000
      g-4     :     0.000000
      h0      :     0.000045  h :    -0.000032
      h+1     :    -0.000038
      h-1     :    -0.000038
      h+2     :    -0.000000
      h-2     :    -0.000000
      h+3     :     0.000000
      h-3     :     0.000000
      h+4     :     0.000000
      h-4     :    -0.000000
      h+5     :     0.000000
      h-5     :     0.000000
  2 H s       :     0.864117  s :     0.864117
      pz      :     0.023586  p :     0.085877
      px      :     0.031145
      py      :     0.031145
      dz2     :     0.003065  d :     0.007497
      dxz     :     0.002216
      dyz     :     0.002216
      dx2y2   :    -0.000000
      dxy     :    -0.000000
      f0      :     0.001000  f :    -0.001765
      f+1     :    -0.001383
      f-1     :    -0.001383
      f+2     :     0.000000
      f-2     :     0.000000
      f+3     :     0.000000
      f-3     :     0.000000
      g0      :     0.000189  g :    -0.000879
      g+1     :    -0.000534
      g-1     :    -0.000534
      g+2     :    -0.000000
      g-2     :    -0.000000
      g+3     :     0.000000
      g-3     :     0.000000
      g+4     :    -0.000000
      g-4     :     0.000000

SPIN
  0 C s       :     0.064155  s :     0.064155
      pz      :     0.070453  p :    -0.082243
      px      :    -0.076348
      py      :    -0.076348
      dz2     :    -0.009421  d :     0.006978
      dxz     :     0.008199
      dyz     :     0.008199
      dx2y2   :     0.000000
      dxy     :     0.000000
      f0      :     0.001691  f :     0.002986
      f+1     :     0.000647
      f-1     :     0.000647
      f+2     :     0.000000
      f-2     :    -0.000000
      f+3     :    -0.000000
      f-3     :    -0.000000
      g0      :     0.000338  g :     0.000036
      g+1     :    -0.000151
      g-1     :    -0.000151
      g+2     :     0.000000
      g-2     :     0.000000
      g+3     :    -0.000000
      g-3     :    -0.000000
      g+4     :     0.000000
      g-4     :    -0.000000
      h0      :    -0.000041  h :    -0.000159
      h+1     :    -0.000059
      h-1     :    -0.000059
      h+2     :    -0.000000
      h-2     :     0.000000
      h+3     :    -0.000000
      h-3     :    -0.000000
      h+4     :     0.000000
      h-4     :    -0.000000
      h+5     :    -0.000000
      h-5     :    -0.000000
  1 C s       :     0.336335  s :     0.336335
      pz      :     0.511965  p :     0.669335
      px      :     0.078685
      py      :     0.078685
      dz2     :    -0.003362  d :    -0.035528
      dxz     :    -0.016083
      dyz     :    -0.016083
      dx2y2   :     0.000000
      dxy     :     0.000000
      f0      :     0.000462  f :     0.002163
      f+1     :     0.000851
      f-1     :     0.000851
      f+2     :    -0.000000
      f-2     :    -0.000000
      f+3     :     0.000000
      f-3     :     0.000000
      g0      :     0.000223  g :     0.000493
      g+1     :     0.000135
      g-1     :     0.000135
      g+2     :     0.000000
      g-2     :     0.000000
      g+3     :    -0.000000
      g-3     :    -0.000000
      g+4     :     0.000000
      g-4     :     0.000000
      h0      :     0.000040  h :     0.000085
      h+1     :     0.000022
      h-1     :     0.000022
      h+2     :    -0.000000
      h-2     :     0.000000
      h+3     :    -0.000000
      h-3     :    -0.000000
      h+4     :    -0.000000
      h-4     :    -0.000000
      h+5     :     0.000000
      h-5     :     0.000000
  2 H s       :     0.030699  s :     0.030699
      pz      :    -0.004974  p :    -0.004158
      px      :     0.000408
      py      :     0.000408
      dz2     :    -0.000063  d :     0.005340
      dxz     :     0.002702
      dyz     :     0.002702
      dx2y2   :    -0.000000
      dxy     :     0.000000
      f0      :     0.001256  f :     0.003126
      f+1     :     0.000935
      f-1     :     0.000935
      f+2     :     0.000000
      f-2     :    -0.000000
      f+3     :    -0.000000
      f-3     :    -0.000000
      g0      :     0.000244  g :     0.000356
      g+1     :     0.000056
      g-1     :     0.000056
      g+2     :    -0.000000
      g-2     :     0.000000
      g+3     :    -0.000000
      g-3     :    -0.000000
      g+4     :    -0.000000
      g-4     :     0.000000


                     *******************************
                     * LOEWDIN POPULATION ANALYSIS *
                     *******************************

-------------------------------------------
LOEWDIN ATOMIC CHARGES AND SPIN POPULATIONS
-------------------------------------------
   0 C :    0.331516    0.123134
   1 C :    0.312067    0.849825
   2 H :   -0.643583    0.027041

----------------------------------------------------
LOEWDIN REDUCED ORBITAL CHARGES AND SPIN POPULATIONS
----------------------------------------------------
CHARGE
  0 C s       :     2.694174  s :     2.694174
      pz      :     1.103152  p :     2.575028
      px      :     0.735938
      py      :     0.735938
      dz2     :     0.125681  d :     0.272685
      dxz     :     0.073502
      dyz     :     0.073502
      dx2y2   :     0.000000
      dxy     :     0.000000
      f0      :     0.036531  f :     0.091274
      f+1     :     0.027372
      f-1     :     0.027372
      f+2     :     0.000000
      f-2     :     0.000000
      f+3     :     0.000000
      f-3     :     0.000000
      g0      :     0.012160  g :     0.028502
      g+1     :     0.008171
      g-1     :     0.008171
      g+2     :     0.000000
      g-2     :     0.000000
      g+3     :     0.000000
      g-3     :     0.000000
      g+4     :     0.000000
      g-4     :     0.000000
      h0      :     0.002383  h :     0.006821
      h+1     :     0.002219
      h-1     :     0.002219
      h+2     :     0.000000
      h-2     :     0.000000
      h+3     :     0.000000
      h-3     :     0.000000
      h+4     :     0.000000
      h-4     :     0.000000
      h+5     :     0.000000
      h-5     :     0.000000
  1 C s       :     2.799325  s :     2.799325
      pz      :     0.895814  p :     2.506988
      px      :     0.805587
      py      :     0.805587
      dz2     :     0.124783  d :     0.245646
      dxz     :     0.060431
      dyz     :     0.060431
      dx2y2   :     0.000000
      dxy     :     0.000000
      f0      :     0.040672  f :     0.093320
      f+1     :     0.026324
      f-1     :     0.026324
      f+2     :     0.000000
      f-2     :     0.000000
      f+3     :     0.000000
      f-3     :     0.000000
      g0      :     0.020175  g :     0.034416
      g+1     :     0.007120
      g-1     :     0.007120
      g+2     :     0.000000
      g-2     :     0.000000
      g+3     :     0.000000
      g-3     :     0.000000
      g+4     :     0.000000
      g-4     :     0.000000
      h0      :     0.006502  h :     0.008240
      h+1     :     0.000869
      h-1     :     0.000869
      h+2     :     0.000000
      h-2     :     0.000000
      h+3     :     0.000000
      h-3     :     0.000000
      h+4     :     0.000000
      h-4     :     0.000000
      h+5     :     0.000000
      h-5     :     0.000000
  2 H s       :     0.769199  s :     0.769199
      pz      :     0.191991  p :     0.380867
      px      :     0.094438
      py      :     0.094438
      dz2     :     0.098405  d :     0.280838
      dxz     :     0.091217
      dyz     :     0.091217
      dx2y2   :     0.000000
      dxy     :     0.000000
      f0      :     0.053185  f :     0.139044
      f+1     :     0.042930
      f-1     :     0.042930
      f+2     :     0.000000
      f-2     :     0.000000
      f+3     :     0.000000
      f-3     :     0.000000
      g0      :     0.025869  g :     0.073635
      g+1     :     0.023883
      g-1     :     0.023883
      g+2     :     0.000000
      g-2     :     0.000000
      g+3     :     0.000000
      g-3     :     0.000000
      g+4     :     0.000000
      g-4     :     0.000000

SPIN
  0 C s       :     0.030004  s :     0.030004
      pz      :     0.077023  p :    -0.031720
      px      :    -0.054371
      py      :    -0.054371
      dz2     :     0.071172  d :     0.093479
      dxz     :     0.011153
      dyz     :     0.011153
      dx2y2   :     0.000000
      dxy     :    -0.000000
      f0      :     0.011654  f :     0.021770
      f+1     :     0.005058
      f-1     :     0.005058
      f+2     :     0.000000
      f-2     :    -0.000000
      f+3     :    -0.000000
      f-3     :    -0.000000
      g0      :     0.004693  g :     0.007339
      g+1     :     0.001323
      g-1     :     0.001323
      g+2     :     0.000000
      g-2     :    -0.000000
      g+3     :    -0.000000
      g-3     :    -0.000000
      g+4     :     0.000000
      g-4     :     0.000000
      h0      :     0.001434  h :     0.002262
      h+1     :     0.000414
      h-1     :     0.000414
      h+2     :     0.000000
      h-2     :     0.000000
      h+3     :    -0.000000
      h-3     :    -0.000000
      h+4     :     0.000000
      h-4     :    -0.000000
      h+5     :    -0.000000
      h-5     :    -0.000000
  1 C s       :     0.211090  s :     0.211090
      pz      :     0.535765  p :     0.677082
      px      :     0.070659
      py      :     0.070659
      dz2     :     0.001046  d :    -0.033145
      dxz     :    -0.017096
      dyz     :    -0.017096
      dx2y2   :     0.000000
      dxy     :     0.000000
      f0      :     0.000720  f :    -0.004064
      f+1     :    -0.002392
      f-1     :    -0.002392
      f+2     :    -0.000000
      f-2     :    -0.000000
      f+3     :     0.000000
      f-3     :     0.000000
      g0      :     0.000222  g :    -0.001126
      g+1     :    -0.000674
      g-1     :    -0.000674
      g+2     :     0.000000
      g-2     :     0.000000
      g+3     :    -0.000000
      g-3     :    -0.000000
      g+4     :     0.000000
      g-4     :     0.000000
      h0      :     0.000169  h :    -0.000013
      h+1     :    -0.000091
      h-1     :    -0.000091
      h+2     :     0.000000
      h-2     :     0.000000
      h+3     :    -0.000000
      h-3     :    -0.000000
      h+4     :    -0.000000
      h-4     :     0.000000
      h+5     :     0.000000
      h-5     :     0.000000
  2 H s       :     0.017301  s :     0.017301
      pz      :     0.005141  p :    -0.015381
      px      :    -0.010261
      py      :    -0.010261
      dz2     :     0.011090  d :    -0.001751
      dxz     :    -0.006421
      dyz     :    -0.006421
      dx2y2   :     0.000000
      dxy     :    -0.000000
      f0      :     0.011095  f :     0.011897
      f+1     :     0.000401
      f-1     :     0.000401
      f+2     :     0.000000
      f-2     :    -0.000000
      f+3     :    -0.000000
      f-3     :    -0.000000
      g0      :     0.010379  g :     0.014975
      g+1     :     0.002298
      g-1     :     0.002298
      g+2     :     0.000000
      g-2     :     0.000000
      g+3     :    -0.000000
      g-3     :    -0.000000
      g+4     :    -0.000000
      g-4     :     0.000000


                      *****************************
                      * MAYER POPULATION ANALYSIS *
                      *****************************

  NA   - Mulliken gross atomic population
  ZA   - Total nuclear charge
  QA   - Mulliken gross atomic charge
  VA   - Mayer's total valence
  BVA  - Mayer's bonded valence
  FA   - Mayer's free valence

  ATOM       NA         ZA         QA         VA         BVA        FA
  0 C      6.0479     6.0000    -0.0479     3.8921     3.8774     0.0147
  1 C      5.9972     6.0000     0.0028     3.9064     2.9758     0.9306
  2 H      0.9548     1.0000     0.0452     1.1557     1.1539     0.0018

  Mayer bond orders larger than 0.1
B(  0-C ,  1-C ) :   2.8496 B(  0-C ,  2-H ) :   1.0278 B(  1-C ,  2-H ) :   0.1261 


-------
TIMINGS
-------

Total SCF time: 0 days 0 hours 14 min 18 sec 

Total time                  ....     858.116 sec
Sum of individual times     ....     857.265 sec  ( 99.9%)

Fock matrix formation       ....     853.124 sec  ( 99.4%)
  XC integration            ....      15.903 sec  (  1.9% of F)
    Basis function eval.    ....       0.982 sec  (  6.2% of XC)
    Density eval.           ....       3.324 sec  ( 20.9% of XC)
    XC-Functional eval.     ....       0.133 sec  (  0.8% of XC)
    XC-Potential eval.      ....      10.945 sec  ( 68.8% of XC)
Diagonalization             ....       1.419 sec  (  0.2%)
Density matrix formation    ....       0.024 sec  (  0.0%)
Population analysis         ....       0.133 sec  (  0.0%)
Initial guess               ....       1.482 sec  (  0.2%)
Orbital Transformation      ....       0.000 sec  (  0.0%)
Orbital Orthonormalization  ....       0.000 sec  (  0.0%)
DIIS solution               ....       0.760 sec  (  0.1%)
Grid generation             ....       0.323 sec  (  0.0%)

-------------------------   --------------------
FINAL SINGLE POINT ENERGY       -76.538747362018
-------------------------   --------------------


                            ***************************************
                            *     ORCA property calculations      *
                            ***************************************

                                    ---------------------
                                    Active property flags
                                    ---------------------
   (+) Dipole Moment
   (+) Polarizability


------------------------------------------------------------------------------
                       ORCA ELECTRIC PROPERTIES CALCULATION
------------------------------------------------------------------------------

Dipole Moment Calculation                       ... on
Quadrupole Moment Calculation                   ... off
Polarizability Calculation                      ... Analytic (CP-SCF)
GBWName                                         ... c2h_pbe.gbw
Electron density file                           ... c2h_pbe.scfp.tmp
The origin for moment calculation is the CENTER OF MASS  = ( 0.000000,  0.000000 -1.023495)

-------------
DIPOLE MOMENT
-------------
                                X             Y             Z
Electronic contribution:      0.00000       0.00000      -1.18993
Nuclear contribution   :      0.00000       0.00000       1.48993
                        -----------------------------------------
Total Dipole Moment    :      0.00000       0.00000       0.30000
                        -----------------------------------------
Magnitude (a.u.)       :      0.30000
Magnitude (Debye)      :      0.76254



--------------------
Rotational spectrum 
--------------------
 
Rotational constants in cm-1:     0.000000     1.461267     1.461267 
Rotational constants in MHz :     0.000000 43807.678146 43807.678146 

 Dipole components along the rotational axes: 
x,y,z [a.u.] :     0.299999     0.000000     0.000000 
x,y,z [Debye]:     0.762536     0.000000     0.000000 

 
Transforming and storing MO dipole integrals   ... done

                ... starting polarizability calculation

Opening the Dipole integral file               ... (c2h_pbe.dmo.tmp) done
Reading Dipole-MO integrals                    ... done
Solving CP-SCF equations                       ... 

           ************************************************************
           *        Program running with 4 parallel MPI-processes     *
           *              working on a common directory               *
           ************************************************************

------------------------------------------------------------------------------
                           ORCA CP-SCF CALCULATION
------------------------------------------------------------------------------

Input orbitals are from        ... c2h_pbe.gbw
Input Perturbation             ... c2h_pbe.cpv.tmp
Wavefunction output            ... c2h_pbe.cpu.tmp
Perturbation mode              ... Real perturbation (singlet)
Solver                         ... POPLE
Max. number of iterations      ... 200
Convergence tolerance          ... 1.000e-06
Integral handling              ... Direct
Number of perturbations        ... 3
Number of operators            ... 2
Orbital ranges used for CP-SCF:
 Operator 0:  Orbitals   0...  6  to   7...377
 Operator 1:  Orbitals   0...  5  to   6...377
DFT calculation                         ... on
Exchange functional (SCF)               ... PBE
Exchange functional (CP-SCF)            ... PBE
   PBE kappa parameter  XKappa (SCF)    ...  0.804000
   PBE kappa parameter  XKappa (CP-SCF) ...  0.804000
   PBE mue parameter   XMuePBE (SCF)    ...  0.219520
   PBE mue parameter   XMuePBE (CP-SCF) ...  0.219520
Correlation functional (SCF)            ... PBE
Correlation functional (CP-SCF)         ... PBE
   PBE beta parameter CBetaPBE (SCF)    ...  0.066725
   PBE beta parameter CBetaPBE (CP-SCF) ...  0.066725
 LDA part of GGA corr.  LDAOpt (SCF)    ... PW91-LDA
 LDA part of GGA corr.  LDAOpt (CP-SCF) ... PW91-LDA
Variables per vector in CP-SCF ... 4829
Number of vectors sought       ... 3
Recalculating density on grid  ... done
Calculating the xc-kernel      ... done
     CP-SCF ITERATION   0: 
     CP-SCF ITERATION   1:      8.718419451407
     CP-SCF ITERATION   2:      0.129403746264
     CP-SCF ITERATION   3:      0.005089464143
     CP-SCF ITERATION   4:      0.000366412377
     CP-SCF ITERATION   5:      0.000005007669
     CP-SCF ITERATION   6:      0.000000367997
done
Reading CP-SCF coefficients                    ... done
Doing the polarizability tensor   ... done
Cleaning up                                    ... done

-------------------------
THE POLARIZABILITY TENSOR
-------------------------

The raw cartesian tensor (atomic units):
   25.94443     -0.00000     -0.00000  
   -0.00000     25.94443      0.00000  
   -0.00000      0.00000     27.91910  
diagonalized tensor: 
   25.94443     25.94443     27.91910  

    0.64508      0.76412     -0.00000  
    0.76412     -0.64508      0.00000  
    0.00000      0.00000      1.00000  

Isotropic polarizability :  26.60265


Timings for individual modules:

Sum of individual times         ...     1491.351 sec (=  24.856 min)
GTO integral calculation        ...        8.519 sec (=   0.142 min)   0.6 %
SCF iterations                  ...      865.220 sec (=  14.420 min)  58.0 %
Solution of CP-SCF eqns.        ...      617.612 sec (=  10.294 min)  41.4 %
                             ****ORCA TERMINATED NORMALLY****
TOTAL RUN TIME: 0 days 0 hours 24 minutes 58 seconds 161 msec
