
                                 *****************
                                 * O   R   C   A *
                                 *****************

           --- An Ab Initio, DFT and Semiempirical electronic structure package ---

                  #######################################################
                  #                        -***-                        #
                  #          Department of theory and spectroscopy      #
                  #               Directorship: Frank Neese             #
                  #        Max Planck Institute fuer Kohlenforschung    #
                  #                Kaiser Wilhelm Platz 1               #
                  #                 D-45470 Muelheim/Ruhr               #
                  #                      Germany                        #
                  #                                                     #
                  #                  All rights reserved                #
                  #                        -***-                        #
                  #######################################################


                         Program Version 4.1.2  - RELEASE  -


 With contributions from (in alphabetic order):
   Daniel Aravena         : Magnetic Properties
   Michael Atanasov       : Ab Initio Ligand Field Theory
   Alexander A. Auer      : GIAO ZORA
   Ute Becker             : Parallelization
   Giovanni Bistoni       : ED, Open-shell LED
   Martin Brehm           : Molecular dynamics
   Dmytro Bykov           : SCF Hessian
   Vijay G. Chilkuri      : MRCI spin determinant printing
   Dipayan Datta          : RHF DLPNO-CCSD density
   Achintya Kumar Dutta   : EOM-CC, STEOM-CC
   Dmitry Ganyushin       : Spin-Orbit,Spin-Spin,Magnetic field MRCI
   Miquel Garcia          : C-PCM Hessian
   Yang Guo               : DLPNO-NEVPT2, CIM, IAO-localization
   Andreas Hansen         : Spin unrestricted coupled pair/coupled cluster methods
   Benjamin Helmich-Paris : CASSCF linear response (MC-RPA)
   Lee Huntington         : MR-EOM, pCC
   Robert Izsak           : Overlap fitted RIJCOSX, COSX-SCS-MP3, EOM
   Christian Kollmar      : KDIIS, OOCD, Brueckner-CCSD(T), CCSD density
   Simone Kossmann        : Meta GGA functionals, TD-DFT gradient, OOMP2, MP2 Hessian
   Martin Krupicka        : AUTO-CI
   Lucas Lang             : DCDCAS
   Dagmar Lenk            : GEPOL surface, SMD
   Dimitrios Liakos       : Extrapolation schemes; parallel MDCI
   Dimitrios Manganas     : ROCIS; embedding schemes
   Dimitrios Pantazis     : SARC Basis sets
   Taras Petrenko         : DFT Hessian,TD-DFT gradient, ASA, ECA, R-Raman, ABS, FL, XAS/XES, NRVS
   Peter Pinski           : DLPNO-MP2, DLPNO-MP2 Gradient
   Christoph Reimann      : Effective Core Potentials
   Marius Retegan         : Local ZFS, SOC
   Christoph Riplinger    : Optimizer, TS searches, QM/MM, DLPNO-CCSD(T), (RO)-DLPNO pert. Triples
   Tobias Risthaus        : Range-separated hybrids, TD-DFT gradient, RPA, STAB
   Michael Roemelt        : Restricted open shell CIS
   Masaaki Saitow         : Open-shell DLPNO
   Barbara Sandhoefer     : DKH picture change effects
   Avijit Sen             : IP-ROCIS
   Kantharuban Sivalingam : CASSCF convergence, NEVPT2, FIC-MRCI
   Bernardo de Souza      : ESD, SOC TD-DFT
   Georgi Stoychev        : AutoAux, RI-MP2 NMR
   Willem Van den Heuvel  : Paramagnetic NMR
   Boris Wezisla          : Elementary symmetry handling
   Frank Wennmohs         : Technical directorship


 We gratefully acknowledge several colleagues who have allowed us to
 interface, adapt or use parts of their codes:
   Stefan Grimme, W. Hujo, H. Kruse,             : VdW corrections, initial TS optimization,
                  C. Bannwarth                     DFT functionals, gCP, sTDA/sTD-DF
   Ed Valeev                                     : LibInt (2-el integral package), F12 methods
   Garnet Chan, S. Sharma, J. Yang, R. Olivares  : DMRG
   Ulf Ekstrom                                   : XCFun DFT Library
   Mihaly Kallay                                 : mrcc  (arbitrary order and MRCC methods)
   Andreas Klamt, Michael Diedenhofen            : otool_cosmo (COSMO solvation model)
   Jiri Pittner, Ondrej Demel                    : Mk-CCSD
   Frank Weinhold                                : gennbo (NPA and NBO analysis)
   Christopher J. Cramer and Donald G. Truhlar   : smd solvation model
   Lars Goerigk                                  : TD-DFT with DH, B97 family of functionals
   V. Asgeirsson, H. Jonsson                     : NEB implementation
   FAccTs GmbH                                   : IRC, NEB, NEB-TS, Multilevel


 Your calculation uses the libint2 library for the computation of 2-el integrals
 For citations please refer to: http://libint.valeyev.net

 This ORCA versions uses:
   CBLAS   interface :  Fast vector & matrix operations
   LAPACKE interface :  Fast linear algebra routines
   SCALAPACK package :  Parallel linear algebra routines


----- Orbital basis set information -----
Your calculation utilizes the basis: aug-pc-4
   H, C-F              : F. Jensen, J. Chem. Phys. 115, 9113 (2001).
                         F. Jensen, J. Chem. Phys. 116, 7372 (2002).
                         F. Jensen, J. Chem. Phys. 117, 9234 (2002).
   Si-Cl               : F. Jensen, T. Helgaker, J. Chem. Phys. 121, 3463 (2004).
   He-B, Ne-Mg, Al, Ar : F. Jensen, J. Phys. Chem. A 111, 11198 (2007).
   K, Ca, Ga-Kr        : F. Jensen, J. Chem. Phys. 136, 094110 (2012).
   Sc-Zn               : F. Jensen, J. Chem. Phys. 138, 014107 (2013).

================================================================================
                                        WARNINGS
                       Please study these warnings very carefully!
================================================================================


INFO   : the flag for use of LIBINT has been found!

================================================================================
                                       INPUT FILE
================================================================================
NAME = ch2bh_pbe.inp
|  1> !uks pbe nori aug-pc-4 grid5 nofinalgrid verytightscf
|  2> 
|  3> %maxcore 1500
|  4> 
|  5> %pal nprocs 4 end
|  6> 
|  7> %scf
|  8> 	maxiter 200
|  9> end
| 10> %elprop
| 11> 	dipole true
| 12> 	 polar 1
| 13> 	 maxiter 200
| 14> end
| 15> 
| 16> * xyz 0 1
| 17> C 0.0000000000 0.0000000000 0.5940000000
| 18> B 0.0000000000 0.0000000000 -0.7886000000
| 19> H 0.0000000000 0.9173000000 1.1687000000
| 20> H 0.0000000000 -0.9173000000 1.1687000000
| 21> H 0.0000000000 0.0000000000 -1.9586000000
| 22> *
| 23> 
| 24>                          ****END OF INPUT****
================================================================================

                       ****************************
                       * Single Point Calculation *
                       ****************************

---------------------------------
CARTESIAN COORDINATES (ANGSTROEM)
---------------------------------
  C      0.000000    0.000000    0.594000
  B      0.000000    0.000000   -0.788600
  H      0.000000    0.917300    1.168700
  H      0.000000   -0.917300    1.168700
  H      0.000000    0.000000   -1.958600

----------------------------
CARTESIAN COORDINATES (A.U.)
----------------------------
  NO LB      ZA    FRAG     MASS         X           Y           Z
   0 C     6.0000    0    12.011    0.000000    0.000000    1.122497
   1 B     5.0000    0    10.810    0.000000    0.000000   -1.490238
   2 H     1.0000    0     1.008    0.000000    1.733446    2.208523
   3 H     1.0000    0     1.008    0.000000   -1.733446    2.208523
   4 H     1.0000    0     1.008    0.000000    0.000000   -3.701218

--------------------------------
INTERNAL COORDINATES (ANGSTROEM)
--------------------------------
 C      0   0   0     0.000000000000     0.00000000     0.00000000
 B      1   0   0     1.382600000000     0.00000000     0.00000000
 H      1   2   0     1.082459874545   122.06766181     0.00000000
 H      1   2   3     1.082459874545   122.06766181   180.00000000
 H      2   1   3     1.170000000000   180.00000000     0.00000000

---------------------------
INTERNAL COORDINATES (A.U.)
---------------------------
 C      0   0   0     0.000000000000     0.00000000     0.00000000
 B      1   0   0     2.612735352760     0.00000000     0.00000000
 H      1   2   0     2.045552713849   122.06766181     0.00000000
 H      1   2   3     2.045552713849   122.06766181   180.00000000
 H      2   1   3     2.210979576688   180.00000000     0.00000000

---------------------
BASIS SET INFORMATION
---------------------
There are 3 groups of distinct atoms

 Group   1 Type C   : 28s12p7d4f3g2h contracted to 9s8p7d4f3g2h pattern {11101111111/51111111/1111111/1111/111/11}
 Group   2 Type B   : 27s12p7d4f3g2h contracted to 9s8p7d4f3g2h pattern {1191111111/51111111/1111111/1111/111/11}
 Group   3 Type H   : 12s7p4d3f2g contracted to 8s7p4d3f2g pattern {51111111/1111111/1111/111/11}

Atom   0C    basis set group =>   1
Atom   1B    basis set group =>   2
Atom   2H    basis set group =>   3
Atom   3H    basis set group =>   3
Atom   4H    basis set group =>   3


           ************************************************************
           *        Program running with 4 parallel MPI-processes     *
           *              working on a common directory               *
           ************************************************************
------------------------------------------------------------------------------
                           ORCA GTO INTEGRAL CALCULATION
------------------------------------------------------------------------------

                         BASIS SET STATISTICS AND STARTUP INFO

 # of primitive gaussian shells          ...  195
 # of primitive gaussian functions       ...  627
 # of contracted shells                  ...  138
 # of contracted basis functions         ...  554
 Highest angular momentum                ...    5
 Maximum contraction depth               ...   11
 Integral package used                   ... LIBINT
 Integral threshhold            Thresh   ...  1.000e-12
 Primitive cut-off              TCut     ...  1.000e-14


------------------------------ INTEGRAL EVALUATION ----------------------------


 * One electron integrals 
 Pre-screening matrix                    ... done
 Shell pair data                         ... done (   0.003 sec)



           ************************************************************
           *        Program running with 4 parallel MPI-processes     *
           *              working on a common directory               *
           ************************************************************
-------------------------------------------------------------------------------
                                 ORCA SCF
-------------------------------------------------------------------------------

------------
SCF SETTINGS
------------
Hamiltonian:
 Density Functional     Method          .... DFT(GTOs)
 Exchange Functional    Exchange        .... PBE
   PBE kappa parameter   XKappa         ....  0.804000
   PBE mue parameter    XMuePBE         ....  0.219520
 Correlation Functional Correlation     .... PBE
   PBE beta parameter  CBetaPBE         ....  0.066725
 LDA part of GGA corr.  LDAOpt          .... PW91-LDA
 Gradients option       PostSCFGGA      .... off
   Density functional embedding theory  .... OFF
   NL short-range parameter             ....  6.400000


General Settings:
 Integral files         IntName         .... ch2bh_pbe
 Hartree-Fock type      HFTyp           .... UHF
 Total Charge           Charge          ....    0
 Multiplicity           Mult            ....    1
 Number of Electrons    NEL             ....   14
 Basis Dimension        Dim             ....  554
 Nuclear Repulsion      ENuc            ....     23.9151801510 Eh

Convergence Acceleration:
 DIIS                   CNVDIIS         .... on
   Start iteration      DIISMaxIt       ....    12
   Startup error        DIISStart       ....  0.200000
   # of expansion vecs  DIISMaxEq       ....     5
   Bias factor          DIISBfac        ....   1.050
   Max. coefficient     DIISMaxC        ....  10.000
 Newton-Raphson         CNVNR           .... off
 SOSCF                  CNVSOSCF        .... off
 Level Shifting         CNVShift        .... on
   Level shift para.    LevelShift      ....    0.2500
   Turn off err/grad.   ShiftErr        ....    0.0010
 Zerner damping         CNVZerner       .... off
 Static damping         CNVDamp         .... on
   Fraction old density DampFac         ....    0.7000
   Max. Damping (<1)    DampMax         ....    0.9800
   Min. Damping (>=0)   DampMin         ....    0.0000
   Turn off err/grad.   DampErr         ....    0.1000
 Fernandez-Rico         CNVRico         .... off

SCF Procedure:
 Maximum # iterations   MaxIter         ....   200
 SCF integral mode      SCFMode         .... Direct
   Integral package                     .... LIBINT
 Reset frequency        DirectResetFreq ....    20
 Integral Threshold     Thresh          ....  1.000e-12 Eh
 Primitive CutOff       TCut            ....  1.000e-14 Eh

Convergence Tolerance:
 Convergence Check Mode ConvCheckMode   .... Total+1el-Energy
 Convergence forced     ConvForced      .... 0
 Energy Change          TolE            ....  1.000e-09 Eh
 1-El. energy change                    ....  1.000e-06 Eh
 DIIS Error             TolErr          ....  1.000e-08


Diagonalization of the overlap matrix:
Smallest eigenvalue                        ... 2.730e-08
Time for diagonalization                   ...    0.161 sec
Threshold for overlap eigenvalues          ... 1.000e-08
Number of eigenvalues below threshold      ... 0
Time for construction of square roots      ...    0.079 sec
Total time needed                          ...    0.241 sec

-------------------
DFT GRID GENERATION
-------------------

General Integration Accuracy     IntAcc      ...  5.010
Radial Grid Type                 RadialGrid  ... Gauss-Chebyshev
Angular Grid (max. acc.)         AngularGrid ... Lebedev-434
Angular grid pruning method      GridPruning ... 3 (G Style)
Weight generation scheme         WeightScheme... Becke
Basis function cutoff            BFCut       ...    1.0000e-12
Integration weight cutoff        WCut        ...    1.0000e-14
Grids for H and He will be reduced by one unit

# of grid points (after initial pruning)     ...  41364 (   0.0 sec)
# of grid points (after weights+screening)   ...  40290 (   0.0 sec)
nearest neighbour list constructed           ...    0.0 sec
Grid point re-assignment to atoms done       ...    0.0 sec
Grid point division into batches done        ...    0.3 sec
Reduced shell lists constructed in    0.5 sec

Total number of grid points                  ...    40290
Total number of batches                      ...      631
Average number of points per batch           ...       63
Average number of grid points per atom       ...     8058
Average number of shells per batch           ...   116.63 (84.51%)
Average number of basis functions per batch  ...   481.23 (86.87%)
Average number of large shells per batch     ...   107.23 (91.94%)
Average number of large basis fcns per batch ...   447.57 (93.01%)
Maximum spatial batch extension              ...  19.80,  9.66,  3.11 au
Average spatial batch extension              ...   0.46,  0.38,  0.29 au

Time for grid setup =    0.562 sec

------------------------------
INITIAL GUESS: MODEL POTENTIAL
------------------------------
Loading Hartree-Fock densities                     ... done
Calculating cut-offs                               ... done
Setting up the integral package                    ... done
Initializing the effective Hamiltonian             ... done
Starting the Coulomb interaction                   ... done (   0.1 sec)
Reading the grid                                   ... done
Mapping shells                                     ... done
Starting the XC term evaluation                    ... done (   1.5 sec)
  promolecular density results
     # of electrons  =     13.998528568
     EX              =     -9.709646164
     EC              =     -0.403745823
     EX+EC           =    -10.113391988
Transforming the Hamiltonian                       ... done (   0.0 sec)
Diagonalizing the Hamiltonian                      ... done (   0.1 sec)
Back transforming the eigenvectors                 ... done (   0.0 sec)
Now organizing SCF variables                       ... done
                      ------------------
                      INITIAL GUESS DONE (   2.4 sec)
                      ------------------
--------------
SCF ITERATIONS
--------------
ITER       Energy         Delta-E        Max-DP      RMS-DP      [F,P]     Damp
               ***  Starting incremental Fock matrix formation  ***
  0    -64.4796927989   0.000000000000 0.04282767  0.00029450  0.2831262 0.7000
  1    -64.5473841018  -0.067691302891 0.01251199  0.00014945  0.1175923 0.7000
                               ***Turning on DIIS***
  2    -64.5667020917  -0.019317989903 0.02915680  0.00021529  0.0293546 0.0000
  3    -64.5940040180  -0.027301926296 0.01131600  0.00011579  0.0939899 0.0000
  4    -64.6062094314  -0.012205413389 0.00841188  0.00006037  0.0182056 0.0000
  5    -64.6073383981  -0.001128966715 0.00189767  0.00001661  0.0069122 0.0000
  6    -64.6074423343  -0.000103936168 0.00084554  0.00000803  0.0027583 0.0000
  7    -64.6074571159  -0.000014781634 0.00029213  0.00000317  0.0012129 0.0000
  8    -64.6074600248  -0.000002908848 0.00017571  0.00000182  0.0006276 0.0000
  9    -64.6074609756  -0.000000950840 0.00002736  0.00000029  0.0001585 0.0000
 10    -64.6074609812  -0.000000005646 0.00004747  0.00000027  0.0001407 0.0000
 11    -64.6074610093  -0.000000028067 0.00008235  0.00000045  0.0000059 0.0000
 12    -64.6074610094  -0.000000000060 0.00014331  0.00000084  0.0000024 0.0000
 13    -64.6074610094  -0.000000000010 0.00030462  0.00000163  0.0000003 0.0000
                 **** Energy Check signals convergence ****

               *****************************************************
               *                     SUCCESS                       *
               *           SCF CONVERGED AFTER  14 CYCLES          *
               *****************************************************


----------------
TOTAL SCF ENERGY
----------------

Total Energy       :          -64.60746101 Eh           -1758.05839 eV

Components:
Nuclear Repulsion  :           23.91518015 Eh             650.76514 eV
Electronic Energy  :          -88.52264116 Eh           -2408.82353 eV
One Electron Energy:         -132.84505281 Eh           -3614.89766 eV
Two Electron Energy:           44.32241165 Eh            1206.07414 eV

Virial components:
Potential Energy   :         -128.91588085 Eh           -3507.97946 eV
Kinetic Energy     :           64.30841984 Eh            1749.92107 eV
Virial Ratio       :            2.00465011


DFT components:
N(Alpha)           :        6.999999208764 electrons
N(Beta)            :        6.999999208764 electrons
N(Total)           :       13.999998417528 electrons
E(X)               :      -10.013129677144 Eh       
E(C)               :       -0.411132454432 Eh       
E(XC)              :      -10.424262131577 Eh       
DFET-embed. en.    :        0.000000000000 Eh       

---------------
SCF CONVERGENCE
---------------

  Last Energy change         ...    4.2633e-13  Tolerance :   1.0000e-09
  Last MAX-Density change    ...    2.6044e-04  Tolerance :   1.0000e-08
  Last RMS-Density change    ...    1.5148e-06  Tolerance :   1.0000e-09
  Last DIIS Error            ...    8.3896e-08  Tolerance :   1.0000e-08

             **** THE GBW FILE WAS UPDATED (ch2bh_pbe.gbw) ****
             **** DENSITY FILE WAS UPDATED (ch2bh_pbe.scfp.tmp) ****
             **** ENERGY FILE WAS UPDATED (ch2bh_pbe.en.tmp) ****
----------------------
UHF SPIN CONTAMINATION
----------------------

Warning: in a DFT calculation there is little theoretical justification to 
         calculate <S**2> as in Hartree-Fock theory. We will do it anyways
         but you should keep in mind that the values have only limited relevance

Expectation value of <S**2>     :     0.000000
Ideal value S*(S+1) for S=0.0   :     0.000000
Deviation                       :     0.000000

----------------
ORBITAL ENERGIES
----------------
                 SPIN UP ORBITALS
  NO   OCC          E(Eh)            E(eV) 
   0   1.0000      -9.858450      -268.2621 
   1   1.0000      -6.529327      -177.6720 
   2   1.0000      -0.612400       -16.6642 
   3   1.0000      -0.426865       -11.6156 
   4   1.0000      -0.377102       -10.2615 
   5   1.0000      -0.351873        -9.5749 
   6   1.0000      -0.208208        -5.6656 
   7   0.0000      -0.092877        -2.5273 
   8   0.0000      -0.018605        -0.5063 
   9   0.0000      -0.011239        -0.3058 
  10   0.0000       0.003903         0.1062 
  11   0.0000       0.009270         0.2522 
  12   0.0000       0.012923         0.3516 
  13   0.0000       0.025646         0.6979 
  14   0.0000       0.028575         0.7776 
  15   0.0000       0.029277         0.7967 
  16   0.0000       0.036422         0.9911 
  17   0.0000       0.038126         1.0375 
  18   0.0000       0.042729         1.1627 
  19   0.0000       0.045193         1.2298 
  20   0.0000       0.048951         1.3320 
  21   0.0000       0.055578         1.5123 
  22   0.0000       0.061510         1.6738 
  23   0.0000       0.065778         1.7899 
  24   0.0000       0.071781         1.9533 
  25   0.0000       0.079523         2.1639 
  26   0.0000       0.083251         2.2654 
  27   0.0000       0.084973         2.3122 
  28   0.0000       0.090717         2.4685 
  29   0.0000       0.105829         2.8798 
  30   0.0000       0.106919         2.9094 
  31   0.0000       0.108981         2.9655 
  32   0.0000       0.112676         3.0661 
  33   0.0000       0.117706         3.2030 
  34   0.0000       0.120822         3.2877 
  35   0.0000       0.124094         3.3768 
  36   0.0000       0.126534         3.4432 
  37   0.0000       0.132677         3.6103 
  38   0.0000       0.140777         3.8307 
  39   0.0000       0.145323         3.9544 
  40   0.0000       0.149441         4.0665 
  41   0.0000       0.151257         4.1159 
  42   0.0000       0.153682         4.1819 
  43   0.0000       0.154130         4.1941 
  44   0.0000       0.156769         4.2659 
  45   0.0000       0.157086         4.2745 
  46   0.0000       0.157132         4.2758 
  47   0.0000       0.161035         4.3820 
  48   0.0000       0.167941         4.5699 
  49   0.0000       0.175509         4.7758 
  50   0.0000       0.177724         4.8361 
  51   0.0000       0.188821         5.1381 
  52   0.0000       0.202735         5.5167 
  53   0.0000       0.206920         5.6306 
  54   0.0000       0.210807         5.7364 
  55   0.0000       0.211305         5.7499 
  56   0.0000       0.223080         6.0703 
  57   0.0000       0.223756         6.0887 
  58   0.0000       0.232361         6.3229 
  59   0.0000       0.234914         6.3923 
  60   0.0000       0.236536         6.4365 
  61   0.0000       0.237341         6.4584 
  62   0.0000       0.247474         6.7341 
  63   0.0000       0.249120         6.7789 
  64   0.0000       0.256879         6.9900 
  65   0.0000       0.263117         7.1598 
  66   0.0000       0.265002         7.2111 
  67   0.0000       0.268268         7.3000 
  68   0.0000       0.268610         7.3093 
  69   0.0000       0.268975         7.3192 
  70   0.0000       0.274212         7.4617 
  71   0.0000       0.284675         7.7464 
  72   0.0000       0.284821         7.7504 
  73   0.0000       0.287266         7.8169 
  74   0.0000       0.293380         7.9833 
  75   0.0000       0.307339         8.3631 
  76   0.0000       0.313447         8.5293 
  77   0.0000       0.314533         8.5589 
  78   0.0000       0.318124         8.6566 
  79   0.0000       0.322242         8.7687 
  80   0.0000       0.322394         8.7728 
  81   0.0000       0.327947         8.9239 
  82   0.0000       0.333908         9.0861 
  83   0.0000       0.335328         9.1247 
  84   0.0000       0.335618         9.1326 
  85   0.0000       0.340486         9.2651 
  86   0.0000       0.341628         9.2962 
  87   0.0000       0.348831         9.4922 
  88   0.0000       0.349653         9.5145 
  89   0.0000       0.353417         9.6170 
  90   0.0000       0.356535         9.7018 
  91   0.0000       0.362630         9.8677 
  92   0.0000       0.363546         9.8926 
  93   0.0000       0.373915        10.1747 
  94   0.0000       0.376204        10.2370 
  95   0.0000       0.381731        10.3874 
  96   0.0000       0.383060        10.4236 
  97   0.0000       0.386001        10.5036 
  98   0.0000       0.394869        10.7449 
  99   0.0000       0.401725        10.9315 
 100   0.0000       0.406894        11.0722 
 101   0.0000       0.422767        11.5041 
 102   0.0000       0.423348        11.5199 
 103   0.0000       0.427223        11.6253 
 104   0.0000       0.431486        11.7413 
 105   0.0000       0.433964        11.8088 
 106   0.0000       0.451449        12.2845 
 107   0.0000       0.460283        12.5249 
 108   0.0000       0.465386        12.6638 
 109   0.0000       0.465865        12.6768 
 110   0.0000       0.477358        12.9896 
 111   0.0000       0.484131        13.1739 
 112   0.0000       0.485223        13.2036 
 113   0.0000       0.490162        13.3380 
 114   0.0000       0.498021        13.5518 
 115   0.0000       0.504146        13.7185 
 116   0.0000       0.509908        13.8753 
 117   0.0000       0.512679        13.9507 
 118   0.0000       0.512942        13.9579 
 119   0.0000       0.516918        14.0661 
 120   0.0000       0.520614        14.1666 
 121   0.0000       0.522324        14.2132 
 122   0.0000       0.530065        14.4238 
 123   0.0000       0.533948        14.5295 
 124   0.0000       0.542555        14.7637 
 125   0.0000       0.548280        14.9195 
 126   0.0000       0.556514        15.1435 
 127   0.0000       0.558107        15.1869 
 128   0.0000       0.566777        15.4228 
 129   0.0000       0.573793        15.6137 
 130   0.0000       0.575888        15.6707 
 131   0.0000       0.580724        15.8023 
 132   0.0000       0.586589        15.9619 
 133   0.0000       0.598683        16.2910 
 134   0.0000       0.604690        16.4545 
 135   0.0000       0.605535        16.4774 
 136   0.0000       0.612165        16.6579 
 137   0.0000       0.615471        16.7478 
 138   0.0000       0.624334        16.9890 
 139   0.0000       0.630620        17.1600 
 140   0.0000       0.634282        17.2597 
 141   0.0000       0.638725        17.3806 
 142   0.0000       0.655117        17.8267 
 143   0.0000       0.656371        17.8608 
 144   0.0000       0.657270        17.8852 
 145   0.0000       0.663983        18.0679 
 146   0.0000       0.664001        18.0684 
 147   0.0000       0.664505        18.0821 
 148   0.0000       0.675256        18.3746 
 149   0.0000       0.684540        18.6273 
 150   0.0000       0.687641        18.7117 
 151   0.0000       0.702412        19.1136 
 152   0.0000       0.711494        19.3607 
 153   0.0000       0.713898        19.4262 
 154   0.0000       0.717423        19.5221 
 155   0.0000       0.722674        19.6650 
 156   0.0000       0.735009        20.0006 
 157   0.0000       0.742647        20.2084 
 158   0.0000       0.753944        20.5159 
 159   0.0000       0.757569        20.6145 
 160   0.0000       0.758888        20.6504 
 161   0.0000       0.769391        20.9362 
 162   0.0000       0.773874        21.0582 
 163   0.0000       0.777539        21.1579 
 164   0.0000       0.789122        21.4731 
 165   0.0000       0.794357        21.6156 
 166   0.0000       0.802903        21.8481 
 167   0.0000       0.806314        21.9409 
 168   0.0000       0.808116        21.9899 
 169   0.0000       0.819509        22.3000 
 170   0.0000       0.825057        22.4510 
 171   0.0000       0.826411        22.4878 
 172   0.0000       0.828275        22.5385 
 173   0.0000       0.844666        22.9845 
 174   0.0000       0.845797        23.0153 
 175   0.0000       0.847189        23.0532 
 176   0.0000       0.853272        23.2187 
 177   0.0000       0.864570        23.5262 
 178   0.0000       0.866200        23.5705 
 179   0.0000       0.882999        24.0276 
 180   0.0000       0.887188        24.1416 
 181   0.0000       0.894840        24.3498 
 182   0.0000       0.900954        24.5162 
 183   0.0000       0.902917        24.5696 
 184   0.0000       0.904161        24.6035 
 185   0.0000       0.913256        24.8510 
 186   0.0000       0.914758        24.8918 
 187   0.0000       0.925188        25.1756 
 188   0.0000       0.931370        25.3439 
 189   0.0000       0.937054        25.4985 
 190   0.0000       0.941003        25.6060 
 191   0.0000       0.955758        26.0075 
 192   0.0000       0.960242        26.1295 
 193   0.0000       0.971170        26.4269 
 194   0.0000       0.971800        26.4440 
 195   0.0000       0.973103        26.4795 
 196   0.0000       0.980074        26.6692 
 197   0.0000       0.981076        26.6964 
 198   0.0000       0.994693        27.0670 
 199   0.0000       1.011738        27.5308 
 200   0.0000       1.025179        27.8965 
 201   0.0000       1.038996        28.2725 
 202   0.0000       1.058199        28.7950 
 203   0.0000       1.070498        29.1297 
 204   0.0000       1.074737        29.2451 
 205   0.0000       1.090178        29.6653 
 206   0.0000       1.115566        30.3561 
 207   0.0000       1.141896        31.0726 
 208   0.0000       1.154449        31.4142 
 209   0.0000       1.155230        31.4354 
 210   0.0000       1.216944        33.1147 
 211   0.0000       1.253254        34.1028 
 212   0.0000       1.297533        35.3077 
 213   0.0000       1.312963        35.7275 
 214   0.0000       1.314849        35.7789 
 215   0.0000       1.342627        36.5347 
 216   0.0000       1.362418        37.0733 
 217   0.0000       1.380342        37.5610 
 218   0.0000       1.394178        37.9375 
 219   0.0000       1.398434        38.0533 
 220   0.0000       1.452623        39.5279 
 221   0.0000       1.468533        39.9608 
 222   0.0000       1.485609        40.4255 
 223   0.0000       1.489498        40.5313 
 224   0.0000       1.515435        41.2371 
 225   0.0000       1.533990        41.7420 
 226   0.0000       1.579149        42.9708 
 227   0.0000       1.588413        43.2229 
 228   0.0000       1.604261        43.6542 
 229   0.0000       1.611843        43.8605 
 230   0.0000       1.619665        44.0733 
 231   0.0000       1.622767        44.1577 
 232   0.0000       1.637535        44.5596 
 233   0.0000       1.640083        44.6289 
 234   0.0000       1.651162        44.9304 
 235   0.0000       1.651438        44.9379 
 236   0.0000       1.663651        45.2702 
 237   0.0000       1.686294        45.8864 
 238   0.0000       1.689413        45.9713 
 239   0.0000       1.728882        47.0453 
 240   0.0000       1.752151        47.6784 
 241   0.0000       1.760427        47.9037 
 242   0.0000       1.875605        51.0378 
 243   0.0000       1.884171        51.2709 
 244   0.0000       1.904741        51.8306 
 245   0.0000       1.937841        52.7313 
 246   0.0000       1.954729        53.1909 
 247   0.0000       1.955873        53.2220 
 248   0.0000       1.968507        53.5658 
 249   0.0000       1.987937        54.0945 
 250   0.0000       2.031092        55.2688 
 251   0.0000       2.099398        57.1275 
 252   0.0000       2.125507        57.8380 
 253   0.0000       2.144510        58.3551 
 254   0.0000       2.189706        59.5849 
 255   0.0000       2.202998        59.9466 
 256   0.0000       2.256906        61.4135 
 257   0.0000       2.266509        61.6749 
 258   0.0000       2.344964        63.8097 
 259   0.0000       2.378692        64.7275 
 260   0.0000       2.397201        65.2312 
 261   0.0000       2.440563        66.4111 
 262   0.0000       2.456610        66.8478 
 263   0.0000       2.474789        67.3424 
 264   0.0000       2.532198        68.9046 
 265   0.0000       2.573550        70.0299 
 266   0.0000       2.647803        72.0504 
 267   0.0000       2.671233        72.6879 
 268   0.0000       2.731018        74.3148 
 269   0.0000       2.927318        79.6564 
 270   0.0000       2.974023        80.9273 
 271   0.0000       2.990599        81.3783 
 272   0.0000       2.999069        81.6088 
 273   0.0000       2.999704        81.6261 
 274   0.0000       3.055368        83.1408 
 275   0.0000       3.084816        83.9421 
 276   0.0000       3.091885        84.1345 
 277   0.0000       3.128257        85.1242 
 278   0.0000       3.157278        85.9139 
 279   0.0000       3.166396        86.1620 
 280   0.0000       3.174461        86.3815 
 281   0.0000       3.194654        86.9310 
 282   0.0000       3.199035        87.0502 
 283   0.0000       3.253434        88.5304 
 284   0.0000       3.253596        88.5348 
 285   0.0000       3.272833        89.0583 
 286   0.0000       3.297196        89.7213 
 287   0.0000       3.307848        90.0111 
 288   0.0000       3.366787        91.6149 
 289   0.0000       3.373503        91.7977 
 290   0.0000       3.431122        93.3656 
 291   0.0000       3.475505        94.5733 
 292   0.0000       3.519939        95.7824 
 293   0.0000       3.524518        95.9070 
 294   0.0000       3.641451        99.0889 
 295   0.0000       3.642453        99.1162 
 296   0.0000       3.666155        99.7611 
 297   0.0000       3.670285        99.8735 
 298   0.0000       3.711214       100.9873 
 299   0.0000       3.731678       101.5441 
 300   0.0000       3.735042       101.6357 
 301   0.0000       3.766402       102.4890 
 302   0.0000       3.770471       102.5997 
 303   0.0000       3.810550       103.6903 
 304   0.0000       3.817849       103.8890 
 305   0.0000       3.921318       106.7045 
 306   0.0000       3.921996       106.7229 
 307   0.0000       3.956144       107.6522 
 308   0.0000       3.977271       108.2270 
 309   0.0000       3.977320       108.2284 
 310   0.0000       4.022099       109.4469 
 311   0.0000       4.027310       109.5887 
 312   0.0000       4.033886       109.7676 
 313   0.0000       4.042260       109.9955 
 314   0.0000       4.042814       110.0106 
 315   0.0000       4.097961       111.5112 
 316   0.0000       4.106733       111.7499 
 317   0.0000       4.114931       111.9730 
 318   0.0000       4.192569       114.0856 
 319   0.0000       4.289879       116.7335 
 320   0.0000       4.353381       118.4615 
 321   0.0000       4.380167       119.1904 
 322   0.0000       4.418710       120.2392 
 323   0.0000       4.424472       120.3960 
 324   0.0000       4.482784       121.9828 
 325   0.0000       4.554354       123.9303 
 326   0.0000       4.585366       124.7741 
 327   0.0000       4.585713       124.7836 
 328   0.0000       4.618943       125.6878 
 329   0.0000       4.653368       126.6246 
 330   0.0000       4.707553       128.0990 
 331   0.0000       4.744902       129.1153 
 332   0.0000       4.747688       129.1911 
 333   0.0000       4.794937       130.4769 
 334   0.0000       4.918453       133.8379 
 335   0.0000       4.959990       134.9682 
 336   0.0000       4.972493       135.3084 
 337   0.0000       5.005074       136.1950 
 338   0.0000       5.221419       142.0820 
 339   0.0000       5.257394       143.0610 
 340   0.0000       5.283018       143.7582 
 341   0.0000       5.285969       143.8385 
 342   0.0000       5.323790       144.8677 
 343   0.0000       5.352785       145.6567 
 344   0.0000       5.397835       146.8825 
 345   0.0000       5.424708       147.6138 
 346   0.0000       5.571475       151.6076 
 347   0.0000       5.613435       152.7493 
 348   0.0000       5.655842       153.9033 
 349   0.0000       5.679668       154.5516 
 350   0.0000       5.718798       155.6164 
 351   0.0000       5.755666       156.6196 
 352   0.0000       5.764664       156.8645 
 353   0.0000       5.914990       160.9551 
 354   0.0000       5.981437       162.7632 
 355   0.0000       6.142474       167.1452 
 356   0.0000       6.177749       168.1051 
 357   0.0000       6.192479       168.5059 
 358   0.0000       6.287700       171.0970 
 359   0.0000       6.374939       173.4709 
 360   0.0000       6.377646       173.5446 
 361   0.0000       6.518749       177.3842 
 362   0.0000       6.619682       180.1307 
 363   0.0000       6.685330       181.9171 
 364   0.0000       6.762019       184.0039 
 365   0.0000       6.879475       187.2000 
 366   0.0000       6.963125       189.4763 
 367   0.0000       6.972528       189.7321 
 368   0.0000       7.177589       195.3121 
 369   0.0000       7.221018       196.4939 
 370   0.0000       7.602273       206.8684 
 371   0.0000       7.609635       207.0687 
 372   0.0000       7.738549       210.5766 
 373   0.0000       7.820400       212.8039 
 374   0.0000       7.942808       216.1348 
 375   0.0000       8.077428       219.7980 
 376   0.0000       8.364284       227.6038 
 377   0.0000       8.416715       229.0305 
 378   0.0000       8.531281       232.1479 
 379   0.0000       8.569709       233.1936 
 380   0.0000       8.827405       240.2059 
 381   0.0000       8.827590       240.2109 
 382   0.0000       8.855439       240.9687 
 383   0.0000       8.865666       241.2470 
 384   0.0000       8.906060       242.3462 
 385   0.0000       8.933915       243.1042 
 386   0.0000       9.034466       245.8403 
 387   0.0000       9.036482       245.8952 
 388   0.0000       9.078979       247.0516 
 389   0.0000       9.086212       247.2484 
 390   0.0000       9.165176       249.3971 
 391   0.0000       9.172082       249.5851 
 392   0.0000       9.282045       252.5773 
 393   0.0000       9.293943       252.9010 
 394   0.0000       9.294791       252.9241 
 395   0.0000       9.307911       253.2811 
 396   0.0000       9.406105       255.9531 
 397   0.0000       9.446639       257.0561 
 398   0.0000       9.486432       258.1389 
 399   0.0000       9.518642       259.0154 
 400   0.0000       9.544057       259.7070 
 401   0.0000       9.562809       260.2173 
 402   0.0000       9.564915       260.2746 
 403   0.0000       9.590349       260.9667 
 404   0.0000       9.662916       262.9413 
 405   0.0000       9.725601       264.6471 
 406   0.0000       9.746229       265.2084 
 407   0.0000       9.843569       267.8571 
 408   0.0000       9.895300       269.2648 
 409   0.0000       9.922973       270.0178 
 410   0.0000       9.947942       270.6973 
 411   0.0000      10.103454       274.9290 
 412   0.0000      10.126891       275.5667 
 413   0.0000      10.142827       276.0003 
 414   0.0000      10.228559       278.3332 
 415   0.0000      10.233771       278.4751 
 416   0.0000      10.241312       278.6803 
 417   0.0000      10.243164       278.7307 
 418   0.0000      10.253705       279.0175 
 419   0.0000      10.445378       284.2332 
 420   0.0000      10.463967       284.7390 
 421   0.0000      10.480287       285.1831 
 422   0.0000      10.555051       287.2175 
 423   0.0000      10.622909       289.0641 
 424   0.0000      10.719408       291.6899 
 425   0.0000      10.761230       292.8280 
 426   0.0000      10.823236       294.5152 
 427   0.0000      10.892205       296.3920 
 428   0.0000      10.969355       298.4913 
 429   0.0000      10.991545       299.0951 
 430   0.0000      11.092462       301.8412 
 431   0.0000      11.168477       303.9097 
 432   0.0000      11.260833       306.4229 
 433   0.0000      11.354176       308.9628 
 434   0.0000      11.371613       309.4373 
 435   0.0000      11.394693       310.0654 
 436   0.0000      11.538204       313.9705 
 437   0.0000      11.648726       316.9779 
 438   0.0000      11.748907       319.7040 
 439   0.0000      11.750721       319.7534 
 440   0.0000      11.783976       320.6583 
 441   0.0000      11.806023       321.2582 
 442   0.0000      11.840715       322.2022 
 443   0.0000      11.863654       322.8264 
 444   0.0000      11.935811       324.7899 
 445   0.0000      11.990753       326.2850 
 446   0.0000      12.164873       331.0230 
 447   0.0000      12.209070       332.2257 
 448   0.0000      12.311274       335.0068 
 449   0.0000      12.319323       335.2258 
 450   0.0000      12.335987       335.6793 
 451   0.0000      12.495668       340.0244 
 452   0.0000      12.528926       340.9294 
 453   0.0000      12.543648       341.3300 
 454   0.0000      12.548965       341.4747 
 455   0.0000      12.579402       342.3029 
 456   0.0000      12.655104       344.3629 
 457   0.0000      12.811118       348.6082 
 458   0.0000      12.828807       349.0896 
 459   0.0000      12.877904       350.4256 
 460   0.0000      12.997823       353.6888 
 461   0.0000      13.082655       355.9972 
 462   0.0000      13.121078       357.0427 
 463   0.0000      13.160931       358.1271 
 464   0.0000      13.198322       359.1446 
 465   0.0000      13.299550       361.8992 
 466   0.0000      13.388782       364.3273 
 467   0.0000      13.544435       368.5628 
 468   0.0000      13.580355       369.5402 
 469   0.0000      13.613433       370.4403 
 470   0.0000      13.618830       370.5872 
 471   0.0000      13.652323       371.4986 
 472   0.0000      13.795099       375.3837 
 473   0.0000      13.829123       376.3096 
 474   0.0000      14.027083       381.6963 
 475   0.0000      14.254410       387.8822 
 476   0.0000      14.327743       389.8777 
 477   0.0000      14.377887       391.2422 
 478   0.0000      14.553301       396.0155 
 479   0.0000      14.843053       403.9000 
 480   0.0000      15.105289       411.0358 
 481   0.0000      15.218719       414.1224 
 482   0.0000      15.388962       418.7549 
 483   0.0000      15.590129       424.2290 
 484   0.0000      15.773417       429.2165 
 485   0.0000      15.923366       433.2968 
 486   0.0000      16.343325       444.7245 
 487   0.0000      16.656785       453.2542 
 488   0.0000      16.724454       455.0955 
 489   0.0000      16.724553       455.0982 
 490   0.0000      16.755409       455.9379 
 491   0.0000      16.767376       456.2635 
 492   0.0000      16.777755       456.5459 
 493   0.0000      16.822695       457.7688 
 494   0.0000      16.909839       460.1401 
 495   0.0000      16.913618       460.2429 
 496   0.0000      17.069917       464.4961 
 497   0.0000      17.220253       468.5869 
 498   0.0000      17.260063       469.6702 
 499   0.0000      17.311298       471.0644 
 500   0.0000      17.539450       477.2727 
 501   0.0000      17.967575       488.9226 
 502   0.0000      17.982659       489.3330 
 503   0.0000      18.130592       493.3585 
 504   0.0000      18.327670       498.7212 
 505   0.0000      18.525496       504.1044 
 506   0.0000      18.624029       506.7856 
 507   0.0000      18.683882       508.4143 
 508   0.0000      19.043082       518.1886 
 509   0.0000      19.248139       523.7685 
 510   0.0000      19.708370       536.2920 
 511   0.0000      19.772962       538.0496 
 512   0.0000      19.976961       543.6008 
 513   0.0000      20.206471       549.8460 
 514   0.0000      20.245253       550.9013 
 515   0.0000      20.374582       554.4206 
 516   0.0000      20.384030       554.6777 
 517   0.0000      20.392045       554.8957 
 518   0.0000      20.441146       556.2319 
 519   0.0000      20.571076       559.7674 
 520   0.0000      21.156331       575.6930 
 521   0.0000      21.308469       579.8329 
 522   0.0000      21.478036       584.4471 
 523   0.0000      21.536971       586.0508 
 524   0.0000      21.611062       588.0669 
 525   0.0000      23.523216       640.0992 
 526   0.0000      23.586418       641.8191 
 527   0.0000      23.588604       641.8785 
 528   0.0000      23.676783       644.2780 
 529   0.0000      23.719778       645.4480 
 530   0.0000      23.764964       646.6775 
 531   0.0000      24.083526       655.3461 
 532   0.0000      25.095409       682.8808 
 533   0.0000      25.533465       694.8009 
 534   0.0000      25.839934       703.1404 
 535   0.0000      32.355540       880.4390 
 536   0.0000      32.492325       884.1611 
 537   0.0000      33.504345       911.6996 
 538   0.0000      33.812499       920.0849 
 539   0.0000      34.047968       926.4923 
 540   0.0000      41.147981      1119.6935 
 541   0.0000      41.268688      1122.9781 
 542   0.0000      41.283202      1123.3730 
 543   0.0000      76.381737      2078.4527 
 544   0.0000      79.323999      2158.5157 
 545   0.0000      91.065636      2478.0219 
 546   0.0000      91.111077      2479.2584 
 547   0.0000      91.140387      2480.0560 
 548   0.0000      91.178143      2481.0834 
 549   0.0000      91.218526      2482.1823 
 550   0.0000      91.412016      2487.4474 
 551   0.0000      92.148570      2507.4901 
 552   0.0000      92.414915      2514.7377 
 553   0.0000      92.583200      2519.3170 

                 SPIN DOWN ORBITALS
  NO   OCC          E(Eh)            E(eV) 
   0   1.0000      -9.858450      -268.2621 
   1   1.0000      -6.529327      -177.6720 
   2   1.0000      -0.612400       -16.6642 
   3   1.0000      -0.426865       -11.6156 
   4   1.0000      -0.377102       -10.2615 
   5   1.0000      -0.351873        -9.5749 
   6   1.0000      -0.208208        -5.6656 
   7   0.0000      -0.092877        -2.5273 
   8   0.0000      -0.018605        -0.5063 
   9   0.0000      -0.011239        -0.3058 
  10   0.0000       0.003903         0.1062 
  11   0.0000       0.009270         0.2522 
  12   0.0000       0.012923         0.3516 
  13   0.0000       0.025646         0.6979 
  14   0.0000       0.028575         0.7776 
  15   0.0000       0.029277         0.7967 
  16   0.0000       0.036422         0.9911 
  17   0.0000       0.038126         1.0375 
  18   0.0000       0.042729         1.1627 
  19   0.0000       0.045193         1.2298 
  20   0.0000       0.048951         1.3320 
  21   0.0000       0.055578         1.5123 
  22   0.0000       0.061510         1.6738 
  23   0.0000       0.065778         1.7899 
  24   0.0000       0.071781         1.9533 
  25   0.0000       0.079523         2.1639 
  26   0.0000       0.083251         2.2654 
  27   0.0000       0.084973         2.3122 
  28   0.0000       0.090717         2.4685 
  29   0.0000       0.105829         2.8798 
  30   0.0000       0.106919         2.9094 
  31   0.0000       0.108981         2.9655 
  32   0.0000       0.112676         3.0661 
  33   0.0000       0.117706         3.2030 
  34   0.0000       0.120822         3.2877 
  35   0.0000       0.124094         3.3768 
  36   0.0000       0.126534         3.4432 
  37   0.0000       0.132677         3.6103 
  38   0.0000       0.140777         3.8307 
  39   0.0000       0.145323         3.9544 
  40   0.0000       0.149441         4.0665 
  41   0.0000       0.151257         4.1159 
  42   0.0000       0.153682         4.1819 
  43   0.0000       0.154130         4.1941 
  44   0.0000       0.156769         4.2659 
  45   0.0000       0.157086         4.2745 
  46   0.0000       0.157132         4.2758 
  47   0.0000       0.161035         4.3820 
  48   0.0000       0.167941         4.5699 
  49   0.0000       0.175509         4.7758 
  50   0.0000       0.177724         4.8361 
  51   0.0000       0.188821         5.1381 
  52   0.0000       0.202735         5.5167 
  53   0.0000       0.206920         5.6306 
  54   0.0000       0.210807         5.7364 
  55   0.0000       0.211305         5.7499 
  56   0.0000       0.223080         6.0703 
  57   0.0000       0.223756         6.0887 
  58   0.0000       0.232361         6.3229 
  59   0.0000       0.234914         6.3923 
  60   0.0000       0.236536         6.4365 
  61   0.0000       0.237341         6.4584 
  62   0.0000       0.247474         6.7341 
  63   0.0000       0.249120         6.7789 
  64   0.0000       0.256879         6.9900 
  65   0.0000       0.263117         7.1598 
  66   0.0000       0.265002         7.2111 
  67   0.0000       0.268268         7.3000 
  68   0.0000       0.268610         7.3093 
  69   0.0000       0.268975         7.3192 
  70   0.0000       0.274212         7.4617 
  71   0.0000       0.284675         7.7464 
  72   0.0000       0.284821         7.7504 
  73   0.0000       0.287266         7.8169 
  74   0.0000       0.293380         7.9833 
  75   0.0000       0.307339         8.3631 
  76   0.0000       0.313447         8.5293 
  77   0.0000       0.314533         8.5589 
  78   0.0000       0.318124         8.6566 
  79   0.0000       0.322242         8.7687 
  80   0.0000       0.322394         8.7728 
  81   0.0000       0.327947         8.9239 
  82   0.0000       0.333908         9.0861 
  83   0.0000       0.335328         9.1247 
  84   0.0000       0.335618         9.1326 
  85   0.0000       0.340486         9.2651 
  86   0.0000       0.341628         9.2962 
  87   0.0000       0.348831         9.4922 
  88   0.0000       0.349653         9.5145 
  89   0.0000       0.353417         9.6170 
  90   0.0000       0.356535         9.7018 
  91   0.0000       0.362630         9.8677 
  92   0.0000       0.363546         9.8926 
  93   0.0000       0.373915        10.1747 
  94   0.0000       0.376204        10.2370 
  95   0.0000       0.381731        10.3874 
  96   0.0000       0.383060        10.4236 
  97   0.0000       0.386001        10.5036 
  98   0.0000       0.394869        10.7449 
  99   0.0000       0.401725        10.9315 
 100   0.0000       0.406894        11.0722 
 101   0.0000       0.422767        11.5041 
 102   0.0000       0.423348        11.5199 
 103   0.0000       0.427223        11.6253 
 104   0.0000       0.431486        11.7413 
 105   0.0000       0.433964        11.8088 
 106   0.0000       0.451449        12.2845 
 107   0.0000       0.460283        12.5249 
 108   0.0000       0.465386        12.6638 
 109   0.0000       0.465865        12.6768 
 110   0.0000       0.477358        12.9896 
 111   0.0000       0.484131        13.1739 
 112   0.0000       0.485223        13.2036 
 113   0.0000       0.490162        13.3380 
 114   0.0000       0.498021        13.5518 
 115   0.0000       0.504146        13.7185 
 116   0.0000       0.509908        13.8753 
 117   0.0000       0.512679        13.9507 
 118   0.0000       0.512942        13.9579 
 119   0.0000       0.516918        14.0661 
 120   0.0000       0.520614        14.1666 
 121   0.0000       0.522324        14.2132 
 122   0.0000       0.530065        14.4238 
 123   0.0000       0.533948        14.5295 
 124   0.0000       0.542555        14.7637 
 125   0.0000       0.548280        14.9195 
 126   0.0000       0.556514        15.1435 
 127   0.0000       0.558107        15.1869 
 128   0.0000       0.566777        15.4228 
 129   0.0000       0.573793        15.6137 
 130   0.0000       0.575888        15.6707 
 131   0.0000       0.580724        15.8023 
 132   0.0000       0.586589        15.9619 
 133   0.0000       0.598683        16.2910 
 134   0.0000       0.604690        16.4545 
 135   0.0000       0.605535        16.4774 
 136   0.0000       0.612165        16.6579 
 137   0.0000       0.615471        16.7478 
 138   0.0000       0.624334        16.9890 
 139   0.0000       0.630620        17.1600 
 140   0.0000       0.634282        17.2597 
 141   0.0000       0.638725        17.3806 
 142   0.0000       0.655117        17.8267 
 143   0.0000       0.656371        17.8608 
 144   0.0000       0.657270        17.8852 
 145   0.0000       0.663983        18.0679 
 146   0.0000       0.664001        18.0684 
 147   0.0000       0.664505        18.0821 
 148   0.0000       0.675256        18.3746 
 149   0.0000       0.684540        18.6273 
 150   0.0000       0.687641        18.7117 
 151   0.0000       0.702412        19.1136 
 152   0.0000       0.711494        19.3607 
 153   0.0000       0.713898        19.4262 
 154   0.0000       0.717423        19.5221 
 155   0.0000       0.722674        19.6650 
 156   0.0000       0.735009        20.0006 
 157   0.0000       0.742647        20.2084 
 158   0.0000       0.753944        20.5159 
 159   0.0000       0.757569        20.6145 
 160   0.0000       0.758888        20.6504 
 161   0.0000       0.769391        20.9362 
 162   0.0000       0.773874        21.0582 
 163   0.0000       0.777539        21.1579 
 164   0.0000       0.789122        21.4731 
 165   0.0000       0.794357        21.6156 
 166   0.0000       0.802903        21.8481 
 167   0.0000       0.806314        21.9409 
 168   0.0000       0.808116        21.9899 
 169   0.0000       0.819509        22.3000 
 170   0.0000       0.825057        22.4510 
 171   0.0000       0.826411        22.4878 
 172   0.0000       0.828275        22.5385 
 173   0.0000       0.844666        22.9845 
 174   0.0000       0.845797        23.0153 
 175   0.0000       0.847189        23.0532 
 176   0.0000       0.853272        23.2187 
 177   0.0000       0.864570        23.5262 
 178   0.0000       0.866200        23.5705 
 179   0.0000       0.882999        24.0276 
 180   0.0000       0.887188        24.1416 
 181   0.0000       0.894840        24.3498 
 182   0.0000       0.900954        24.5162 
 183   0.0000       0.902917        24.5696 
 184   0.0000       0.904161        24.6035 
 185   0.0000       0.913256        24.8510 
 186   0.0000       0.914758        24.8918 
 187   0.0000       0.925188        25.1756 
 188   0.0000       0.931370        25.3439 
 189   0.0000       0.937054        25.4985 
 190   0.0000       0.941003        25.6060 
 191   0.0000       0.955758        26.0075 
 192   0.0000       0.960242        26.1295 
 193   0.0000       0.971170        26.4269 
 194   0.0000       0.971800        26.4440 
 195   0.0000       0.973103        26.4795 
 196   0.0000       0.980074        26.6692 
 197   0.0000       0.981076        26.6964 
 198   0.0000       0.994693        27.0670 
 199   0.0000       1.011738        27.5308 
 200   0.0000       1.025179        27.8965 
 201   0.0000       1.038996        28.2725 
 202   0.0000       1.058199        28.7950 
 203   0.0000       1.070498        29.1297 
 204   0.0000       1.074737        29.2451 
 205   0.0000       1.090178        29.6653 
 206   0.0000       1.115566        30.3561 
 207   0.0000       1.141896        31.0726 
 208   0.0000       1.154449        31.4142 
 209   0.0000       1.155230        31.4354 
 210   0.0000       1.216944        33.1147 
 211   0.0000       1.253254        34.1028 
 212   0.0000       1.297533        35.3077 
 213   0.0000       1.312963        35.7275 
 214   0.0000       1.314849        35.7789 
 215   0.0000       1.342627        36.5347 
 216   0.0000       1.362418        37.0733 
 217   0.0000       1.380342        37.5610 
 218   0.0000       1.394178        37.9375 
 219   0.0000       1.398434        38.0533 
 220   0.0000       1.452623        39.5279 
 221   0.0000       1.468533        39.9608 
 222   0.0000       1.485609        40.4255 
 223   0.0000       1.489498        40.5313 
 224   0.0000       1.515435        41.2371 
 225   0.0000       1.533990        41.7420 
 226   0.0000       1.579149        42.9708 
 227   0.0000       1.588413        43.2229 
 228   0.0000       1.604261        43.6542 
 229   0.0000       1.611843        43.8605 
 230   0.0000       1.619665        44.0733 
 231   0.0000       1.622767        44.1577 
 232   0.0000       1.637535        44.5596 
 233   0.0000       1.640083        44.6289 
 234   0.0000       1.651162        44.9304 
 235   0.0000       1.651438        44.9379 
 236   0.0000       1.663651        45.2702 
 237   0.0000       1.686294        45.8864 
 238   0.0000       1.689413        45.9713 
 239   0.0000       1.728882        47.0453 
 240   0.0000       1.752151        47.6784 
 241   0.0000       1.760427        47.9037 
 242   0.0000       1.875605        51.0378 
 243   0.0000       1.884171        51.2709 
 244   0.0000       1.904741        51.8306 
 245   0.0000       1.937841        52.7313 
 246   0.0000       1.954729        53.1909 
 247   0.0000       1.955873        53.2220 
 248   0.0000       1.968507        53.5658 
 249   0.0000       1.987937        54.0945 
 250   0.0000       2.031092        55.2688 
 251   0.0000       2.099398        57.1275 
 252   0.0000       2.125507        57.8380 
 253   0.0000       2.144510        58.3551 
 254   0.0000       2.189706        59.5849 
 255   0.0000       2.202998        59.9466 
 256   0.0000       2.256906        61.4135 
 257   0.0000       2.266509        61.6749 
 258   0.0000       2.344964        63.8097 
 259   0.0000       2.378692        64.7275 
 260   0.0000       2.397201        65.2312 
 261   0.0000       2.440563        66.4111 
 262   0.0000       2.456610        66.8478 
 263   0.0000       2.474789        67.3424 
 264   0.0000       2.532198        68.9046 
 265   0.0000       2.573550        70.0299 
 266   0.0000       2.647803        72.0504 
 267   0.0000       2.671233        72.6879 
 268   0.0000       2.731018        74.3148 
 269   0.0000       2.927318        79.6564 
 270   0.0000       2.974023        80.9273 
 271   0.0000       2.990599        81.3783 
 272   0.0000       2.999069        81.6088 
 273   0.0000       2.999704        81.6261 
 274   0.0000       3.055368        83.1408 
 275   0.0000       3.084816        83.9421 
 276   0.0000       3.091885        84.1345 
 277   0.0000       3.128257        85.1242 
 278   0.0000       3.157278        85.9139 
 279   0.0000       3.166396        86.1620 
 280   0.0000       3.174461        86.3815 
 281   0.0000       3.194654        86.9310 
 282   0.0000       3.199035        87.0502 
 283   0.0000       3.253434        88.5304 
 284   0.0000       3.253596        88.5348 
 285   0.0000       3.272833        89.0583 
 286   0.0000       3.297196        89.7213 
 287   0.0000       3.307848        90.0111 
 288   0.0000       3.366787        91.6149 
 289   0.0000       3.373503        91.7977 
 290   0.0000       3.431122        93.3656 
 291   0.0000       3.475505        94.5733 
 292   0.0000       3.519939        95.7824 
 293   0.0000       3.524518        95.9070 
 294   0.0000       3.641451        99.0889 
 295   0.0000       3.642453        99.1162 
 296   0.0000       3.666155        99.7611 
 297   0.0000       3.670285        99.8735 
 298   0.0000       3.711214       100.9873 
 299   0.0000       3.731678       101.5441 
 300   0.0000       3.735042       101.6357 
 301   0.0000       3.766402       102.4890 
 302   0.0000       3.770471       102.5997 
 303   0.0000       3.810550       103.6903 
 304   0.0000       3.817849       103.8890 
 305   0.0000       3.921318       106.7045 
 306   0.0000       3.921996       106.7229 
 307   0.0000       3.956144       107.6522 
 308   0.0000       3.977271       108.2270 
 309   0.0000       3.977320       108.2284 
 310   0.0000       4.022099       109.4469 
 311   0.0000       4.027310       109.5887 
 312   0.0000       4.033886       109.7676 
 313   0.0000       4.042260       109.9955 
 314   0.0000       4.042814       110.0106 
 315   0.0000       4.097961       111.5112 
 316   0.0000       4.106733       111.7499 
 317   0.0000       4.114931       111.9730 
 318   0.0000       4.192569       114.0856 
 319   0.0000       4.289879       116.7335 
 320   0.0000       4.353381       118.4615 
 321   0.0000       4.380167       119.1904 
 322   0.0000       4.418710       120.2392 
 323   0.0000       4.424472       120.3960 
 324   0.0000       4.482784       121.9828 
 325   0.0000       4.554354       123.9303 
 326   0.0000       4.585366       124.7741 
 327   0.0000       4.585713       124.7836 
 328   0.0000       4.618943       125.6878 
 329   0.0000       4.653368       126.6246 
 330   0.0000       4.707553       128.0990 
 331   0.0000       4.744902       129.1153 
 332   0.0000       4.747688       129.1911 
 333   0.0000       4.794937       130.4769 
 334   0.0000       4.918453       133.8379 
 335   0.0000       4.959990       134.9682 
 336   0.0000       4.972493       135.3084 
 337   0.0000       5.005074       136.1950 
 338   0.0000       5.221419       142.0820 
 339   0.0000       5.257394       143.0610 
 340   0.0000       5.283018       143.7582 
 341   0.0000       5.285969       143.8385 
 342   0.0000       5.323790       144.8677 
 343   0.0000       5.352785       145.6567 
 344   0.0000       5.397835       146.8825 
 345   0.0000       5.424708       147.6138 
 346   0.0000       5.571475       151.6076 
 347   0.0000       5.613435       152.7493 
 348   0.0000       5.655842       153.9033 
 349   0.0000       5.679668       154.5516 
 350   0.0000       5.718798       155.6164 
 351   0.0000       5.755666       156.6196 
 352   0.0000       5.764664       156.8645 
 353   0.0000       5.914990       160.9551 
 354   0.0000       5.981437       162.7632 
 355   0.0000       6.142474       167.1452 
 356   0.0000       6.177749       168.1051 
 357   0.0000       6.192479       168.5059 
 358   0.0000       6.287700       171.0970 
 359   0.0000       6.374939       173.4709 
 360   0.0000       6.377646       173.5446 
 361   0.0000       6.518749       177.3842 
 362   0.0000       6.619682       180.1307 
 363   0.0000       6.685330       181.9171 
 364   0.0000       6.762019       184.0039 
 365   0.0000       6.879475       187.2000 
 366   0.0000       6.963125       189.4763 
 367   0.0000       6.972528       189.7321 
 368   0.0000       7.177589       195.3121 
 369   0.0000       7.221018       196.4939 
 370   0.0000       7.602273       206.8684 
 371   0.0000       7.609635       207.0687 
 372   0.0000       7.738549       210.5766 
 373   0.0000       7.820400       212.8039 
 374   0.0000       7.942808       216.1348 
 375   0.0000       8.077428       219.7980 
 376   0.0000       8.364284       227.6038 
 377   0.0000       8.416715       229.0305 
 378   0.0000       8.531281       232.1479 
 379   0.0000       8.569709       233.1936 
 380   0.0000       8.827405       240.2059 
 381   0.0000       8.827590       240.2109 
 382   0.0000       8.855439       240.9687 
 383   0.0000       8.865666       241.2470 
 384   0.0000       8.906060       242.3462 
 385   0.0000       8.933915       243.1042 
 386   0.0000       9.034466       245.8403 
 387   0.0000       9.036482       245.8952 
 388   0.0000       9.078979       247.0516 
 389   0.0000       9.086212       247.2484 
 390   0.0000       9.165176       249.3971 
 391   0.0000       9.172082       249.5851 
 392   0.0000       9.282045       252.5773 
 393   0.0000       9.293943       252.9010 
 394   0.0000       9.294791       252.9241 
 395   0.0000       9.307911       253.2811 
 396   0.0000       9.406105       255.9531 
 397   0.0000       9.446639       257.0561 
 398   0.0000       9.486432       258.1389 
 399   0.0000       9.518642       259.0154 
 400   0.0000       9.544057       259.7070 
 401   0.0000       9.562809       260.2173 
 402   0.0000       9.564915       260.2746 
 403   0.0000       9.590349       260.9667 
 404   0.0000       9.662916       262.9413 
 405   0.0000       9.725601       264.6471 
 406   0.0000       9.746229       265.2084 
 407   0.0000       9.843569       267.8571 
 408   0.0000       9.895300       269.2648 
 409   0.0000       9.922973       270.0178 
 410   0.0000       9.947942       270.6973 
 411   0.0000      10.103454       274.9290 
 412   0.0000      10.126891       275.5667 
 413   0.0000      10.142827       276.0003 
 414   0.0000      10.228559       278.3332 
 415   0.0000      10.233771       278.4751 
 416   0.0000      10.241312       278.6803 
 417   0.0000      10.243164       278.7307 
 418   0.0000      10.253705       279.0175 
 419   0.0000      10.445378       284.2332 
 420   0.0000      10.463967       284.7390 
 421   0.0000      10.480287       285.1831 
 422   0.0000      10.555051       287.2175 
 423   0.0000      10.622909       289.0641 
 424   0.0000      10.719408       291.6899 
 425   0.0000      10.761230       292.8280 
 426   0.0000      10.823236       294.5152 
 427   0.0000      10.892205       296.3920 
 428   0.0000      10.969355       298.4913 
 429   0.0000      10.991545       299.0951 
 430   0.0000      11.092462       301.8412 
 431   0.0000      11.168477       303.9097 
 432   0.0000      11.260833       306.4229 
 433   0.0000      11.354176       308.9628 
 434   0.0000      11.371613       309.4373 
 435   0.0000      11.394693       310.0654 
 436   0.0000      11.538204       313.9705 
 437   0.0000      11.648726       316.9779 
 438   0.0000      11.748907       319.7040 
 439   0.0000      11.750721       319.7534 
 440   0.0000      11.783976       320.6583 
 441   0.0000      11.806023       321.2582 
 442   0.0000      11.840715       322.2022 
 443   0.0000      11.863654       322.8264 
 444   0.0000      11.935811       324.7899 
 445   0.0000      11.990753       326.2850 
 446   0.0000      12.164873       331.0230 
 447   0.0000      12.209070       332.2257 
 448   0.0000      12.311274       335.0068 
 449   0.0000      12.319323       335.2258 
 450   0.0000      12.335987       335.6793 
 451   0.0000      12.495668       340.0244 
 452   0.0000      12.528926       340.9294 
 453   0.0000      12.543648       341.3300 
 454   0.0000      12.548965       341.4747 
 455   0.0000      12.579402       342.3029 
 456   0.0000      12.655104       344.3629 
 457   0.0000      12.811118       348.6082 
 458   0.0000      12.828807       349.0896 
 459   0.0000      12.877904       350.4256 
 460   0.0000      12.997823       353.6888 
 461   0.0000      13.082655       355.9972 
 462   0.0000      13.121078       357.0427 
 463   0.0000      13.160931       358.1271 
 464   0.0000      13.198322       359.1446 
 465   0.0000      13.299550       361.8992 
 466   0.0000      13.388782       364.3273 
 467   0.0000      13.544435       368.5628 
 468   0.0000      13.580355       369.5402 
 469   0.0000      13.613433       370.4403 
 470   0.0000      13.618830       370.5872 
 471   0.0000      13.652323       371.4986 
 472   0.0000      13.795099       375.3837 
 473   0.0000      13.829123       376.3096 
 474   0.0000      14.027083       381.6963 
 475   0.0000      14.254410       387.8822 
 476   0.0000      14.327743       389.8777 
 477   0.0000      14.377887       391.2422 
 478   0.0000      14.553301       396.0155 
 479   0.0000      14.843053       403.9000 
 480   0.0000      15.105289       411.0358 
 481   0.0000      15.218719       414.1224 
 482   0.0000      15.388962       418.7549 
 483   0.0000      15.590129       424.2290 
 484   0.0000      15.773417       429.2165 
 485   0.0000      15.923366       433.2968 
 486   0.0000      16.343325       444.7245 
 487   0.0000      16.656785       453.2542 
 488   0.0000      16.724454       455.0955 
 489   0.0000      16.724553       455.0982 
 490   0.0000      16.755409       455.9379 
 491   0.0000      16.767376       456.2635 
 492   0.0000      16.777755       456.5459 
 493   0.0000      16.822695       457.7688 
 494   0.0000      16.909839       460.1401 
 495   0.0000      16.913618       460.2429 
 496   0.0000      17.069917       464.4961 
 497   0.0000      17.220253       468.5869 
 498   0.0000      17.260063       469.6702 
 499   0.0000      17.311298       471.0644 
 500   0.0000      17.539450       477.2727 
 501   0.0000      17.967575       488.9226 
 502   0.0000      17.982659       489.3330 
 503   0.0000      18.130592       493.3585 
 504   0.0000      18.327670       498.7212 
 505   0.0000      18.525496       504.1044 
 506   0.0000      18.624029       506.7856 
 507   0.0000      18.683882       508.4143 
 508   0.0000      19.043082       518.1886 
 509   0.0000      19.248139       523.7685 
 510   0.0000      19.708370       536.2920 
 511   0.0000      19.772962       538.0496 
 512   0.0000      19.976961       543.6008 
 513   0.0000      20.206471       549.8460 
 514   0.0000      20.245253       550.9013 
 515   0.0000      20.374582       554.4206 
 516   0.0000      20.384030       554.6777 
 517   0.0000      20.392045       554.8957 
 518   0.0000      20.441146       556.2319 
 519   0.0000      20.571076       559.7674 
 520   0.0000      21.156331       575.6930 
 521   0.0000      21.308469       579.8329 
 522   0.0000      21.478036       584.4471 
 523   0.0000      21.536971       586.0508 
 524   0.0000      21.611062       588.0669 
 525   0.0000      23.523216       640.0992 
 526   0.0000      23.586418       641.8191 
 527   0.0000      23.588604       641.8785 
 528   0.0000      23.676783       644.2780 
 529   0.0000      23.719778       645.4480 
 530   0.0000      23.764964       646.6775 
 531   0.0000      24.083526       655.3461 
 532   0.0000      25.095409       682.8808 
 533   0.0000      25.533465       694.8009 
 534   0.0000      25.839934       703.1404 
 535   0.0000      32.355540       880.4390 
 536   0.0000      32.492325       884.1611 
 537   0.0000      33.504345       911.6996 
 538   0.0000      33.812499       920.0849 
 539   0.0000      34.047968       926.4923 
 540   0.0000      41.147981      1119.6935 
 541   0.0000      41.268688      1122.9781 
 542   0.0000      41.283202      1123.3730 
 543   0.0000      76.381737      2078.4527 
 544   0.0000      79.323999      2158.5157 
 545   0.0000      91.065636      2478.0219 
 546   0.0000      91.111077      2479.2584 
 547   0.0000      91.140387      2480.0560 
 548   0.0000      91.178143      2481.0834 
 549   0.0000      91.218526      2482.1823 
 550   0.0000      91.412016      2487.4474 
 551   0.0000      92.148570      2507.4901 
 552   0.0000      92.414915      2514.7377 
 553   0.0000      92.583200      2519.3170 

                    ********************************
                    * MULLIKEN POPULATION ANALYSIS *
                    ********************************

--------------------------------------------
MULLIKEN ATOMIC CHARGES AND SPIN POPULATIONS
--------------------------------------------
   0 C :   -0.142260    0.000000
   1 B :   -0.403749   -0.000000
   2 H :    0.200085   -0.000000
   3 H :    0.199771    0.000000
   4 H :    0.146153    0.000000
Sum of atomic charges         :    0.0000000
Sum of atomic spin populations:    0.0000000

-----------------------------------------------------
MULLIKEN REDUCED ORBITAL CHARGES AND SPIN POPULATIONS
-----------------------------------------------------
CHARGE
  0 C s       :     3.157965  s :     3.157965
      pz      :     0.775882  p :     2.976210
      px      :     1.167816
      py      :     1.032512
      dz2     :    -0.010806  d :     0.002287
      dxz     :     0.004504
      dyz     :     0.004795
      dx2y2   :     0.003794
      dxy     :    -0.000000
      f0      :    -0.001350  f :     0.005261
      f+1     :     0.004631
      f-1     :     0.001003
      f+2     :     0.000866
      f-2     :     0.000000
      f+3     :    -0.000153
      f-3     :     0.000264
      g0      :     0.000127  g :     0.000490
      g+1     :     0.000300
      g-1     :     0.000001
      g+2     :     0.000034
      g-2     :    -0.000000
      g+3     :    -0.000006
      g-3     :     0.000021
      g+4     :     0.000013
      g-4     :     0.000000
      h0      :     0.000098  h :     0.000046
      h+1     :    -0.000055
      h-1     :    -0.000004
      h+2     :     0.000002
      h-2     :     0.000000
      h+3     :     0.000001
      h-3     :    -0.000004
      h+4     :     0.000002
      h-4     :     0.000000
      h+5     :     0.000002
      h-5     :     0.000004
  1 B s       :     3.371572  s :     3.371572
      pz      :     0.933775  p :     1.914937
      px      :     0.855225
      py      :     0.125937
      dz2     :     0.035711  d :     0.103192
      dxz     :     0.052622
      dyz     :     0.015049
      dx2y2   :    -0.000190
      dxy     :    -0.000000
      f0      :     0.004799  f :     0.012783
      f+1     :     0.003899
      f-1     :     0.004006
      f+2     :     0.000023
      f-2     :    -0.000000
      f+3     :     0.000027
      f-3     :     0.000028
      g0      :     0.000235  g :     0.001289
      g+1     :     0.000938
      g-1     :     0.000073
      g+2     :     0.000004
      g-2     :    -0.000000
      g+3     :     0.000015
      g-3     :     0.000023
      g+4     :     0.000000
      g-4     :    -0.000000
      h0      :    -0.000038  h :    -0.000024
      h+1     :    -0.000067
      h-1     :     0.000053
      h+2     :     0.000032
      h-2     :    -0.000000
      h+3     :    -0.000002
      h-3     :    -0.000001
      h+4     :    -0.000000
      h-4     :    -0.000000
      h+5     :    -0.000000
      h-5     :    -0.000000
  2 H s       :     0.816589  s :     0.816589
      pz      :     0.020622  p :     0.024227
      px      :    -0.004673
      py      :     0.008278
      dz2     :    -0.005070  d :    -0.034077
      dxz     :    -0.003832
      dyz     :     0.002167
      dx2y2   :    -0.007724
      dxy     :    -0.019616
      f0      :    -0.000919  f :    -0.006361
      f+1     :     0.000300
      f-1     :     0.001484
      f+2     :    -0.000192
      f-2     :    -0.002543
      f+3     :    -0.002903
      f-3     :    -0.001587
      g0      :     0.000068  g :    -0.000463
      g+1     :     0.000011
      g-1     :    -0.000138
      g+2     :     0.000163
      g-2     :     0.000091
      g+3     :    -0.000310
      g-3     :    -0.000059
      g+4     :    -0.000121
      g-4     :    -0.000168
  3 H s       :     0.816776  s :     0.816776
      pz      :     0.020704  p :     0.024332
      px      :    -0.004673
      py      :     0.008301
      dz2     :    -0.005067  d :    -0.034058
      dxz     :    -0.003832
      dyz     :     0.002180
      dx2y2   :    -0.007723
      dxy     :    -0.019616
      f0      :    -0.000920  f :    -0.006358
      f+1     :     0.000300
      f-1     :     0.001486
      f+2     :    -0.000191
      f-2     :    -0.002543
      f+3     :    -0.002903
      f-3     :    -0.001587
      g0      :     0.000068  g :    -0.000463
      g+1     :     0.000011
      g-1     :    -0.000138
      g+2     :     0.000163
      g-2     :     0.000091
      g+3     :    -0.000310
      g-3     :    -0.000059
      g+4     :    -0.000121
      g-4     :    -0.000168
  4 H s       :     0.875763  s :     0.875763
      pz      :     0.004112  p :     0.014734
      px      :     0.011145
      py      :    -0.000523
      dz2     :    -0.001276  d :    -0.027660
      dxz     :    -0.026215
      dyz     :    -0.000204
      dx2y2   :     0.000035
      dxy     :    -0.000000
      f0      :    -0.000757  f :    -0.007995
      f+1     :    -0.006509
      f-1     :    -0.000724
      f+2     :    -0.000015
      f-2     :     0.000000
      f+3     :     0.000005
      f-3     :     0.000005
      g0      :    -0.000037  g :    -0.000995
      g+1     :    -0.000835
      g-1     :    -0.000119
      g+2     :    -0.000007
      g-2     :     0.000000
      g+3     :     0.000000
      g-3     :     0.000003
      g+4     :     0.000000
      g-4     :     0.000000

SPIN
  0 C s       :     0.000000  s :     0.000000
      pz      :    -0.000000  p :    -0.000000
      px      :     0.000000
      py      :    -0.000000
      dz2     :     0.000000  d :     0.000000
      dxz     :    -0.000000
      dyz     :    -0.000000
      dx2y2   :    -0.000000
      dxy     :    -0.000000
      f0      :     0.000000  f :     0.000000
      f+1     :    -0.000000
      f-1     :     0.000000
      f+2     :     0.000000
      f-2     :    -0.000000
      f+3     :    -0.000000
      f-3     :    -0.000000
      g0      :    -0.000000  g :    -0.000000
      g+1     :    -0.000000
      g-1     :    -0.000000
      g+2     :    -0.000000
      g-2     :    -0.000000
      g+3     :     0.000000
      g-3     :     0.000000
      g+4     :     0.000000
      g-4     :     0.000000
      h0      :    -0.000000  h :    -0.000000
      h+1     :    -0.000000
      h-1     :     0.000000
      h+2     :     0.000000
      h-2     :    -0.000000
      h+3     :     0.000000
      h-3     :     0.000000
      h+4     :     0.000000
      h-4     :    -0.000000
      h+5     :     0.000000
      h-5     :    -0.000000
  1 B s       :    -0.000000  s :    -0.000000
      pz      :    -0.000000  p :    -0.000000
      px      :     0.000000
      py      :     0.000000
      dz2     :    -0.000000  d :    -0.000000
      dxz     :     0.000000
      dyz     :     0.000000
      dx2y2   :     0.000000
      dxy     :    -0.000000
      f0      :    -0.000000  f :    -0.000000
      f+1     :     0.000000
      f-1     :     0.000000
      f+2     :    -0.000000
      f-2     :     0.000000
      f+3     :     0.000000
      f-3     :    -0.000000
      g0      :    -0.000000  g :    -0.000000
      g+1     :     0.000000
      g-1     :     0.000000
      g+2     :    -0.000000
      g-2     :     0.000000
      g+3     :     0.000000
      g-3     :    -0.000000
      g+4     :    -0.000000
      g-4     :    -0.000000
      h0      :     0.000000  h :    -0.000000
      h+1     :     0.000000
      h-1     :    -0.000000
      h+2     :    -0.000000
      h-2     :    -0.000000
      h+3     :    -0.000000
      h-3     :    -0.000000
      h+4     :    -0.000000
      h-4     :    -0.000000
      h+5     :    -0.000000
      h-5     :    -0.000000
  2 H s       :    -0.000000  s :    -0.000000
      pz      :    -0.000000  p :    -0.000000
      px      :    -0.000000
      py      :    -0.000000
      dz2     :    -0.000000  d :    -0.000000
      dxz     :    -0.000000
      dyz     :    -0.000000
      dx2y2   :     0.000000
      dxy     :    -0.000000
      f0      :     0.000000  f :    -0.000000
      f+1     :     0.000000
      f-1     :    -0.000000
      f+2     :    -0.000000
      f-2     :    -0.000000
      f+3     :    -0.000000
      f-3     :     0.000000
      g0      :     0.000000  g :     0.000000
      g+1     :    -0.000000
      g-1     :     0.000000
      g+2     :    -0.000000
      g-2     :     0.000000
      g+3     :    -0.000000
      g-3     :     0.000000
      g+4     :     0.000000
      g-4     :     0.000000
  3 H s       :     0.000000  s :     0.000000
      pz      :     0.000000  p :     0.000000
      px      :    -0.000000
      py      :    -0.000000
      dz2     :     0.000000  d :    -0.000000
      dxz     :    -0.000000
      dyz     :     0.000000
      dx2y2   :    -0.000000
      dxy     :    -0.000000
      f0      :     0.000000  f :     0.000000
      f+1     :    -0.000000
      f-1     :     0.000000
      f+2     :     0.000000
      f-2     :    -0.000000
      f+3     :    -0.000000
      f-3     :    -0.000000
      g0      :     0.000000  g :     0.000000
      g+1     :    -0.000000
      g-1     :     0.000000
      g+2     :     0.000000
      g-2     :    -0.000000
      g+3     :    -0.000000
      g-3     :     0.000000
      g+4     :    -0.000000
      g-4     :    -0.000000
  4 H s       :     0.000000  s :     0.000000
      pz      :     0.000000  p :     0.000000
      px      :    -0.000000
      py      :    -0.000000
      dz2     :     0.000000  d :     0.000000
      dxz     :    -0.000000
      dyz     :    -0.000000
      dx2y2   :     0.000000
      dxy     :     0.000000
      f0      :     0.000000  f :     0.000000
      f+1     :    -0.000000
      f-1     :     0.000000
      f+2     :     0.000000
      f-2     :     0.000000
      f+3     :     0.000000
      f-3     :     0.000000
      g0      :     0.000000  g :     0.000000
      g+1     :    -0.000000
      g-1     :     0.000000
      g+2     :    -0.000000
      g-2     :     0.000000
      g+3     :    -0.000000
      g-3     :    -0.000000
      g+4     :    -0.000000
      g-4     :    -0.000000


                     *******************************
                     * LOEWDIN POPULATION ANALYSIS *
                     *******************************

-------------------------------------------
LOEWDIN ATOMIC CHARGES AND SPIN POPULATIONS
-------------------------------------------
   0 C :    0.683263    0.000000
   1 B :    0.623657   -0.000000
   2 H :   -0.504068   -0.000000
   3 H :   -0.504068   -0.000000
   4 H :   -0.298785    0.000000

----------------------------------------------------
LOEWDIN REDUCED ORBITAL CHARGES AND SPIN POPULATIONS
----------------------------------------------------
CHARGE
  0 C s       :     2.535237  s :     2.535237
      pz      :     0.956087  p :     2.450874
      px      :     0.689917
      py      :     0.804870
      dz2     :     0.114103  d :     0.212368
      dxz     :     0.037432
      dyz     :     0.036625
      dx2y2   :     0.024207
      dxy     :     0.000000
      f0      :     0.041400  f :     0.072084
      f+1     :     0.014187
      f-1     :     0.005372
      f+2     :     0.007244
      f-2     :     0.000000
      f+3     :     0.000436
      f-3     :     0.003445
      g0      :     0.023990  g :     0.030629
      g+1     :     0.004104
      g-1     :     0.001295
      g+2     :     0.000119
      g-2     :     0.000000
      g+3     :     0.000078
      g-3     :     0.000721
      g+4     :     0.000324
      g-4     :     0.000000
      h0      :     0.013848  h :     0.015545
      h+1     :     0.001208
      h-1     :     0.000025
      h+2     :     0.000132
      h-2     :     0.000000
      h+3     :     0.000120
      h-3     :     0.000014
      h+4     :     0.000039
      h-4     :     0.000000
      h+5     :     0.000037
      h-5     :     0.000123
  1 B s       :     2.438180  s :     2.438180
      pz      :     0.911498  p :     1.528610
      px      :     0.497414
      py      :     0.119697
      dz2     :     0.134522  d :     0.288166
      dxz     :     0.062438
      dyz     :     0.090819
      dx2y2   :     0.000387
      dxy     :     0.000000
      f0      :     0.031404  f :     0.089017
      f+1     :     0.020696
      f-1     :     0.036273
      f+2     :     0.000633
      f-2     :     0.000000
      f+3     :     0.000007
      f-3     :     0.000004
      g0      :     0.007738  g :     0.026736
      g+1     :     0.006839
      g-1     :     0.011728
      g+2     :     0.000410
      g-2     :     0.000000
      g+3     :     0.000001
      g-3     :     0.000019
      g+4     :     0.000002
      g-4     :     0.000000
      h0      :     0.000888  h :     0.005633
      h+1     :     0.000839
      h-1     :     0.003367
      h+2     :     0.000443
      h-2     :     0.000000
      h+3     :     0.000001
      h-3     :     0.000088
      h+4     :     0.000003
      h-4     :     0.000000
      h+5     :     0.000003
      h-5     :     0.000000
  2 H s       :     0.679175  s :     0.679175
      pz      :     0.125823  p :     0.375977
      px      :     0.110565
      py      :     0.139589
      dz2     :     0.078500  d :     0.284044
      dxz     :     0.036224
      dyz     :     0.065271
      dx2y2   :     0.052858
      dxy     :     0.051191
      f0      :     0.021168  f :     0.116036
      f+1     :     0.007124
      f-1     :     0.036753
      f+2     :     0.011440
      f-2     :     0.016445
      f+3     :     0.008954
      f-3     :     0.014153
      g0      :     0.010794  g :     0.048836
      g+1     :     0.003444
      g-1     :     0.012607
      g+2     :     0.006525
      g-2     :     0.005254
      g+3     :     0.003564
      g-3     :     0.001589
      g+4     :     0.003947
      g-4     :     0.001111
  3 H s       :     0.679175  s :     0.679175
      pz      :     0.125823  p :     0.375977
      px      :     0.110565
      py      :     0.139589
      dz2     :     0.078500  d :     0.284044
      dxz     :     0.036224
      dyz     :     0.065271
      dx2y2   :     0.052858
      dxy     :     0.051191
      f0      :     0.021168  f :     0.116036
      f+1     :     0.007124
      f-1     :     0.036753
      f+2     :     0.011440
      f-2     :     0.016445
      f+3     :     0.008954
      f-3     :     0.014153
      g0      :     0.010794  g :     0.048836
      g+1     :     0.003444
      g-1     :     0.012607
      g+2     :     0.006525
      g-2     :     0.005254
      g+3     :     0.003564
      g-3     :     0.001589
      g+4     :     0.003947
      g-4     :     0.001111
  4 H s       :     0.790210  s :     0.790210
      pz      :     0.120729  p :     0.191425
      px      :     0.062063
      py      :     0.008633
      dz2     :     0.070013  d :     0.145592
      dxz     :     0.058568
      dyz     :     0.017004
      dx2y2   :     0.000006
      dxy     :     0.000000
      f0      :     0.043010  f :     0.099872
      f+1     :     0.033967
      f-1     :     0.022844
      f+2     :     0.000048
      f-2     :     0.000000
      f+3     :     0.000000
      f-3     :     0.000003
      g0      :     0.022613  g :     0.071686
      g+1     :     0.021895
      g-1     :     0.026865
      g+2     :     0.000297
      g-2     :    -0.000000
      g+3     :     0.000000
      g-3     :     0.000013
      g+4     :     0.000003
      g-4     :     0.000000

SPIN
  0 C s       :     0.000000  s :     0.000000
      pz      :     0.000000  p :     0.000000
      px      :     0.000000
      py      :     0.000000
      dz2     :    -0.000000  d :    -0.000000
      dxz     :    -0.000000
      dyz     :    -0.000000
      dx2y2   :    -0.000000
      dxy     :     0.000000
      f0      :    -0.000000  f :    -0.000000
      f+1     :    -0.000000
      f-1     :    -0.000000
      f+2     :     0.000000
      f-2     :     0.000000
      f+3     :    -0.000000
      f-3     :     0.000000
      g0      :     0.000000  g :     0.000000
      g+1     :    -0.000000
      g-1     :    -0.000000
      g+2     :    -0.000000
      g-2     :     0.000000
      g+3     :     0.000000
      g-3     :    -0.000000
      g+4     :     0.000000
      g-4     :    -0.000000
      h0      :     0.000000  h :     0.000000
      h+1     :    -0.000000
      h-1     :    -0.000000
      h+2     :     0.000000
      h-2     :    -0.000000
      h+3     :     0.000000
      h-3     :    -0.000000
      h+4     :    -0.000000
      h-4     :    -0.000000
      h+5     :     0.000000
      h-5     :     0.000000
  1 B s       :    -0.000000  s :    -0.000000
      pz      :    -0.000000  p :    -0.000000
      px      :    -0.000000
      py      :    -0.000000
      dz2     :     0.000000  d :     0.000000
      dxz     :     0.000000
      dyz     :     0.000000
      dx2y2   :     0.000000
      dxy     :     0.000000
      f0      :    -0.000000  f :    -0.000000
      f+1     :     0.000000
      f-1     :    -0.000000
      f+2     :    -0.000000
      f-2     :     0.000000
      f+3     :     0.000000
      f-3     :    -0.000000
      g0      :     0.000000  g :     0.000000
      g+1     :     0.000000
      g-1     :     0.000000
      g+2     :    -0.000000
      g-2     :     0.000000
      g+3     :    -0.000000
      g-3     :    -0.000000
      g+4     :    -0.000000
      g-4     :    -0.000000
      h0      :     0.000000  h :    -0.000000
      h+1     :     0.000000
      h-1     :    -0.000000
      h+2     :    -0.000000
      h-2     :     0.000000
      h+3     :     0.000000
      h-3     :    -0.000000
      h+4     :    -0.000000
      h-4     :    -0.000000
      h+5     :     0.000000
      h-5     :     0.000000
  2 H s       :    -0.000000  s :    -0.000000
      pz      :     0.000000  p :     0.000000
      px      :     0.000000
      py      :     0.000000
      dz2     :    -0.000000  d :    -0.000000
      dxz     :     0.000000
      dyz     :    -0.000000
      dx2y2   :    -0.000000
      dxy     :     0.000000
      f0      :     0.000000  f :     0.000000
      f+1     :    -0.000000
      f-1     :     0.000000
      f+2     :     0.000000
      f-2     :    -0.000000
      f+3     :     0.000000
      f-3     :     0.000000
      g0      :     0.000000  g :    -0.000000
      g+1     :    -0.000000
      g-1     :    -0.000000
      g+2     :     0.000000
      g-2     :    -0.000000
      g+3     :     0.000000
      g-3     :    -0.000000
      g+4     :    -0.000000
      g-4     :     0.000000
  3 H s       :    -0.000000  s :    -0.000000
      pz      :     0.000000  p :     0.000000
      px      :     0.000000
      py      :     0.000000
      dz2     :     0.000000  d :    -0.000000
      dxz     :     0.000000
      dyz     :    -0.000000
      dx2y2   :    -0.000000
      dxy     :     0.000000
      f0      :    -0.000000  f :    -0.000000
      f+1     :    -0.000000
      f-1     :     0.000000
      f+2     :     0.000000
      f-2     :    -0.000000
      f+3     :    -0.000000
      f-3     :    -0.000000
      g0      :    -0.000000  g :    -0.000000
      g+1     :    -0.000000
      g-1     :    -0.000000
      g+2     :     0.000000
      g-2     :    -0.000000
      g+3     :    -0.000000
      g-3     :    -0.000000
      g+4     :     0.000000
      g-4     :     0.000000
  4 H s       :     0.000000  s :     0.000000
      pz      :    -0.000000  p :    -0.000000
      px      :    -0.000000
      py      :     0.000000
      dz2     :    -0.000000  d :    -0.000000
      dxz     :    -0.000000
      dyz     :     0.000000
      dx2y2   :     0.000000
      dxy     :    -0.000000
      f0      :     0.000000  f :     0.000000
      f+1     :     0.000000
      f-1     :     0.000000
      f+2     :    -0.000000
      f-2     :     0.000000
      f+3     :     0.000000
      f-3     :     0.000000
      g0      :     0.000000  g :     0.000000
      g+1     :     0.000000
      g-1     :    -0.000000
      g+2     :    -0.000000
      g-2     :     0.000000
      g+3     :    -0.000000
      g-3     :     0.000000
      g+4     :     0.000000
      g-4     :    -0.000000


                      *****************************
                      * MAYER POPULATION ANALYSIS *
                      *****************************

  NA   - Mulliken gross atomic population
  ZA   - Total nuclear charge
  QA   - Mulliken gross atomic charge
  VA   - Mayer's total valence
  BVA  - Mayer's bonded valence
  FA   - Mayer's free valence

  ATOM       NA         ZA         QA         VA         BVA        FA
  0 C      6.1423     6.0000    -0.1423     3.7694     3.7694     0.0000
  1 B      5.4037     5.0000    -0.4037     3.1283     3.1283     0.0000
  2 H      0.7999     1.0000     0.2001     0.8960     0.8960     0.0000
  3 H      0.8002     1.0000     0.1998     0.8966     0.8966    -0.0000
  4 H      0.8538     1.0000     0.1462     0.9342     0.9342     0.0000

  Mayer bond orders larger than 0.1
B(  0-C ,  1-B ) :   2.1461 B(  0-C ,  2-H ) :   0.8321 B(  0-C ,  3-H ) :   0.8324 
B(  1-B ,  4-H ) :   0.9364 

-------
TIMINGS
-------

Total SCF time: 0 days 0 hours 53 min 6 sec 

Total time                  ....    3186.979 sec
Sum of individual times     ....    3184.711 sec  ( 99.9%)

Fock matrix formation       ....    3174.997 sec  ( 99.6%)
  XC integration            ....      52.718 sec  (  1.7% of F)
    Basis function eval.    ....       2.594 sec  (  4.9% of XC)
    Density eval.           ....      16.047 sec  ( 30.4% of XC)
    XC-Functional eval.     ....       0.243 sec  (  0.5% of XC)
    XC-Potential eval.      ....      30.526 sec  ( 57.9% of XC)
Diagonalization             ....       4.382 sec  (  0.1%)
Density matrix formation    ....       0.063 sec  (  0.0%)
Population analysis         ....       0.313 sec  (  0.0%)
Initial guess               ....       1.831 sec  (  0.1%)
Orbital Transformation      ....       0.000 sec  (  0.0%)
Orbital Orthonormalization  ....       0.000 sec  (  0.0%)
DIIS solution               ....       2.561 sec  (  0.1%)
Grid generation             ....       0.562 sec  (  0.0%)

-------------------------   --------------------
FINAL SINGLE POINT ENERGY       -64.607461009375
-------------------------   --------------------


                            ***************************************
                            *     ORCA property calculations      *
                            ***************************************

                                    ---------------------
                                    Active property flags
                                    ---------------------
   (+) Dipole Moment
   (+) Polarizability


------------------------------------------------------------------------------
                       ORCA ELECTRIC PROPERTIES CALCULATION
------------------------------------------------------------------------------

Dipole Moment Calculation                       ... on
Quadrupole Moment Calculation                   ... off
Polarizability Calculation                      ... Analytic (CP-SCF)
GBWName                                         ... ch2bh_pbe.gbw
Electron density file                           ... ch2bh_pbe.scfp.tmp
The origin for moment calculation is the CENTER OF MASS  = ( 0.000000,  0.000000 -0.073732)

-------------
DIPOLE MOMENT
-------------
                                X             Y             Z
Electronic contribution:      0.00000      -0.00000      -1.23215
Nuclear contribution   :      0.00000       0.00000       1.03187
                        -----------------------------------------
Total Dipole Moment    :      0.00000      -0.00000      -0.20028
                        -----------------------------------------
Magnitude (a.u.)       :      0.20028
Magnitude (Debye)      :      0.50908



--------------------
Rotational spectrum 
--------------------
 
Rotational constants in cm-1:     9.937647     0.961011     0.876272 
Rotational constants in MHz : 297923.176036 28810.382859 26269.969921 

 Dipole components along the rotational axes: 
x,y,z [a.u.] :    -0.200285    -0.000000     0.000000 
x,y,z [Debye]:    -0.509083    -0.000000     0.000000 

 
Transforming and storing MO dipole integrals   ... done

                ... starting polarizability calculation

Opening the Dipole integral file               ... (ch2bh_pbe.dmo.tmp) done
Reading Dipole-MO integrals                    ... done
Solving CP-SCF equations                       ... 

           ************************************************************
           *        Program running with 4 parallel MPI-processes     *
           *              working on a common directory               *
           ************************************************************

------------------------------------------------------------------------------
                           ORCA CP-SCF CALCULATION
------------------------------------------------------------------------------

Input orbitals are from        ... ch2bh_pbe.gbw
Input Perturbation             ... ch2bh_pbe.cpv.tmp
Wavefunction output            ... ch2bh_pbe.cpu.tmp
Perturbation mode              ... Real perturbation (singlet)
Solver                         ... POPLE
Max. number of iterations      ... 200
Convergence tolerance          ... 1.000e-06
Integral handling              ... Direct
Number of perturbations        ... 3
Number of operators            ... 2
Orbital ranges used for CP-SCF:
 Operator 0:  Orbitals   0...  6  to   7...553
 Operator 1:  Orbitals   0...  6  to   7...553
DFT calculation                         ... on
Exchange functional (SCF)               ... PBE
Exchange functional (CP-SCF)            ... PBE
   PBE kappa parameter  XKappa (SCF)    ...  0.804000
   PBE kappa parameter  XKappa (CP-SCF) ...  0.804000
   PBE mue parameter   XMuePBE (SCF)    ...  0.219520
   PBE mue parameter   XMuePBE (CP-SCF) ...  0.219520
Correlation functional (SCF)            ... PBE
Correlation functional (CP-SCF)         ... PBE
   PBE beta parameter CBetaPBE (SCF)    ...  0.066725
   PBE beta parameter CBetaPBE (CP-SCF) ...  0.066725
 LDA part of GGA corr.  LDAOpt (SCF)    ... PW91-LDA
 LDA part of GGA corr.  LDAOpt (CP-SCF) ... PW91-LDA
Variables per vector in CP-SCF ... 7658
Number of vectors sought       ... 3
Recalculating density on grid  ... done
Calculating the xc-kernel      ... done
     CP-SCF ITERATION   0: 
     CP-SCF ITERATION   1:      0.770787815227
     CP-SCF ITERATION   2:      0.056557192205
     CP-SCF ITERATION   3:      0.000847060239
     CP-SCF ITERATION   4:      0.000004002130
     CP-SCF ITERATION   5:      0.000000107917
done
Reading CP-SCF coefficients                    ... done
Doing the polarizability tensor   ... done
Cleaning up                                    ... done

-------------------------
THE POLARIZABILITY TENSOR
-------------------------

The raw cartesian tensor (atomic units):
   29.91578      0.00000     -0.00000  
    0.00000     25.73144      0.00000  
   -0.00000      0.00000     40.72580  
diagonalized tensor: 
   25.73144     29.91578     40.72580  

   -0.00000      1.00000     -0.00000  
    1.00000      0.00000      0.00000  
   -0.00000      0.00000      1.00000  

Isotropic polarizability :  32.12434


Timings for individual modules:

Sum of individual times         ...     5365.714 sec (=  89.429 min)
GTO integral calculation        ...       10.008 sec (=   0.167 min)   0.2 %
SCF iterations                  ...     3192.801 sec (=  53.213 min)  59.5 %
Solution of CP-SCF eqns.        ...     2162.905 sec (=  36.048 min)  40.3 %
                             ****ORCA TERMINATED NORMALLY****
TOTAL RUN TIME: 0 days 1 hours 29 minutes 28 seconds 926 msec
