
                                 *****************
                                 * O   R   C   A *
                                 *****************

           --- An Ab Initio, DFT and Semiempirical electronic structure package ---

                  #######################################################
                  #                        -***-                        #
                  #          Department of theory and spectroscopy      #
                  #               Directorship: Frank Neese             #
                  #        Max Planck Institute fuer Kohlenforschung    #
                  #                Kaiser Wilhelm Platz 1               #
                  #                 D-45470 Muelheim/Ruhr               #
                  #                      Germany                        #
                  #                                                     #
                  #                  All rights reserved                #
                  #                        -***-                        #
                  #######################################################


                         Program Version 4.1.2  - RELEASE  -


 With contributions from (in alphabetic order):
   Daniel Aravena         : Magnetic Properties
   Michael Atanasov       : Ab Initio Ligand Field Theory
   Alexander A. Auer      : GIAO ZORA
   Ute Becker             : Parallelization
   Giovanni Bistoni       : ED, Open-shell LED
   Martin Brehm           : Molecular dynamics
   Dmytro Bykov           : SCF Hessian
   Vijay G. Chilkuri      : MRCI spin determinant printing
   Dipayan Datta          : RHF DLPNO-CCSD density
   Achintya Kumar Dutta   : EOM-CC, STEOM-CC
   Dmitry Ganyushin       : Spin-Orbit,Spin-Spin,Magnetic field MRCI
   Miquel Garcia          : C-PCM Hessian
   Yang Guo               : DLPNO-NEVPT2, CIM, IAO-localization
   Andreas Hansen         : Spin unrestricted coupled pair/coupled cluster methods
   Benjamin Helmich-Paris : CASSCF linear response (MC-RPA)
   Lee Huntington         : MR-EOM, pCC
   Robert Izsak           : Overlap fitted RIJCOSX, COSX-SCS-MP3, EOM
   Christian Kollmar      : KDIIS, OOCD, Brueckner-CCSD(T), CCSD density
   Simone Kossmann        : Meta GGA functionals, TD-DFT gradient, OOMP2, MP2 Hessian
   Martin Krupicka        : AUTO-CI
   Lucas Lang             : DCDCAS
   Dagmar Lenk            : GEPOL surface, SMD
   Dimitrios Liakos       : Extrapolation schemes; parallel MDCI
   Dimitrios Manganas     : ROCIS; embedding schemes
   Dimitrios Pantazis     : SARC Basis sets
   Taras Petrenko         : DFT Hessian,TD-DFT gradient, ASA, ECA, R-Raman, ABS, FL, XAS/XES, NRVS
   Peter Pinski           : DLPNO-MP2, DLPNO-MP2 Gradient
   Christoph Reimann      : Effective Core Potentials
   Marius Retegan         : Local ZFS, SOC
   Christoph Riplinger    : Optimizer, TS searches, QM/MM, DLPNO-CCSD(T), (RO)-DLPNO pert. Triples
   Tobias Risthaus        : Range-separated hybrids, TD-DFT gradient, RPA, STAB
   Michael Roemelt        : Restricted open shell CIS
   Masaaki Saitow         : Open-shell DLPNO
   Barbara Sandhoefer     : DKH picture change effects
   Avijit Sen             : IP-ROCIS
   Kantharuban Sivalingam : CASSCF convergence, NEVPT2, FIC-MRCI
   Bernardo de Souza      : ESD, SOC TD-DFT
   Georgi Stoychev        : AutoAux, RI-MP2 NMR
   Willem Van den Heuvel  : Paramagnetic NMR
   Boris Wezisla          : Elementary symmetry handling
   Frank Wennmohs         : Technical directorship


 We gratefully acknowledge several colleagues who have allowed us to
 interface, adapt or use parts of their codes:
   Stefan Grimme, W. Hujo, H. Kruse,             : VdW corrections, initial TS optimization,
                  C. Bannwarth                     DFT functionals, gCP, sTDA/sTD-DF
   Ed Valeev                                     : LibInt (2-el integral package), F12 methods
   Garnet Chan, S. Sharma, J. Yang, R. Olivares  : DMRG
   Ulf Ekstrom                                   : XCFun DFT Library
   Mihaly Kallay                                 : mrcc  (arbitrary order and MRCC methods)
   Andreas Klamt, Michael Diedenhofen            : otool_cosmo (COSMO solvation model)
   Jiri Pittner, Ondrej Demel                    : Mk-CCSD
   Frank Weinhold                                : gennbo (NPA and NBO analysis)
   Christopher J. Cramer and Donald G. Truhlar   : smd solvation model
   Lars Goerigk                                  : TD-DFT with DH, B97 family of functionals
   V. Asgeirsson, H. Jonsson                     : NEB implementation
   FAccTs GmbH                                   : IRC, NEB, NEB-TS, Multilevel


 Your calculation uses the libint2 library for the computation of 2-el integrals
 For citations please refer to: http://libint.valeyev.net

 This ORCA versions uses:
   CBLAS   interface :  Fast vector & matrix operations
   LAPACKE interface :  Fast linear algebra routines
   SCALAPACK package :  Parallel linear algebra routines


----- Orbital basis set information -----
Your calculation utilizes the basis: aug-pc-4
   H, C-F              : F. Jensen, J. Chem. Phys. 115, 9113 (2001).
                         F. Jensen, J. Chem. Phys. 116, 7372 (2002).
                         F. Jensen, J. Chem. Phys. 117, 9234 (2002).
   Si-Cl               : F. Jensen, T. Helgaker, J. Chem. Phys. 121, 3463 (2004).
   He-B, Ne-Mg, Al, Ar : F. Jensen, J. Phys. Chem. A 111, 11198 (2007).
   K, Ca, Ga-Kr        : F. Jensen, J. Chem. Phys. 136, 094110 (2012).
   Sc-Zn               : F. Jensen, J. Chem. Phys. 138, 014107 (2013).

================================================================================
                                        WARNINGS
                       Please study these warnings very carefully!
================================================================================


INFO   : the flag for use of LIBINT has been found!

================================================================================
                                       INPUT FILE
================================================================================
NAME = ch2nh_pbe.inp
|  1> !uks pbe nori aug-pc-4 grid5 nofinalgrid verytightscf
|  2> 
|  3> %maxcore 1500
|  4> 
|  5> %pal nprocs 4 end
|  6> 
|  7> %scf
|  8> 	maxiter 200
|  9> end
| 10> %elprop
| 11> 	dipole true
| 12> 	 polar 1
| 13> 	 maxiter 200
| 14> end
| 15> 
| 16> * xyz 0 1
| 17> C 0.0588 0 0.5875
| 18> N 0.0588 0 -0.6855
| 19> H -0.8621 0 1.1946
| 20> H 0.9977 0 1.1231
| 21> H -0.8995 0 -1.0438
| 22> *
| 23> 
| 24>                          ****END OF INPUT****
================================================================================

                       ****************************
                       * Single Point Calculation *
                       ****************************

---------------------------------
CARTESIAN COORDINATES (ANGSTROEM)
---------------------------------
  C      0.058800    0.000000    0.587500
  N      0.058800    0.000000   -0.685500
  H     -0.862100    0.000000    1.194600
  H      0.997700    0.000000    1.123100
  H     -0.899500    0.000000   -1.043800

----------------------------
CARTESIAN COORDINATES (A.U.)
----------------------------
  NO LB      ZA    FRAG     MASS         X           Y           Z
   0 C     6.0000    0    12.011    0.111116    0.000000    1.110214
   1 N     7.0000    0    14.007    0.111116    0.000000   -1.295407
   2 H     1.0000    0     1.008   -1.629133    0.000000    2.257467
   3 H     1.0000    0     1.008    1.885380    0.000000    2.122351
   4 H     1.0000    0     1.008   -1.699809    0.000000   -1.972496

--------------------------------
INTERNAL COORDINATES (ANGSTROEM)
--------------------------------
 C      0   0   0     0.000000000000     0.00000000     0.00000000
 N      1   0   0     1.273000000000     0.00000000     0.00000000
 H      1   2   0     1.103008259262   123.39472365     0.00000000
 H      1   2   3     1.080925793013   119.70280378   180.00000085
 H      2   1   3     1.023092263679   110.50033108     0.00000000

---------------------------
INTERNAL COORDINATES (A.U.)
---------------------------
 C      0   0   0     0.000000000000     0.00000000     0.00000000
 N      1   0   0     2.405621368482     0.00000000     0.00000000
 H      1   2   0     2.084383533458   123.39472365     0.00000000
 H      1   2   3     2.042653719886   119.70280378   180.00000085
 H      2   1   3     1.933364188087   110.50033108     0.00000000

---------------------
BASIS SET INFORMATION
---------------------
There are 3 groups of distinct atoms

 Group   1 Type C   : 28s12p7d4f3g2h contracted to 9s8p7d4f3g2h pattern {11101111111/51111111/1111111/1111/111/11}
 Group   2 Type N   : 27s12p7d4f3g2h contracted to 9s8p7d4f3g2h pattern {1191111111/51111111/1111111/1111/111/11}
 Group   3 Type H   : 12s7p4d3f2g contracted to 8s7p4d3f2g pattern {51111111/1111111/1111/111/11}

Atom   0C    basis set group =>   1
Atom   1N    basis set group =>   2
Atom   2H    basis set group =>   3
Atom   3H    basis set group =>   3
Atom   4H    basis set group =>   3


           ************************************************************
           *        Program running with 4 parallel MPI-processes     *
           *              working on a common directory               *
           ************************************************************
------------------------------------------------------------------------------
                           ORCA GTO INTEGRAL CALCULATION
------------------------------------------------------------------------------

                         BASIS SET STATISTICS AND STARTUP INFO

 # of primitive gaussian shells          ...  195
 # of primitive gaussian functions       ...  627
 # of contracted shells                  ...  138
 # of contracted basis functions         ...  554
 Highest angular momentum                ...    5
 Maximum contraction depth               ...   11
 Integral package used                   ... LIBINT
 Integral threshhold            Thresh   ...  1.000e-12
 Primitive cut-off              TCut     ...  1.000e-14


------------------------------ INTEGRAL EVALUATION ----------------------------


 * One electron integrals 
 Pre-screening matrix                    ... done
 Shell pair data                         ... done (   0.003 sec)



           ************************************************************
           *        Program running with 4 parallel MPI-processes     *
           *              working on a common directory               *
           ************************************************************
-------------------------------------------------------------------------------
                                 ORCA SCF
-------------------------------------------------------------------------------

------------
SCF SETTINGS
------------
Hamiltonian:
 Density Functional     Method          .... DFT(GTOs)
 Exchange Functional    Exchange        .... PBE
   PBE kappa parameter   XKappa         ....  0.804000
   PBE mue parameter    XMuePBE         ....  0.219520
 Correlation Functional Correlation     .... PBE
   PBE beta parameter  CBetaPBE         ....  0.066725
 LDA part of GGA corr.  LDAOpt          .... PW91-LDA
 Gradients option       PostSCFGGA      .... off
   Density functional embedding theory  .... OFF
   NL short-range parameter             ....  6.400000


General Settings:
 Integral files         IntName         .... ch2nh_pbe
 Hartree-Fock type      HFTyp           .... UHF
 Total Charge           Charge          ....    0
 Multiplicity           Mult            ....    1
 Number of Electrons    NEL             ....   16
 Basis Dimension        Dim             ....  554
 Nuclear Repulsion      ENuc            ....     32.8654361262 Eh

Convergence Acceleration:
 DIIS                   CNVDIIS         .... on
   Start iteration      DIISMaxIt       ....    12
   Startup error        DIISStart       ....  0.200000
   # of expansion vecs  DIISMaxEq       ....     5
   Bias factor          DIISBfac        ....   1.050
   Max. coefficient     DIISMaxC        ....  10.000
 Newton-Raphson         CNVNR           .... off
 SOSCF                  CNVSOSCF        .... off
 Level Shifting         CNVShift        .... on
   Level shift para.    LevelShift      ....    0.2500
   Turn off err/grad.   ShiftErr        ....    0.0010
 Zerner damping         CNVZerner       .... off
 Static damping         CNVDamp         .... on
   Fraction old density DampFac         ....    0.7000
   Max. Damping (<1)    DampMax         ....    0.9800
   Min. Damping (>=0)   DampMin         ....    0.0000
   Turn off err/grad.   DampErr         ....    0.1000
 Fernandez-Rico         CNVRico         .... off

SCF Procedure:
 Maximum # iterations   MaxIter         ....   200
 SCF integral mode      SCFMode         .... Direct
   Integral package                     .... LIBINT
 Reset frequency        DirectResetFreq ....    20
 Integral Threshold     Thresh          ....  1.000e-12 Eh
 Primitive CutOff       TCut            ....  1.000e-14 Eh

Convergence Tolerance:
 Convergence Check Mode ConvCheckMode   .... Total+1el-Energy
 Convergence forced     ConvForced      .... 0
 Energy Change          TolE            ....  1.000e-09 Eh
 1-El. energy change                    ....  1.000e-06 Eh
 DIIS Error             TolErr          ....  1.000e-08


Diagonalization of the overlap matrix:
Smallest eigenvalue                        ... 5.382e-08
Time for diagonalization                   ...    0.068 sec
Threshold for overlap eigenvalues          ... 1.000e-08
Number of eigenvalues below threshold      ... 0
Time for construction of square roots      ...    0.106 sec
Total time needed                          ...    0.176 sec

-------------------
DFT GRID GENERATION
-------------------

General Integration Accuracy     IntAcc      ...  5.010
Radial Grid Type                 RadialGrid  ... Gauss-Chebyshev
Angular Grid (max. acc.)         AngularGrid ... Lebedev-434
Angular grid pruning method      GridPruning ... 3 (G Style)
Weight generation scheme         WeightScheme... Becke
Basis function cutoff            BFCut       ...    1.0000e-12
Integration weight cutoff        WCut        ...    1.0000e-14
Grids for H and He will be reduced by one unit

# of grid points (after initial pruning)     ...  41364 (   0.0 sec)
# of grid points (after weights+screening)   ...  40318 (   0.0 sec)
nearest neighbour list constructed           ...    0.0 sec
Grid point re-assignment to atoms done       ...    0.0 sec
Grid point division into batches done        ...    0.3 sec
Reduced shell lists constructed in    0.4 sec

Total number of grid points                  ...    40318
Total number of batches                      ...      633
Average number of points per batch           ...       63
Average number of grid points per atom       ...     8064
Average number of shells per batch           ...   110.78 (80.27%)
Average number of basis functions per batch  ...   458.74 (82.80%)
Average number of large shells per batch     ...   100.53 (90.75%)
Average number of large basis fcns per batch ...   418.93 (91.32%)
Maximum spatial batch extension              ...  14.62, 18.05, 15.20 au
Average spatial batch extension              ...   0.48,  0.60,  0.49 au

Time for grid setup =    0.475 sec

------------------------------
INITIAL GUESS: MODEL POTENTIAL
------------------------------
Loading Hartree-Fock densities                     ... done
Calculating cut-offs                               ... done
Setting up the integral package                    ... done
Initializing the effective Hamiltonian             ... done
Starting the Coulomb interaction                   ... done (   0.1 sec)
Reading the grid                                   ... done
Mapping shells                                     ... done
Starting the XC term evaluation                    ... done (   1.4 sec)
  promolecular density results
     # of electrons  =     15.998530122
     EX              =    -12.477073341
     EC              =     -0.499773241
     EX+EC           =    -12.976846581
Transforming the Hamiltonian                       ... done (   0.0 sec)
Diagonalizing the Hamiltonian                      ... done (   0.1 sec)
Back transforming the eigenvectors                 ... done (   0.0 sec)
Now organizing SCF variables                       ... done
                      ------------------
                      INITIAL GUESS DONE (   2.1 sec)
                      ------------------
--------------
SCF ITERATIONS
--------------
ITER       Energy         Delta-E        Max-DP      RMS-DP      [F,P]     Damp
               ***  Starting incremental Fock matrix formation  ***
  0    -94.4638308880   0.000000000000 0.01470889  0.00015738  0.2505756 0.7000
  1    -94.5126236744  -0.048792786379 0.01362517  0.00010862  0.0842790 0.7000
                               ***Turning on DIIS***
  2    -94.5247524974  -0.012128823033 0.01419935  0.00015084  0.0311115 0.0000
  3    -94.5493378169  -0.024585319434 0.01352169  0.00008871  0.0522899 0.0000
  4    -94.5539674773  -0.004629660410 0.00286038  0.00002855  0.0290739 0.0000
  5    -94.5551952606  -0.001227783333 0.00118503  0.00001147  0.0051854 0.0000
  6    -94.5552367453  -0.000041484735 0.00094181  0.00000872  0.0013821 0.0000
  7    -94.5552394013  -0.000002655930 0.00089461  0.00000768  0.0003175 0.0000
  8    -94.5552396977  -0.000000296433 0.00004773  0.00000031  0.0000617 0.0000
  9    -94.5552397019  -0.000000004238 0.00001052  0.00000006  0.0000239 0.0000
 10    -94.5552397031  -0.000000001202 0.00001482  0.00000009  0.0000066 0.0000
 11    -94.5552397032  -0.000000000067 0.00004499  0.00000040  0.0000022 0.0000
 12    -94.5552397032   0.000000000001 0.00010734  0.00000054  0.0000006 0.0000
                 **** Energy Check signals convergence ****

               *****************************************************
               *                     SUCCESS                       *
               *           SCF CONVERGED AFTER  13 CYCLES          *
               *****************************************************


----------------
TOTAL SCF ENERGY
----------------

Total Energy       :          -94.55523970 Eh           -2572.97888 eV

Components:
Nuclear Repulsion  :           32.86543613 Eh             894.31398 eV
Electronic Energy  :         -127.42067583 Eh           -3467.29286 eV
One Electron Energy:         -191.95486193 Eh           -5223.35734 eV
Two Electron Energy:           64.53418610 Eh            1756.06448 eV

Virial components:
Potential Energy   :         -188.73375388 Eh           -5135.70654 eV
Kinetic Energy     :           94.17851417 Eh            2562.72766 eV
Virial Ratio       :            2.00400012


DFT components:
N(Alpha)           :        8.000000047547 electrons
N(Beta)            :        8.000000047547 electrons
N(Total)           :       16.000000095094 electrons
E(X)               :      -12.769416950024 Eh       
E(C)               :       -0.505580502625 Eh       
E(XC)              :      -13.274997452649 Eh       
DFET-embed. en.    :        0.000000000000 Eh       

---------------
SCF CONVERGENCE
---------------

  Last Energy change         ...   -3.8511e-12  Tolerance :   1.0000e-09
  Last MAX-Density change    ...    2.0525e-04  Tolerance :   1.0000e-08
  Last RMS-Density change    ...    1.0156e-06  Tolerance :   1.0000e-09
  Last DIIS Error            ...    7.6265e-08  Tolerance :   1.0000e-08

             **** THE GBW FILE WAS UPDATED (ch2nh_pbe.gbw) ****
             **** DENSITY FILE WAS UPDATED (ch2nh_pbe.scfp.tmp) ****
             **** ENERGY FILE WAS UPDATED (ch2nh_pbe.en.tmp) ****
----------------------
UHF SPIN CONTAMINATION
----------------------

Warning: in a DFT calculation there is little theoretical justification to 
         calculate <S**2> as in Hartree-Fock theory. We will do it anyways
         but you should keep in mind that the values have only limited relevance

Expectation value of <S**2>     :    -0.000000
Ideal value S*(S+1) for S=0.0   :     0.000000
Deviation                       :    -0.000000

----------------
ORBITAL ENERGIES
----------------
                 SPIN UP ORBITALS
  NO   OCC          E(Eh)            E(eV) 
   0   1.0000     -13.986613      -380.5951 
   1   1.0000      -9.933491      -270.3040 
   2   1.0000      -0.829711       -22.5776 
   3   1.0000      -0.566042       -15.4028 
   4   1.0000      -0.453575       -12.3424 
   5   1.0000      -0.386825       -10.5260 
   6   1.0000      -0.306280        -8.3343 
   7   1.0000      -0.232650        -6.3307 
   8   0.0000      -0.067697        -1.8421 
   9   0.0000      -0.018843        -0.5128 
  10   0.0000       0.000977         0.0266 
  11   0.0000       0.012634         0.3438 
  12   0.0000       0.017501         0.4762 
  13   0.0000       0.030806         0.8383 
  14   0.0000       0.035441         0.9644 
  15   0.0000       0.039324         1.0701 
  16   0.0000       0.045448         1.2367 
  17   0.0000       0.050933         1.3860 
  18   0.0000       0.054718         1.4890 
  19   0.0000       0.058237         1.5847 
  20   0.0000       0.066848         1.8190 
  21   0.0000       0.069239         1.8841 
  22   0.0000       0.081673         2.2224 
  23   0.0000       0.086581         2.3560 
  24   0.0000       0.095812         2.6072 
  25   0.0000       0.100800         2.7429 
  26   0.0000       0.115898         3.1538 
  27   0.0000       0.117944         3.2094 
  28   0.0000       0.118670         3.2292 
  29   0.0000       0.125731         3.4213 
  30   0.0000       0.125929         3.4267 
  31   0.0000       0.128319         3.4917 
  32   0.0000       0.134019         3.6468 
  33   0.0000       0.135059         3.6751 
  34   0.0000       0.146155         3.9771 
  35   0.0000       0.148108         4.0302 
  36   0.0000       0.160163         4.3582 
  37   0.0000       0.165133         4.4935 
  38   0.0000       0.166833         4.5397 
  39   0.0000       0.180372         4.9082 
  40   0.0000       0.184004         5.0070 
  41   0.0000       0.190694         5.1891 
  42   0.0000       0.196932         5.3588 
  43   0.0000       0.199628         5.4322 
  44   0.0000       0.207062         5.6344 
  45   0.0000       0.217021         5.9055 
  46   0.0000       0.218382         5.9425 
  47   0.0000       0.223609         6.0847 
  48   0.0000       0.225978         6.1492 
  49   0.0000       0.236533         6.4364 
  50   0.0000       0.242519         6.5993 
  51   0.0000       0.249214         6.7815 
  52   0.0000       0.252394         6.8680 
  53   0.0000       0.252917         6.8822 
  54   0.0000       0.259224         7.0538 
  55   0.0000       0.265921         7.2361 
  56   0.0000       0.276207         7.5160 
  57   0.0000       0.279169         7.5966 
  58   0.0000       0.280107         7.6221 
  59   0.0000       0.284051         7.7294 
  60   0.0000       0.284699         7.7471 
  61   0.0000       0.290439         7.9033 
  62   0.0000       0.294633         8.0174 
  63   0.0000       0.303902         8.2696 
  64   0.0000       0.305414         8.3107 
  65   0.0000       0.313909         8.5419 
  66   0.0000       0.315900         8.5961 
  67   0.0000       0.322425         8.7736 
  68   0.0000       0.325080         8.8459 
  69   0.0000       0.330782         9.0010 
  70   0.0000       0.333315         9.0700 
  71   0.0000       0.345869         9.4116 
  72   0.0000       0.355516         9.6741 
  73   0.0000       0.358841         9.7646 
  74   0.0000       0.372792        10.1442 
  75   0.0000       0.378135        10.2896 
  76   0.0000       0.384894        10.4735 
  77   0.0000       0.396714        10.7951 
  78   0.0000       0.400259        10.8916 
  79   0.0000       0.407042        11.0762 
  80   0.0000       0.415150        11.2968 
  81   0.0000       0.419938        11.4271 
  82   0.0000       0.424837        11.5604 
  83   0.0000       0.439011        11.9461 
  84   0.0000       0.441200        12.0057 
  85   0.0000       0.449183        12.2229 
  86   0.0000       0.452849        12.3226 
  87   0.0000       0.455427        12.3928 
  88   0.0000       0.459790        12.5115 
  89   0.0000       0.461636        12.5617 
  90   0.0000       0.467034        12.7086 
  91   0.0000       0.472121        12.8471 
  92   0.0000       0.477656        12.9977 
  93   0.0000       0.487525        13.2662 
  94   0.0000       0.488609        13.2957 
  95   0.0000       0.493088        13.4176 
  96   0.0000       0.495389        13.4802 
  97   0.0000       0.501822        13.6553 
  98   0.0000       0.503120        13.6906 
  99   0.0000       0.505835        13.7645 
 100   0.0000       0.508189        13.8285 
 101   0.0000       0.512554        13.9473 
 102   0.0000       0.513348        13.9689 
 103   0.0000       0.516062        14.0428 
 104   0.0000       0.531096        14.4518 
 105   0.0000       0.534166        14.5354 
 106   0.0000       0.537961        14.6387 
 107   0.0000       0.540945        14.7198 
 108   0.0000       0.543507        14.7896 
 109   0.0000       0.554766        15.0960 
 110   0.0000       0.555841        15.1252 
 111   0.0000       0.564002        15.3473 
 112   0.0000       0.578513        15.7421 
 113   0.0000       0.584100        15.8942 
 114   0.0000       0.584828        15.9140 
 115   0.0000       0.588386        16.0108 
 116   0.0000       0.588643        16.0178 
 117   0.0000       0.598741        16.2926 
 118   0.0000       0.601959        16.3801 
 119   0.0000       0.606258        16.4971 
 120   0.0000       0.620853        16.8943 
 121   0.0000       0.636278        17.3140 
 122   0.0000       0.639701        17.4071 
 123   0.0000       0.640784        17.4366 
 124   0.0000       0.647237        17.6122 
 125   0.0000       0.658350        17.9146 
 126   0.0000       0.678201        18.4548 
 127   0.0000       0.685659        18.6577 
 128   0.0000       0.694876        18.9085 
 129   0.0000       0.708132        19.2692 
 130   0.0000       0.709369        19.3029 
 131   0.0000       0.724992        19.7280 
 132   0.0000       0.736379        20.0379 
 133   0.0000       0.740458        20.1489 
 134   0.0000       0.746604        20.3161 
 135   0.0000       0.747627        20.3440 
 136   0.0000       0.760638        20.6980 
 137   0.0000       0.769969        20.9519 
 138   0.0000       0.774031        21.0624 
 139   0.0000       0.783941        21.3321 
 140   0.0000       0.786516        21.4022 
 141   0.0000       0.789757        21.4904 
 142   0.0000       0.797493        21.7009 
 143   0.0000       0.810058        22.0428 
 144   0.0000       0.811792        22.0900 
 145   0.0000       0.815303        22.1855 
 146   0.0000       0.815952        22.2032 
 147   0.0000       0.822670        22.3860 
 148   0.0000       0.826884        22.5007 
 149   0.0000       0.830151        22.5896 
 150   0.0000       0.840710        22.8769 
 151   0.0000       0.844312        22.9749 
 152   0.0000       0.857321        23.3289 
 153   0.0000       0.859966        23.4009 
 154   0.0000       0.862609        23.4728 
 155   0.0000       0.864221        23.5166 
 156   0.0000       0.865737        23.5579 
 157   0.0000       0.871349        23.7106 
 158   0.0000       0.880955        23.9720 
 159   0.0000       0.884515        24.0689 
 160   0.0000       0.889150        24.1950 
 161   0.0000       0.894104        24.3298 
 162   0.0000       0.895370        24.3642 
 163   0.0000       0.901754        24.5380 
 164   0.0000       0.910266        24.7696 
 165   0.0000       0.912962        24.8430 
 166   0.0000       0.920211        25.0402 
 167   0.0000       0.921500        25.0753 
 168   0.0000       0.930882        25.3306 
 169   0.0000       0.936859        25.4932 
 170   0.0000       0.941630        25.6231 
 171   0.0000       0.947749        25.7896 
 172   0.0000       0.947766        25.7900 
 173   0.0000       0.952630        25.9224 
 174   0.0000       0.962588        26.1933 
 175   0.0000       0.962652        26.1951 
 176   0.0000       0.975403        26.5421 
 177   0.0000       0.988817        26.9071 
 178   0.0000       0.996797        27.1242 
 179   0.0000       1.006544        27.3894 
 180   0.0000       1.012032        27.5388 
 181   0.0000       1.016762        27.6675 
 182   0.0000       1.026093        27.9214 
 183   0.0000       1.037332        28.2272 
 184   0.0000       1.047034        28.4912 
 185   0.0000       1.050015        28.5724 
 186   0.0000       1.058472        28.8025 
 187   0.0000       1.062969        28.9249 
 188   0.0000       1.072624        29.1876 
 189   0.0000       1.087873        29.6025 
 190   0.0000       1.095617        29.8133 
 191   0.0000       1.107849        30.1461 
 192   0.0000       1.111152        30.2360 
 193   0.0000       1.120502        30.4904 
 194   0.0000       1.158837        31.5336 
 195   0.0000       1.192625        32.4530 
 196   0.0000       1.198900        32.6237 
 197   0.0000       1.229415        33.4541 
 198   0.0000       1.231775        33.5183 
 199   0.0000       1.240737        33.7622 
 200   0.0000       1.240876        33.7660 
 201   0.0000       1.255945        34.1760 
 202   0.0000       1.293002        35.1844 
 203   0.0000       1.337772        36.4026 
 204   0.0000       1.355612        36.8881 
 205   0.0000       1.393654        37.9233 
 206   0.0000       1.411673        38.4136 
 207   0.0000       1.450571        39.4721 
 208   0.0000       1.476276        40.1715 
 209   0.0000       1.480363        40.2827 
 210   0.0000       1.504461        40.9385 
 211   0.0000       1.528010        41.5793 
 212   0.0000       1.546074        42.0708 
 213   0.0000       1.548602        42.1396 
 214   0.0000       1.576170        42.8898 
 215   0.0000       1.585665        43.1481 
 216   0.0000       1.596889        43.4536 
 217   0.0000       1.608440        43.7679 
 218   0.0000       1.630965        44.3808 
 219   0.0000       1.636075        44.5199 
 220   0.0000       1.677940        45.6591 
 221   0.0000       1.681536        45.7569 
 222   0.0000       1.701720        46.3062 
 223   0.0000       1.705954        46.4214 
 224   0.0000       1.741403        47.3860 
 225   0.0000       1.745185        47.4889 
 226   0.0000       1.753570        47.7171 
 227   0.0000       1.772248        48.2253 
 228   0.0000       1.788270        48.6613 
 229   0.0000       1.823898        49.6308 
 230   0.0000       1.826973        49.7145 
 231   0.0000       1.843683        50.1692 
 232   0.0000       1.898600        51.6635 
 233   0.0000       1.914324        52.0914 
 234   0.0000       1.935410        52.6652 
 235   0.0000       1.935921        52.6791 
 236   0.0000       1.985371        54.0247 
 237   0.0000       2.033174        55.3255 
 238   0.0000       2.105581        57.2958 
 239   0.0000       2.162951        58.8569 
 240   0.0000       2.172021        59.1037 
 241   0.0000       2.174988        59.1844 
 242   0.0000       2.203265        59.9539 
 243   0.0000       2.227472        60.6126 
 244   0.0000       2.252659        61.2980 
 245   0.0000       2.279251        62.0216 
 246   0.0000       2.313816        62.9621 
 247   0.0000       2.329951        63.4012 
 248   0.0000       2.360391        64.2295 
 249   0.0000       2.392946        65.1154 
 250   0.0000       2.423533        65.9477 
 251   0.0000       2.447044        66.5875 
 252   0.0000       2.533077        68.9285 
 253   0.0000       2.544543        69.2405 
 254   0.0000       2.600535        70.7642 
 255   0.0000       2.603633        70.8485 
 256   0.0000       2.693008        73.2805 
 257   0.0000       2.709398        73.7265 
 258   0.0000       2.715690        73.8977 
 259   0.0000       2.827645        76.9441 
 260   0.0000       2.874269        78.2128 
 261   0.0000       2.932984        79.8105 
 262   0.0000       2.934153        79.8424 
 263   0.0000       3.026608        82.3582 
 264   0.0000       3.044097        82.8341 
 265   0.0000       3.102913        84.4346 
 266   0.0000       3.129383        85.1548 
 267   0.0000       3.154281        85.8324 
 268   0.0000       3.169914        86.2578 
 269   0.0000       3.194498        86.9267 
 270   0.0000       3.291982        89.5794 
 271   0.0000       3.297683        89.7345 
 272   0.0000       3.322681        90.4147 
 273   0.0000       3.367880        91.6447 
 274   0.0000       3.393769        92.3492 
 275   0.0000       3.445980        93.7699 
 276   0.0000       3.487496        94.8996 
 277   0.0000       3.494707        95.0958 
 278   0.0000       3.524080        95.8951 
 279   0.0000       3.559106        96.8482 
 280   0.0000       3.606920        98.1493 
 281   0.0000       3.620459        98.5177 
 282   0.0000       3.645398        99.1963 
 283   0.0000       3.685501       100.2876 
 284   0.0000       3.689443       100.3948 
 285   0.0000       3.711500       100.9950 
 286   0.0000       3.751260       102.0770 
 287   0.0000       3.776763       102.7709 
 288   0.0000       3.823625       104.0461 
 289   0.0000       3.878968       105.5521 
 290   0.0000       3.916461       106.5723 
 291   0.0000       3.937446       107.1434 
 292   0.0000       3.983915       108.4078 
 293   0.0000       4.000455       108.8579 
 294   0.0000       4.020242       109.3963 
 295   0.0000       4.027219       109.5862 
 296   0.0000       4.046802       110.1191 
 297   0.0000       4.061127       110.5089 
 298   0.0000       4.092660       111.3670 
 299   0.0000       4.148159       112.8772 
 300   0.0000       4.252963       115.7290 
 301   0.0000       4.291157       116.7683 
 302   0.0000       4.306524       117.1865 
 303   0.0000       4.346887       118.2848 
 304   0.0000       4.410798       120.0239 
 305   0.0000       4.439003       120.7914 
 306   0.0000       4.442568       120.8884 
 307   0.0000       4.488255       122.1316 
 308   0.0000       4.517430       122.9255 
 309   0.0000       4.550437       123.8237 
 310   0.0000       4.572791       124.4320 
 311   0.0000       4.618941       125.6878 
 312   0.0000       4.642291       126.3231 
 313   0.0000       4.689835       127.6169 
 314   0.0000       4.693611       127.7197 
 315   0.0000       4.745139       129.1218 
 316   0.0000       4.775269       129.9417 
 317   0.0000       4.817880       131.1012 
 318   0.0000       4.922448       133.9466 
 319   0.0000       4.943075       134.5079 
 320   0.0000       4.966557       135.1469 
 321   0.0000       5.013344       136.4200 
 322   0.0000       5.022729       136.6754 
 323   0.0000       5.185405       141.1020 
 324   0.0000       5.216915       141.9595 
 325   0.0000       5.238587       142.5492 
 326   0.0000       5.309675       144.4836 
 327   0.0000       5.313924       144.5992 
 328   0.0000       5.349292       145.5616 
 329   0.0000       5.396320       146.8413 
 330   0.0000       5.409611       147.2030 
 331   0.0000       5.427481       147.6893 
 332   0.0000       5.503188       149.7494 
 333   0.0000       5.523924       150.3136 
 334   0.0000       5.670969       154.3149 
 335   0.0000       5.803906       157.9323 
 336   0.0000       5.859177       159.4363 
 337   0.0000       5.988039       162.9428 
 338   0.0000       6.003069       163.3518 
 339   0.0000       6.030921       164.1097 
 340   0.0000       6.104068       166.1001 
 341   0.0000       6.104398       166.1091 
 342   0.0000       6.215497       169.1323 
 343   0.0000       6.256479       170.2474 
 344   0.0000       6.269046       170.5894 
 345   0.0000       6.325625       172.1290 
 346   0.0000       6.407075       174.3454 
 347   0.0000       6.463711       175.8865 
 348   0.0000       6.550142       178.2384 
 349   0.0000       6.576431       178.9538 
 350   0.0000       6.604134       179.7076 
 351   0.0000       6.677957       181.7165 
 352   0.0000       6.691134       182.0750 
 353   0.0000       6.753616       183.7752 
 354   0.0000       6.793965       184.8732 
 355   0.0000       6.897863       187.7004 
 356   0.0000       6.970494       189.6768 
 357   0.0000       7.002049       190.5354 
 358   0.0000       7.077060       192.5766 
 359   0.0000       7.110861       193.4964 
 360   0.0000       7.381202       200.8527 
 361   0.0000       7.595636       206.6878 
 362   0.0000       7.601956       206.8597 
 363   0.0000       7.731794       210.3928 
 364   0.0000       7.799490       212.2349 
 365   0.0000       7.964685       216.7301 
 366   0.0000       7.973118       216.9596 
 367   0.0000       8.069690       219.5874 
 368   0.0000       8.400791       228.5972 
 369   0.0000       8.465931       230.3697 
 370   0.0000       8.564722       233.0579 
 371   0.0000       8.586692       233.6558 
 372   0.0000       8.601600       234.0614 
 373   0.0000       8.825882       240.1645 
 374   0.0000       8.932222       243.0581 
 375   0.0000       8.938033       243.2162 
 376   0.0000       9.004429       245.0230 
 377   0.0000       9.032691       245.7920 
 378   0.0000       9.037914       245.9341 
 379   0.0000       9.046708       246.1734 
 380   0.0000       9.088209       247.3027 
 381   0.0000       9.101339       247.6600 
 382   0.0000       9.247628       251.6407 
 383   0.0000       9.287868       252.7357 
 384   0.0000       9.340728       254.1741 
 385   0.0000       9.350887       254.4506 
 386   0.0000       9.521654       259.0974 
 387   0.0000       9.616982       261.6914 
 388   0.0000       9.678347       263.3612 
 389   0.0000       9.702952       264.0308 
 390   0.0000       9.945021       270.6178 
 391   0.0000      10.016607       272.5657 
 392   0.0000      10.115268       275.2504 
 393   0.0000      10.183333       277.1026 
 394   0.0000      10.189667       277.2749 
 395   0.0000      10.514488       286.1138 
 396   0.0000      10.567282       287.5504 
 397   0.0000      10.664454       290.1945 
 398   0.0000      10.670370       290.3555 
 399   0.0000      10.686572       290.7964 
 400   0.0000      10.732784       292.0539 
 401   0.0000      10.871563       295.8303 
 402   0.0000      10.910377       296.8865 
 403   0.0000      10.963385       298.3289 
 404   0.0000      11.043793       300.5169 
 405   0.0000      11.110319       302.3271 
 406   0.0000      11.396554       310.1160 
 407   0.0000      11.397233       310.1345 
 408   0.0000      11.456986       311.7604 
 409   0.0000      11.529070       313.7219 
 410   0.0000      11.536358       313.9203 
 411   0.0000      11.550183       314.2965 
 412   0.0000      11.578658       315.0713 
 413   0.0000      11.605906       315.8127 
 414   0.0000      11.623026       316.2786 
 415   0.0000      11.646481       316.9168 
 416   0.0000      11.675800       317.7147 
 417   0.0000      11.734688       319.3171 
 418   0.0000      11.757909       319.9490 
 419   0.0000      11.783569       320.6472 
 420   0.0000      11.814438       321.4872 
 421   0.0000      11.867728       322.9373 
 422   0.0000      11.910005       324.0877 
 423   0.0000      11.956109       325.3423 
 424   0.0000      12.150728       330.6381 
 425   0.0000      12.167956       331.1069 
 426   0.0000      12.272928       333.9634 
 427   0.0000      12.392452       337.2158 
 428   0.0000      12.399107       337.3968 
 429   0.0000      12.433012       338.3195 
 430   0.0000      12.445471       338.6585 
 431   0.0000      12.508701       340.3790 
 432   0.0000      12.543973       341.3389 
 433   0.0000      12.596827       342.7771 
 434   0.0000      12.616359       343.3086 
 435   0.0000      12.677813       344.9808 
 436   0.0000      12.731751       346.4486 
 437   0.0000      12.794018       348.1429 
 438   0.0000      12.794553       348.1575 
 439   0.0000      12.850945       349.6920 
 440   0.0000      12.917622       351.5064 
 441   0.0000      12.964787       352.7898 
 442   0.0000      12.986031       353.3679 
 443   0.0000      13.171461       358.4137 
 444   0.0000      13.183997       358.7548 
 445   0.0000      13.266327       360.9951 
 446   0.0000      13.310345       362.1929 
 447   0.0000      13.386059       364.2532 
 448   0.0000      13.427288       365.3751 
 449   0.0000      13.483984       366.9179 
 450   0.0000      13.556595       368.8937 
 451   0.0000      13.706212       372.9650 
 452   0.0000      13.778916       374.9434 
 453   0.0000      13.924690       378.9101 
 454   0.0000      14.048564       382.2809 
 455   0.0000      14.185155       385.9977 
 456   0.0000      14.213155       386.7596 
 457   0.0000      14.269674       388.2976 
 458   0.0000      14.317308       389.5938 
 459   0.0000      14.500540       394.5797 
 460   0.0000      14.905709       405.6050 
 461   0.0000      14.912081       405.7784 
 462   0.0000      14.986876       407.8136 
 463   0.0000      15.110458       411.1765 
 464   0.0000      15.321142       416.9095 
 465   0.0000      15.332279       417.2125 
 466   0.0000      15.368047       418.1858 
 467   0.0000      15.468920       420.9307 
 468   0.0000      15.515737       422.2047 
 469   0.0000      15.613168       424.8559 
 470   0.0000      15.688543       426.9070 
 471   0.0000      15.805471       430.0887 
 472   0.0000      15.845124       431.1678 
 473   0.0000      16.150165       439.4683 
 474   0.0000      16.210639       441.1139 
 475   0.0000      16.331964       444.4153 
 476   0.0000      16.349070       444.8808 
 477   0.0000      16.534641       449.9305 
 478   0.0000      16.657342       453.2693 
 479   0.0000      16.733429       455.3398 
 480   0.0000      16.747161       455.7134 
 481   0.0000      16.753090       455.8747 
 482   0.0000      16.762273       456.1246 
 483   0.0000      16.782971       456.6879 
 484   0.0000      16.810646       457.4409 
 485   0.0000      17.056736       464.1374 
 486   0.0000      17.077598       464.7051 
 487   0.0000      17.189125       467.7399 
 488   0.0000      17.214484       468.4299 
 489   0.0000      17.232330       468.9155 
 490   0.0000      17.382469       473.0010 
 491   0.0000      17.388519       473.1657 
 492   0.0000      17.487693       475.8643 
 493   0.0000      17.527153       476.9381 
 494   0.0000      17.556092       477.7256 
 495   0.0000      18.007648       490.0130 
 496   0.0000      18.138224       493.5662 
 497   0.0000      18.426367       501.4069 
 498   0.0000      18.491013       503.1660 
 499   0.0000      18.540235       504.5054 
 500   0.0000      18.667750       507.9753 
 501   0.0000      18.740345       509.9507 
 502   0.0000      19.007145       517.2107 
 503   0.0000      19.195308       522.3309 
 504   0.0000      19.275633       524.5167 
 505   0.0000      19.516563       531.0727 
 506   0.0000      19.921379       542.0883 
 507   0.0000      20.114111       547.3328 
 508   0.0000      20.333564       553.3044 
 509   0.0000      20.363379       554.1157 
 510   0.0000      20.549040       559.1678 
 511   0.0000      20.565772       559.6231 
 512   0.0000      20.964851       570.4826 
 513   0.0000      21.042605       572.5984 
 514   0.0000      21.200701       576.9004 
 515   0.0000      21.647916       589.0697 
 516   0.0000      22.535764       613.2293 
 517   0.0000      23.477455       638.8540 
 518   0.0000      23.540704       640.5751 
 519   0.0000      23.584428       641.7649 
 520   0.0000      23.746707       646.1807 
 521   0.0000      23.773970       646.9226 
 522   0.0000      24.040798       654.1834 
 523   0.0000      24.425712       664.6574 
 524   0.0000      25.418505       691.6727 
 525   0.0000      25.793946       701.8890 
 526   0.0000      25.833254       702.9586 
 527   0.0000      26.367429       717.4942 
 528   0.0000      27.746209       755.0127 
 529   0.0000      28.678052       780.3695 
 530   0.0000      32.316785       879.3844 
 531   0.0000      32.636174       888.0755 
 532   0.0000      33.459558       910.4809 
 533   0.0000      34.285986       932.9691 
 534   0.0000      34.607154       941.7085 
 535   0.0000      41.113428      1118.7532 
 536   0.0000      41.351139      1125.2217 
 537   0.0000      41.497784      1129.2121 
 538   0.0000      47.943194      1304.6006 
 539   0.0000      48.104637      1308.9937 
 540   0.0000      48.171066      1310.8013 
 541   0.0000      48.771223      1327.1324 
 542   0.0000      49.251385      1340.1983 
 543   0.0000      76.728375      2087.8852 
 544   0.0000      91.012643      2476.5799 
 545   0.0000      91.073943      2478.2480 
 546   0.0000      91.109428      2479.2136 
 547   0.0000      91.188548      2481.3665 
 548   0.0000      91.229983      2482.4940 
 549   0.0000      91.403912      2487.2269 
 550   0.0000      92.358164      2513.1934 
 551   0.0000      92.593326      2519.5925 
 552   0.0000      92.857343      2526.7768 
 553   0.0000     105.172450      2861.8879 

                 SPIN DOWN ORBITALS
  NO   OCC          E(Eh)            E(eV) 
   0   1.0000     -13.986613      -380.5951 
   1   1.0000      -9.933491      -270.3040 
   2   1.0000      -0.829711       -22.5776 
   3   1.0000      -0.566042       -15.4028 
   4   1.0000      -0.453575       -12.3424 
   5   1.0000      -0.386825       -10.5260 
   6   1.0000      -0.306280        -8.3343 
   7   1.0000      -0.232650        -6.3307 
   8   0.0000      -0.067697        -1.8421 
   9   0.0000      -0.018843        -0.5128 
  10   0.0000       0.000977         0.0266 
  11   0.0000       0.012634         0.3438 
  12   0.0000       0.017501         0.4762 
  13   0.0000       0.030806         0.8383 
  14   0.0000       0.035441         0.9644 
  15   0.0000       0.039324         1.0701 
  16   0.0000       0.045448         1.2367 
  17   0.0000       0.050933         1.3860 
  18   0.0000       0.054718         1.4890 
  19   0.0000       0.058237         1.5847 
  20   0.0000       0.066848         1.8190 
  21   0.0000       0.069239         1.8841 
  22   0.0000       0.081673         2.2224 
  23   0.0000       0.086581         2.3560 
  24   0.0000       0.095812         2.6072 
  25   0.0000       0.100800         2.7429 
  26   0.0000       0.115898         3.1538 
  27   0.0000       0.117944         3.2094 
  28   0.0000       0.118670         3.2292 
  29   0.0000       0.125731         3.4213 
  30   0.0000       0.125929         3.4267 
  31   0.0000       0.128319         3.4917 
  32   0.0000       0.134019         3.6468 
  33   0.0000       0.135059         3.6751 
  34   0.0000       0.146155         3.9771 
  35   0.0000       0.148108         4.0302 
  36   0.0000       0.160163         4.3582 
  37   0.0000       0.165133         4.4935 
  38   0.0000       0.166833         4.5397 
  39   0.0000       0.180372         4.9082 
  40   0.0000       0.184004         5.0070 
  41   0.0000       0.190694         5.1891 
  42   0.0000       0.196932         5.3588 
  43   0.0000       0.199628         5.4322 
  44   0.0000       0.207062         5.6344 
  45   0.0000       0.217021         5.9055 
  46   0.0000       0.218382         5.9425 
  47   0.0000       0.223609         6.0847 
  48   0.0000       0.225978         6.1492 
  49   0.0000       0.236533         6.4364 
  50   0.0000       0.242519         6.5993 
  51   0.0000       0.249214         6.7815 
  52   0.0000       0.252394         6.8680 
  53   0.0000       0.252917         6.8822 
  54   0.0000       0.259224         7.0538 
  55   0.0000       0.265921         7.2361 
  56   0.0000       0.276207         7.5160 
  57   0.0000       0.279169         7.5966 
  58   0.0000       0.280107         7.6221 
  59   0.0000       0.284051         7.7294 
  60   0.0000       0.284699         7.7471 
  61   0.0000       0.290439         7.9033 
  62   0.0000       0.294633         8.0174 
  63   0.0000       0.303902         8.2696 
  64   0.0000       0.305414         8.3107 
  65   0.0000       0.313909         8.5419 
  66   0.0000       0.315900         8.5961 
  67   0.0000       0.322425         8.7736 
  68   0.0000       0.325080         8.8459 
  69   0.0000       0.330782         9.0010 
  70   0.0000       0.333315         9.0700 
  71   0.0000       0.345869         9.4116 
  72   0.0000       0.355516         9.6741 
  73   0.0000       0.358841         9.7646 
  74   0.0000       0.372792        10.1442 
  75   0.0000       0.378135        10.2896 
  76   0.0000       0.384894        10.4735 
  77   0.0000       0.396714        10.7951 
  78   0.0000       0.400259        10.8916 
  79   0.0000       0.407042        11.0762 
  80   0.0000       0.415150        11.2968 
  81   0.0000       0.419938        11.4271 
  82   0.0000       0.424837        11.5604 
  83   0.0000       0.439011        11.9461 
  84   0.0000       0.441200        12.0057 
  85   0.0000       0.449183        12.2229 
  86   0.0000       0.452849        12.3226 
  87   0.0000       0.455427        12.3928 
  88   0.0000       0.459790        12.5115 
  89   0.0000       0.461636        12.5617 
  90   0.0000       0.467034        12.7086 
  91   0.0000       0.472121        12.8471 
  92   0.0000       0.477656        12.9977 
  93   0.0000       0.487525        13.2662 
  94   0.0000       0.488609        13.2957 
  95   0.0000       0.493088        13.4176 
  96   0.0000       0.495389        13.4802 
  97   0.0000       0.501822        13.6553 
  98   0.0000       0.503120        13.6906 
  99   0.0000       0.505835        13.7645 
 100   0.0000       0.508189        13.8285 
 101   0.0000       0.512554        13.9473 
 102   0.0000       0.513348        13.9689 
 103   0.0000       0.516062        14.0428 
 104   0.0000       0.531096        14.4518 
 105   0.0000       0.534166        14.5354 
 106   0.0000       0.537961        14.6387 
 107   0.0000       0.540945        14.7198 
 108   0.0000       0.543507        14.7896 
 109   0.0000       0.554766        15.0960 
 110   0.0000       0.555841        15.1252 
 111   0.0000       0.564002        15.3473 
 112   0.0000       0.578513        15.7421 
 113   0.0000       0.584100        15.8942 
 114   0.0000       0.584828        15.9140 
 115   0.0000       0.588386        16.0108 
 116   0.0000       0.588643        16.0178 
 117   0.0000       0.598741        16.2926 
 118   0.0000       0.601959        16.3801 
 119   0.0000       0.606258        16.4971 
 120   0.0000       0.620853        16.8943 
 121   0.0000       0.636278        17.3140 
 122   0.0000       0.639701        17.4071 
 123   0.0000       0.640784        17.4366 
 124   0.0000       0.647237        17.6122 
 125   0.0000       0.658350        17.9146 
 126   0.0000       0.678201        18.4548 
 127   0.0000       0.685659        18.6577 
 128   0.0000       0.694876        18.9085 
 129   0.0000       0.708132        19.2692 
 130   0.0000       0.709369        19.3029 
 131   0.0000       0.724992        19.7280 
 132   0.0000       0.736379        20.0379 
 133   0.0000       0.740458        20.1489 
 134   0.0000       0.746604        20.3161 
 135   0.0000       0.747627        20.3440 
 136   0.0000       0.760638        20.6980 
 137   0.0000       0.769969        20.9519 
 138   0.0000       0.774031        21.0624 
 139   0.0000       0.783941        21.3321 
 140   0.0000       0.786516        21.4022 
 141   0.0000       0.789757        21.4904 
 142   0.0000       0.797493        21.7009 
 143   0.0000       0.810058        22.0428 
 144   0.0000       0.811792        22.0900 
 145   0.0000       0.815303        22.1855 
 146   0.0000       0.815952        22.2032 
 147   0.0000       0.822670        22.3860 
 148   0.0000       0.826884        22.5007 
 149   0.0000       0.830151        22.5896 
 150   0.0000       0.840710        22.8769 
 151   0.0000       0.844312        22.9749 
 152   0.0000       0.857321        23.3289 
 153   0.0000       0.859966        23.4009 
 154   0.0000       0.862609        23.4728 
 155   0.0000       0.864221        23.5166 
 156   0.0000       0.865737        23.5579 
 157   0.0000       0.871349        23.7106 
 158   0.0000       0.880955        23.9720 
 159   0.0000       0.884515        24.0689 
 160   0.0000       0.889150        24.1950 
 161   0.0000       0.894104        24.3298 
 162   0.0000       0.895370        24.3642 
 163   0.0000       0.901754        24.5380 
 164   0.0000       0.910266        24.7696 
 165   0.0000       0.912962        24.8430 
 166   0.0000       0.920211        25.0402 
 167   0.0000       0.921500        25.0753 
 168   0.0000       0.930882        25.3306 
 169   0.0000       0.936859        25.4932 
 170   0.0000       0.941630        25.6231 
 171   0.0000       0.947749        25.7896 
 172   0.0000       0.947766        25.7900 
 173   0.0000       0.952630        25.9224 
 174   0.0000       0.962588        26.1933 
 175   0.0000       0.962652        26.1951 
 176   0.0000       0.975403        26.5421 
 177   0.0000       0.988817        26.9071 
 178   0.0000       0.996797        27.1242 
 179   0.0000       1.006544        27.3894 
 180   0.0000       1.012032        27.5388 
 181   0.0000       1.016762        27.6675 
 182   0.0000       1.026093        27.9214 
 183   0.0000       1.037332        28.2272 
 184   0.0000       1.047034        28.4912 
 185   0.0000       1.050015        28.5724 
 186   0.0000       1.058472        28.8025 
 187   0.0000       1.062969        28.9249 
 188   0.0000       1.072624        29.1876 
 189   0.0000       1.087873        29.6025 
 190   0.0000       1.095617        29.8133 
 191   0.0000       1.107849        30.1461 
 192   0.0000       1.111152        30.2360 
 193   0.0000       1.120502        30.4904 
 194   0.0000       1.158837        31.5336 
 195   0.0000       1.192625        32.4530 
 196   0.0000       1.198900        32.6237 
 197   0.0000       1.229415        33.4541 
 198   0.0000       1.231775        33.5183 
 199   0.0000       1.240737        33.7622 
 200   0.0000       1.240876        33.7660 
 201   0.0000       1.255945        34.1760 
 202   0.0000       1.293002        35.1844 
 203   0.0000       1.337772        36.4026 
 204   0.0000       1.355612        36.8881 
 205   0.0000       1.393654        37.9233 
 206   0.0000       1.411673        38.4136 
 207   0.0000       1.450571        39.4721 
 208   0.0000       1.476276        40.1715 
 209   0.0000       1.480363        40.2827 
 210   0.0000       1.504461        40.9385 
 211   0.0000       1.528010        41.5793 
 212   0.0000       1.546074        42.0708 
 213   0.0000       1.548602        42.1396 
 214   0.0000       1.576170        42.8898 
 215   0.0000       1.585665        43.1481 
 216   0.0000       1.596889        43.4536 
 217   0.0000       1.608440        43.7679 
 218   0.0000       1.630965        44.3808 
 219   0.0000       1.636075        44.5199 
 220   0.0000       1.677940        45.6591 
 221   0.0000       1.681536        45.7569 
 222   0.0000       1.701720        46.3062 
 223   0.0000       1.705954        46.4214 
 224   0.0000       1.741403        47.3860 
 225   0.0000       1.745185        47.4889 
 226   0.0000       1.753570        47.7171 
 227   0.0000       1.772248        48.2253 
 228   0.0000       1.788270        48.6613 
 229   0.0000       1.823898        49.6308 
 230   0.0000       1.826973        49.7145 
 231   0.0000       1.843683        50.1692 
 232   0.0000       1.898600        51.6635 
 233   0.0000       1.914324        52.0914 
 234   0.0000       1.935410        52.6652 
 235   0.0000       1.935921        52.6791 
 236   0.0000       1.985371        54.0247 
 237   0.0000       2.033174        55.3255 
 238   0.0000       2.105581        57.2958 
 239   0.0000       2.162951        58.8569 
 240   0.0000       2.172021        59.1037 
 241   0.0000       2.174988        59.1844 
 242   0.0000       2.203265        59.9539 
 243   0.0000       2.227472        60.6126 
 244   0.0000       2.252659        61.2980 
 245   0.0000       2.279251        62.0216 
 246   0.0000       2.313816        62.9621 
 247   0.0000       2.329951        63.4012 
 248   0.0000       2.360391        64.2295 
 249   0.0000       2.392946        65.1154 
 250   0.0000       2.423533        65.9477 
 251   0.0000       2.447044        66.5875 
 252   0.0000       2.533077        68.9285 
 253   0.0000       2.544543        69.2405 
 254   0.0000       2.600535        70.7642 
 255   0.0000       2.603633        70.8485 
 256   0.0000       2.693008        73.2805 
 257   0.0000       2.709398        73.7265 
 258   0.0000       2.715690        73.8977 
 259   0.0000       2.827645        76.9441 
 260   0.0000       2.874269        78.2128 
 261   0.0000       2.932984        79.8105 
 262   0.0000       2.934153        79.8424 
 263   0.0000       3.026608        82.3582 
 264   0.0000       3.044097        82.8341 
 265   0.0000       3.102913        84.4346 
 266   0.0000       3.129383        85.1548 
 267   0.0000       3.154281        85.8324 
 268   0.0000       3.169914        86.2578 
 269   0.0000       3.194498        86.9267 
 270   0.0000       3.291982        89.5794 
 271   0.0000       3.297683        89.7345 
 272   0.0000       3.322681        90.4147 
 273   0.0000       3.367880        91.6447 
 274   0.0000       3.393769        92.3492 
 275   0.0000       3.445980        93.7699 
 276   0.0000       3.487496        94.8996 
 277   0.0000       3.494707        95.0958 
 278   0.0000       3.524080        95.8951 
 279   0.0000       3.559106        96.8482 
 280   0.0000       3.606920        98.1493 
 281   0.0000       3.620459        98.5177 
 282   0.0000       3.645398        99.1963 
 283   0.0000       3.685501       100.2876 
 284   0.0000       3.689443       100.3948 
 285   0.0000       3.711500       100.9950 
 286   0.0000       3.751260       102.0770 
 287   0.0000       3.776763       102.7709 
 288   0.0000       3.823625       104.0461 
 289   0.0000       3.878968       105.5521 
 290   0.0000       3.916461       106.5723 
 291   0.0000       3.937446       107.1434 
 292   0.0000       3.983915       108.4078 
 293   0.0000       4.000455       108.8579 
 294   0.0000       4.020242       109.3963 
 295   0.0000       4.027219       109.5862 
 296   0.0000       4.046802       110.1191 
 297   0.0000       4.061127       110.5089 
 298   0.0000       4.092660       111.3670 
 299   0.0000       4.148159       112.8772 
 300   0.0000       4.252963       115.7290 
 301   0.0000       4.291157       116.7683 
 302   0.0000       4.306524       117.1865 
 303   0.0000       4.346887       118.2848 
 304   0.0000       4.410798       120.0239 
 305   0.0000       4.439003       120.7914 
 306   0.0000       4.442568       120.8884 
 307   0.0000       4.488255       122.1316 
 308   0.0000       4.517430       122.9255 
 309   0.0000       4.550437       123.8237 
 310   0.0000       4.572791       124.4320 
 311   0.0000       4.618941       125.6878 
 312   0.0000       4.642291       126.3231 
 313   0.0000       4.689835       127.6169 
 314   0.0000       4.693611       127.7197 
 315   0.0000       4.745139       129.1218 
 316   0.0000       4.775269       129.9417 
 317   0.0000       4.817880       131.1012 
 318   0.0000       4.922448       133.9466 
 319   0.0000       4.943075       134.5079 
 320   0.0000       4.966557       135.1469 
 321   0.0000       5.013344       136.4200 
 322   0.0000       5.022729       136.6754 
 323   0.0000       5.185405       141.1020 
 324   0.0000       5.216915       141.9595 
 325   0.0000       5.238587       142.5492 
 326   0.0000       5.309675       144.4836 
 327   0.0000       5.313924       144.5992 
 328   0.0000       5.349292       145.5616 
 329   0.0000       5.396320       146.8413 
 330   0.0000       5.409611       147.2030 
 331   0.0000       5.427481       147.6893 
 332   0.0000       5.503188       149.7494 
 333   0.0000       5.523924       150.3136 
 334   0.0000       5.670969       154.3149 
 335   0.0000       5.803906       157.9323 
 336   0.0000       5.859177       159.4363 
 337   0.0000       5.988039       162.9428 
 338   0.0000       6.003069       163.3518 
 339   0.0000       6.030921       164.1097 
 340   0.0000       6.104068       166.1001 
 341   0.0000       6.104398       166.1091 
 342   0.0000       6.215497       169.1323 
 343   0.0000       6.256479       170.2474 
 344   0.0000       6.269046       170.5894 
 345   0.0000       6.325625       172.1290 
 346   0.0000       6.407075       174.3454 
 347   0.0000       6.463711       175.8865 
 348   0.0000       6.550142       178.2384 
 349   0.0000       6.576431       178.9538 
 350   0.0000       6.604134       179.7076 
 351   0.0000       6.677957       181.7165 
 352   0.0000       6.691134       182.0750 
 353   0.0000       6.753616       183.7752 
 354   0.0000       6.793965       184.8732 
 355   0.0000       6.897863       187.7004 
 356   0.0000       6.970494       189.6768 
 357   0.0000       7.002049       190.5354 
 358   0.0000       7.077060       192.5766 
 359   0.0000       7.110861       193.4964 
 360   0.0000       7.381202       200.8527 
 361   0.0000       7.595636       206.6878 
 362   0.0000       7.601956       206.8597 
 363   0.0000       7.731794       210.3928 
 364   0.0000       7.799490       212.2349 
 365   0.0000       7.964685       216.7301 
 366   0.0000       7.973118       216.9596 
 367   0.0000       8.069690       219.5874 
 368   0.0000       8.400791       228.5972 
 369   0.0000       8.465931       230.3697 
 370   0.0000       8.564722       233.0579 
 371   0.0000       8.586692       233.6558 
 372   0.0000       8.601600       234.0614 
 373   0.0000       8.825882       240.1645 
 374   0.0000       8.932222       243.0581 
 375   0.0000       8.938033       243.2162 
 376   0.0000       9.004429       245.0230 
 377   0.0000       9.032691       245.7920 
 378   0.0000       9.037914       245.9341 
 379   0.0000       9.046708       246.1734 
 380   0.0000       9.088209       247.3027 
 381   0.0000       9.101339       247.6600 
 382   0.0000       9.247628       251.6407 
 383   0.0000       9.287868       252.7357 
 384   0.0000       9.340728       254.1741 
 385   0.0000       9.350887       254.4506 
 386   0.0000       9.521654       259.0974 
 387   0.0000       9.616982       261.6914 
 388   0.0000       9.678347       263.3612 
 389   0.0000       9.702952       264.0308 
 390   0.0000       9.945021       270.6178 
 391   0.0000      10.016607       272.5657 
 392   0.0000      10.115268       275.2504 
 393   0.0000      10.183333       277.1026 
 394   0.0000      10.189667       277.2749 
 395   0.0000      10.514488       286.1138 
 396   0.0000      10.567282       287.5504 
 397   0.0000      10.664454       290.1945 
 398   0.0000      10.670370       290.3555 
 399   0.0000      10.686572       290.7964 
 400   0.0000      10.732784       292.0539 
 401   0.0000      10.871563       295.8303 
 402   0.0000      10.910377       296.8865 
 403   0.0000      10.963385       298.3289 
 404   0.0000      11.043793       300.5169 
 405   0.0000      11.110319       302.3271 
 406   0.0000      11.396554       310.1160 
 407   0.0000      11.397233       310.1345 
 408   0.0000      11.456986       311.7604 
 409   0.0000      11.529070       313.7219 
 410   0.0000      11.536358       313.9203 
 411   0.0000      11.550183       314.2965 
 412   0.0000      11.578658       315.0713 
 413   0.0000      11.605906       315.8127 
 414   0.0000      11.623026       316.2786 
 415   0.0000      11.646481       316.9168 
 416   0.0000      11.675800       317.7147 
 417   0.0000      11.734688       319.3171 
 418   0.0000      11.757909       319.9490 
 419   0.0000      11.783569       320.6472 
 420   0.0000      11.814438       321.4872 
 421   0.0000      11.867728       322.9373 
 422   0.0000      11.910005       324.0877 
 423   0.0000      11.956109       325.3423 
 424   0.0000      12.150728       330.6381 
 425   0.0000      12.167956       331.1069 
 426   0.0000      12.272928       333.9634 
 427   0.0000      12.392452       337.2158 
 428   0.0000      12.399107       337.3968 
 429   0.0000      12.433012       338.3195 
 430   0.0000      12.445471       338.6585 
 431   0.0000      12.508701       340.3790 
 432   0.0000      12.543973       341.3389 
 433   0.0000      12.596827       342.7771 
 434   0.0000      12.616359       343.3086 
 435   0.0000      12.677813       344.9808 
 436   0.0000      12.731751       346.4486 
 437   0.0000      12.794018       348.1429 
 438   0.0000      12.794553       348.1575 
 439   0.0000      12.850945       349.6920 
 440   0.0000      12.917622       351.5064 
 441   0.0000      12.964787       352.7898 
 442   0.0000      12.986031       353.3679 
 443   0.0000      13.171461       358.4137 
 444   0.0000      13.183997       358.7548 
 445   0.0000      13.266327       360.9951 
 446   0.0000      13.310345       362.1929 
 447   0.0000      13.386059       364.2532 
 448   0.0000      13.427288       365.3751 
 449   0.0000      13.483984       366.9179 
 450   0.0000      13.556595       368.8937 
 451   0.0000      13.706212       372.9650 
 452   0.0000      13.778916       374.9434 
 453   0.0000      13.924690       378.9101 
 454   0.0000      14.048564       382.2809 
 455   0.0000      14.185155       385.9977 
 456   0.0000      14.213155       386.7596 
 457   0.0000      14.269674       388.2976 
 458   0.0000      14.317308       389.5938 
 459   0.0000      14.500540       394.5797 
 460   0.0000      14.905709       405.6050 
 461   0.0000      14.912081       405.7784 
 462   0.0000      14.986876       407.8136 
 463   0.0000      15.110458       411.1765 
 464   0.0000      15.321142       416.9095 
 465   0.0000      15.332279       417.2125 
 466   0.0000      15.368047       418.1858 
 467   0.0000      15.468920       420.9307 
 468   0.0000      15.515737       422.2047 
 469   0.0000      15.613168       424.8559 
 470   0.0000      15.688543       426.9070 
 471   0.0000      15.805471       430.0887 
 472   0.0000      15.845124       431.1678 
 473   0.0000      16.150165       439.4683 
 474   0.0000      16.210639       441.1139 
 475   0.0000      16.331964       444.4153 
 476   0.0000      16.349070       444.8808 
 477   0.0000      16.534641       449.9305 
 478   0.0000      16.657342       453.2693 
 479   0.0000      16.733429       455.3398 
 480   0.0000      16.747161       455.7134 
 481   0.0000      16.753090       455.8747 
 482   0.0000      16.762273       456.1246 
 483   0.0000      16.782971       456.6879 
 484   0.0000      16.810646       457.4409 
 485   0.0000      17.056736       464.1374 
 486   0.0000      17.077598       464.7051 
 487   0.0000      17.189125       467.7399 
 488   0.0000      17.214484       468.4299 
 489   0.0000      17.232330       468.9155 
 490   0.0000      17.382469       473.0010 
 491   0.0000      17.388519       473.1657 
 492   0.0000      17.487693       475.8643 
 493   0.0000      17.527153       476.9381 
 494   0.0000      17.556092       477.7256 
 495   0.0000      18.007648       490.0130 
 496   0.0000      18.138224       493.5662 
 497   0.0000      18.426367       501.4069 
 498   0.0000      18.491013       503.1660 
 499   0.0000      18.540235       504.5054 
 500   0.0000      18.667750       507.9753 
 501   0.0000      18.740345       509.9507 
 502   0.0000      19.007145       517.2107 
 503   0.0000      19.195308       522.3309 
 504   0.0000      19.275633       524.5167 
 505   0.0000      19.516563       531.0727 
 506   0.0000      19.921379       542.0883 
 507   0.0000      20.114111       547.3328 
 508   0.0000      20.333564       553.3044 
 509   0.0000      20.363379       554.1157 
 510   0.0000      20.549040       559.1678 
 511   0.0000      20.565772       559.6231 
 512   0.0000      20.964851       570.4826 
 513   0.0000      21.042605       572.5984 
 514   0.0000      21.200701       576.9004 
 515   0.0000      21.647916       589.0697 
 516   0.0000      22.535764       613.2293 
 517   0.0000      23.477455       638.8540 
 518   0.0000      23.540704       640.5751 
 519   0.0000      23.584428       641.7649 
 520   0.0000      23.746707       646.1807 
 521   0.0000      23.773970       646.9226 
 522   0.0000      24.040798       654.1834 
 523   0.0000      24.425712       664.6574 
 524   0.0000      25.418505       691.6727 
 525   0.0000      25.793946       701.8890 
 526   0.0000      25.833254       702.9586 
 527   0.0000      26.367429       717.4942 
 528   0.0000      27.746209       755.0127 
 529   0.0000      28.678052       780.3695 
 530   0.0000      32.316785       879.3844 
 531   0.0000      32.636174       888.0755 
 532   0.0000      33.459558       910.4809 
 533   0.0000      34.285986       932.9691 
 534   0.0000      34.607154       941.7085 
 535   0.0000      41.113428      1118.7532 
 536   0.0000      41.351139      1125.2217 
 537   0.0000      41.497784      1129.2121 
 538   0.0000      47.943194      1304.6006 
 539   0.0000      48.104637      1308.9937 
 540   0.0000      48.171066      1310.8013 
 541   0.0000      48.771223      1327.1324 
 542   0.0000      49.251385      1340.1983 
 543   0.0000      76.728375      2087.8852 
 544   0.0000      91.012643      2476.5799 
 545   0.0000      91.073943      2478.2480 
 546   0.0000      91.109428      2479.2136 
 547   0.0000      91.188548      2481.3665 
 548   0.0000      91.229983      2482.4940 
 549   0.0000      91.403912      2487.2269 
 550   0.0000      92.358164      2513.1934 
 551   0.0000      92.593326      2519.5925 
 552   0.0000      92.857343      2526.7768 
 553   0.0000     105.172450      2861.8879 

                    ********************************
                    * MULLIKEN POPULATION ANALYSIS *
                    ********************************

--------------------------------------------
MULLIKEN ATOMIC CHARGES AND SPIN POPULATIONS
--------------------------------------------
   0 C :    0.160486   -0.000000
   1 N :   -0.349689    0.000000
   2 H :    0.004109   -0.000000
   3 H :    0.007220    0.000000
   4 H :    0.177874   -0.000000
Sum of atomic charges         :   -0.0000000
Sum of atomic spin populations:    0.0000000

-----------------------------------------------------
MULLIKEN REDUCED ORBITAL CHARGES AND SPIN POPULATIONS
-----------------------------------------------------
CHARGE
  0 C s       :     3.096042  s :     3.096042
      pz      :     0.870324  p :     2.600781
      px      :     0.922778
      py      :     0.807679
      dz2     :     0.018121  d :     0.122912
      dxz     :     0.081530
      dyz     :     0.019003
      dx2y2   :     0.004397
      dxy     :    -0.000139
      f0      :     0.001318  f :     0.016816
      f+1     :     0.011830
      f-1     :     0.002547
      f+2     :     0.001210
      f-2     :     0.000193
      f+3     :    -0.000264
      f-3     :    -0.000018
      g0      :     0.000235  g :     0.002577
      g+1     :     0.001794
      g-1     :     0.000434
      g+2     :    -0.000032
      g-2     :     0.000040
      g+3     :     0.000059
      g-3     :     0.000012
      g+4     :     0.000032
      g-4     :     0.000002
      h0      :     0.000123  h :     0.000386
      h+1     :     0.000273
      h-1     :    -0.000008
      h+2     :     0.000006
      h-2     :     0.000008
      h+3     :    -0.000027
      h-3     :     0.000003
      h+4     :     0.000005
      h-4     :    -0.000001
      h+5     :     0.000005
      h-5     :     0.000000
  1 N s       :     3.684788  s :     3.684788
      pz      :     1.198373  p :     3.588671
      px      :     1.287998
      py      :     1.102299
      dz2     :     0.016042  d :     0.055349
      dxz     :     0.008614
      dyz     :     0.022606
      dx2y2   :     0.006890
      dxy     :     0.001197
      f0      :     0.004024  f :     0.017350
      f+1     :     0.011022
      f-1     :     0.002353
      f+2     :    -0.000023
      f-2     :    -0.000014
      f+3     :     0.000121
      f-3     :    -0.000133
      g0      :     0.000743  g :     0.003341
      g+1     :     0.002656
      g-1     :     0.000314
      g+2     :    -0.000284
      g-2     :     0.000000
      g+3     :    -0.000103
      g-3     :    -0.000010
      g+4     :     0.000023
      g-4     :     0.000001
      h0      :     0.000067  h :     0.000190
      h+1     :     0.000197
      h-1     :     0.000055
      h+2     :    -0.000061
      h-2     :    -0.000001
      h+3     :    -0.000068
      h-3     :    -0.000004
      h+4     :     0.000004
      h-4     :    -0.000000
      h+5     :     0.000001
      h-5     :    -0.000000
  2 H s       :     0.961851  s :     0.961851
      pz      :     0.015163  p :     0.044097
      px      :     0.017417
      py      :     0.011517
      dz2     :    -0.000292  d :    -0.006078
      dxz     :     0.002509
      dyz     :    -0.002347
      dx2y2   :    -0.002763
      dxy     :    -0.003184
      f0      :    -0.001486  f :    -0.003252
      f+1     :    -0.000313
      f-1     :    -0.000108
      f+2     :     0.000375
      f-2     :     0.000349
      f+3     :    -0.000969
      f-3     :    -0.001098
      g0      :    -0.000422  g :    -0.000729
      g+1     :    -0.000206
      g-1     :    -0.000067
      g+2     :    -0.000062
      g-2     :     0.000241
      g+3     :    -0.000022
      g-3     :    -0.000050
      g+4     :    -0.000065
      g-4     :    -0.000076
  3 H s       :     0.968075  s :     0.968075
      pz      :     0.004202  p :     0.036010
      px      :     0.015755
      py      :     0.016052
      dz2     :    -0.006429  d :    -0.007851
      dxz     :     0.002504
      dyz     :     0.002106
      dx2y2   :    -0.004420
      dxy     :    -0.001612
      f0      :    -0.002863  f :    -0.002818
      f+1     :     0.000345
      f-1     :     0.001577
      f+2     :    -0.000107
      f-2     :    -0.000676
      f+3     :    -0.001058
      f-3     :    -0.000037
      g0      :    -0.000497  g :    -0.000637
      g+1     :    -0.000291
      g-1     :     0.000200
      g+2     :     0.000010
      g-2     :     0.000170
      g+3     :    -0.000081
      g-3     :    -0.000109
      g+4     :    -0.000056
      g-4     :     0.000018
  4 H s       :     0.743349  s :     0.743349
      pz      :     0.026194  p :     0.072103
      px      :     0.025677
      py      :     0.020231
      dz2     :    -0.000331  d :     0.002623
      dxz     :     0.004500
      dyz     :    -0.001767
      dx2y2   :     0.000250
      dxy     :    -0.000029
      f0      :     0.000053  f :     0.003308
      f+1     :     0.003789
      f-1     :     0.000462
      f+2     :    -0.000803
      f-2     :    -0.000537
      f+3     :     0.000134
      f-3     :     0.000210
      g0      :     0.000655  g :     0.000744
      g+1     :     0.000013
      g-1     :     0.000118
      g+2     :    -0.000011
      g-2     :    -0.000075
      g+3     :    -0.000069
      g-3     :     0.000072
      g+4     :     0.000015
      g-4     :     0.000027

SPIN
  0 C s       :    -0.000000  s :    -0.000000
      pz      :     0.000000  p :    -0.000000
      px      :    -0.000000
      py      :     0.000000
      dz2     :    -0.000000  d :     0.000000
      dxz     :     0.000000
      dyz     :     0.000000
      dx2y2   :     0.000000
      dxy     :     0.000000
      f0      :     0.000000  f :     0.000000
      f+1     :     0.000000
      f-1     :     0.000000
      f+2     :     0.000000
      f-2     :    -0.000000
      f+3     :    -0.000000
      f-3     :    -0.000000
      g0      :     0.000000  g :     0.000000
      g+1     :     0.000000
      g-1     :     0.000000
      g+2     :     0.000000
      g-2     :     0.000000
      g+3     :    -0.000000
      g-3     :    -0.000000
      g+4     :    -0.000000
      g-4     :    -0.000000
      h0      :    -0.000000  h :    -0.000000
      h+1     :    -0.000000
      h-1     :     0.000000
      h+2     :     0.000000
      h-2     :     0.000000
      h+3     :    -0.000000
      h-3     :    -0.000000
      h+4     :    -0.000000
      h-4     :    -0.000000
      h+5     :     0.000000
      h-5     :    -0.000000
  1 N s       :     0.000000  s :     0.000000
      pz      :     0.000000  p :     0.000000
      px      :     0.000000
      py      :    -0.000000
      dz2     :     0.000000  d :    -0.000000
      dxz     :    -0.000000
      dyz     :    -0.000000
      dx2y2   :    -0.000000
      dxy     :    -0.000000
      f0      :    -0.000000  f :    -0.000000
      f+1     :    -0.000000
      f-1     :    -0.000000
      f+2     :     0.000000
      f-2     :    -0.000000
      f+3     :     0.000000
      f-3     :     0.000000
      g0      :    -0.000000  g :    -0.000000
      g+1     :     0.000000
      g-1     :    -0.000000
      g+2     :     0.000000
      g-2     :     0.000000
      g+3     :    -0.000000
      g-3     :    -0.000000
      g+4     :     0.000000
      g-4     :     0.000000
      h0      :    -0.000000  h :     0.000000
      h+1     :    -0.000000
      h-1     :     0.000000
      h+2     :     0.000000
      h-2     :     0.000000
      h+3     :     0.000000
      h-3     :    -0.000000
      h+4     :    -0.000000
      h-4     :     0.000000
      h+5     :    -0.000000
      h-5     :     0.000000
  2 H s       :    -0.000000  s :    -0.000000
      pz      :    -0.000000  p :    -0.000000
      px      :    -0.000000
      py      :    -0.000000
      dz2     :     0.000000  d :    -0.000000
      dxz     :    -0.000000
      dyz     :    -0.000000
      dx2y2   :    -0.000000
      dxy     :    -0.000000
      f0      :    -0.000000  f :    -0.000000
      f+1     :    -0.000000
      f-1     :    -0.000000
      f+2     :    -0.000000
      f-2     :    -0.000000
      f+3     :    -0.000000
      f-3     :     0.000000
      g0      :    -0.000000  g :    -0.000000
      g+1     :     0.000000
      g-1     :     0.000000
      g+2     :    -0.000000
      g-2     :    -0.000000
      g+3     :    -0.000000
      g-3     :     0.000000
      g+4     :    -0.000000
      g-4     :     0.000000
  3 H s       :     0.000000  s :     0.000000
      pz      :    -0.000000  p :     0.000000
      px      :     0.000000
      py      :     0.000000
      dz2     :     0.000000  d :     0.000000
      dxz     :     0.000000
      dyz     :     0.000000
      dx2y2   :    -0.000000
      dxy     :     0.000000
      f0      :     0.000000  f :     0.000000
      f+1     :     0.000000
      f-1     :     0.000000
      f+2     :     0.000000
      f-2     :     0.000000
      f+3     :    -0.000000
      f-3     :     0.000000
      g0      :     0.000000  g :     0.000000
      g+1     :     0.000000
      g-1     :     0.000000
      g+2     :     0.000000
      g-2     :    -0.000000
      g+3     :     0.000000
      g-3     :     0.000000
      g+4     :    -0.000000
      g-4     :     0.000000
  4 H s       :    -0.000000  s :    -0.000000
      pz      :    -0.000000  p :    -0.000000
      px      :     0.000000
      py      :    -0.000000
      dz2     :    -0.000000  d :    -0.000000
      dxz     :    -0.000000
      dyz     :    -0.000000
      dx2y2   :     0.000000
      dxy     :    -0.000000
      f0      :    -0.000000  f :    -0.000000
      f+1     :    -0.000000
      f-1     :     0.000000
      f+2     :     0.000000
      f-2     :    -0.000000
      f+3     :     0.000000
      f-3     :    -0.000000
      g0      :    -0.000000  g :    -0.000000
      g+1     :    -0.000000
      g-1     :     0.000000
      g+2     :    -0.000000
      g-2     :    -0.000000
      g+3     :     0.000000
      g-3     :    -0.000000
      g+4     :     0.000000
      g-4     :    -0.000000


                     *******************************
                     * LOEWDIN POPULATION ANALYSIS *
                     *******************************

-------------------------------------------
LOEWDIN ATOMIC CHARGES AND SPIN POPULATIONS
-------------------------------------------
   0 C :    0.646349   -0.000000
   1 N :    0.792310   -0.000000
   2 H :   -0.386071   -0.000000
   3 H :   -0.411283    0.000000
   4 H :   -0.641304    0.000000

----------------------------------------------------
LOEWDIN REDUCED ORBITAL CHARGES AND SPIN POPULATIONS
----------------------------------------------------
CHARGE
  0 C s       :     2.507580  s :     2.507580
      pz      :     0.834982  p :     2.131574
      px      :     0.779732
      py      :     0.516860
      dz2     :     0.163047  d :     0.531987
      dxz     :     0.283959
      dyz     :     0.064938
      dx2y2   :     0.019899
      dxy     :     0.000144
      f0      :     0.038527  f :     0.141666
      f+1     :     0.062677
      f-1     :     0.028233
      f+2     :     0.007495
      f-2     :     0.000045
      f+3     :     0.004172
      f-3     :     0.000516
      g0      :     0.008287  g :     0.032958
      g+1     :     0.014780
      g-1     :     0.006938
      g+2     :     0.001293
      g-2     :     0.000014
      g+3     :     0.001360
      g-3     :     0.000024
      g+4     :     0.000261
      g-4     :     0.000000
      h0      :     0.002172  h :     0.007887
      h+1     :     0.002223
      h-1     :     0.001461
      h+2     :     0.001270
      h-2     :     0.000005
      h+3     :     0.000310
      h-3     :     0.000196
      h+4     :     0.000106
      h-4     :     0.000003
      h+5     :     0.000114
      h-5     :     0.000025
  1 N s       :     2.765922  s :     2.765922
      pz      :     1.096357  p :     2.901685
      px      :     1.051863
      py      :     0.753465
      dz2     :     0.121024  d :     0.338975
      dxz     :     0.150986
      dyz     :     0.044567
      dx2y2   :     0.021677
      dxy     :     0.000720
      f0      :     0.032570  f :     0.130966
      f+1     :     0.072641
      f-1     :     0.018969
      f+2     :     0.003485
      f-2     :     0.000092
      f+3     :     0.002953
      f-3     :     0.000256
      g0      :     0.007779  g :     0.051318
      g+1     :     0.034092
      g-1     :     0.005446
      g+2     :     0.002559
      g-2     :     0.000007
      g+3     :     0.000986
      g-3     :     0.000016
      g+4     :     0.000366
      g-4     :     0.000067
      h0      :     0.001405  h :     0.018825
      h+1     :     0.011557
      h-1     :     0.001356
      h+2     :     0.002788
      h-2     :     0.000002
      h+3     :     0.001391
      h-3     :     0.000030
      h+4     :     0.000131
      h-4     :     0.000061
      h+5     :     0.000063
      h-5     :     0.000041
  2 H s       :     0.649211  s :     0.649211
      pz      :     0.091450  p :     0.280427
      px      :     0.130712
      py      :     0.058265
      dz2     :     0.069197  d :     0.238302
      dxz     :     0.061329
      dyz     :     0.030351
      dx2y2   :     0.046311
      dxy     :     0.031113
      f0      :     0.032550  f :     0.136016
      f+1     :     0.049611
      f-1     :     0.007957
      f+2     :     0.014087
      f-2     :     0.014334
      f+3     :     0.011855
      f-3     :     0.005623
      g0      :     0.027657  g :     0.082115
      g+1     :     0.018421
      g-1     :     0.003676
      g+2     :     0.015334
      g-2     :     0.006304
      g+3     :     0.002726
      g-3     :     0.003695
      g+4     :     0.003526
      g-4     :     0.000776
  3 H s       :     0.662579  s :     0.662579
      pz      :     0.089007  p :     0.290438
      px      :     0.141668
      py      :     0.059763
      dz2     :     0.064942  d :     0.242192
      dxz     :     0.063831
      dyz     :     0.025960
      dx2y2   :     0.049260
      dxy     :     0.038198
      f0      :     0.030906  f :     0.133621
      f+1     :     0.041727
      f-1     :     0.005683
      f+2     :     0.018929
      f-2     :     0.016128
      f+3     :     0.012754
      f-3     :     0.007493
      g0      :     0.020746  g :     0.082453
      g+1     :     0.019381
      g-1     :     0.002467
      g+2     :     0.018013
      g-2     :     0.006706
      g+3     :     0.005904
      g-3     :     0.004679
      g+4     :     0.003493
      g-4     :     0.001064
  4 H s       :     0.632670  s :     0.632670
      pz      :     0.131343  p :     0.438137
      px      :     0.215887
      py      :     0.090907
      dz2     :     0.089305  d :     0.355735
      dxz     :     0.102972
      dyz     :     0.026265
      dx2y2   :     0.071199
      dxy     :     0.065993
      f0      :     0.034475  f :     0.146556
      f+1     :     0.047146
      f-1     :     0.004010
      f+2     :     0.022134
      f-2     :     0.013821
      f+3     :     0.010700
      f-3     :     0.014270
      g0      :     0.024852  g :     0.068207
      g+1     :     0.012153
      g-1     :     0.001148
      g+2     :     0.015405
      g-2     :     0.003977
      g+3     :     0.004534
      g-3     :     0.003401
      g+4     :     0.001264
      g-4     :     0.001473

SPIN
  0 C s       :     0.000000  s :     0.000000
      pz      :    -0.000000  p :    -0.000000
      px      :    -0.000000
      py      :    -0.000000
      dz2     :    -0.000000  d :     0.000000
      dxz     :     0.000000
      dyz     :     0.000000
      dx2y2   :     0.000000
      dxy     :    -0.000000
      f0      :     0.000000  f :     0.000000
      f+1     :     0.000000
      f-1     :     0.000000
      f+2     :     0.000000
      f-2     :     0.000000
      f+3     :     0.000000
      f-3     :     0.000000
      g0      :     0.000000  g :    -0.000000
      g+1     :    -0.000000
      g-1     :     0.000000
      g+2     :    -0.000000
      g-2     :    -0.000000
      g+3     :     0.000000
      g-3     :    -0.000000
      g+4     :    -0.000000
      g-4     :    -0.000000
      h0      :    -0.000000  h :    -0.000000
      h+1     :    -0.000000
      h-1     :    -0.000000
      h+2     :    -0.000000
      h-2     :     0.000000
      h+3     :    -0.000000
      h-3     :    -0.000000
      h+4     :    -0.000000
      h-4     :    -0.000000
      h+5     :    -0.000000
      h-5     :    -0.000000
  1 N s       :    -0.000000  s :    -0.000000
      pz      :     0.000000  p :     0.000000
      px      :    -0.000000
      py      :    -0.000000
      dz2     :    -0.000000  d :    -0.000000
      dxz     :     0.000000
      dyz     :     0.000000
      dx2y2   :    -0.000000
      dxy     :    -0.000000
      f0      :     0.000000  f :     0.000000
      f+1     :    -0.000000
      f-1     :    -0.000000
      f+2     :     0.000000
      f-2     :     0.000000
      f+3     :    -0.000000
      f-3     :     0.000000
      g0      :    -0.000000  g :    -0.000000
      g+1     :    -0.000000
      g-1     :    -0.000000
      g+2     :     0.000000
      g-2     :     0.000000
      g+3     :     0.000000
      g-3     :    -0.000000
      g+4     :     0.000000
      g-4     :    -0.000000
      h0      :    -0.000000  h :     0.000000
      h+1     :    -0.000000
      h-1     :    -0.000000
      h+2     :     0.000000
      h-2     :     0.000000
      h+3     :     0.000000
      h-3     :     0.000000
      h+4     :     0.000000
      h-4     :    -0.000000
      h+5     :     0.000000
      h-5     :    -0.000000
  2 H s       :     0.000000  s :     0.000000
      pz      :    -0.000000  p :    -0.000000
      px      :    -0.000000
      py      :    -0.000000
      dz2     :     0.000000  d :    -0.000000
      dxz     :    -0.000000
      dyz     :     0.000000
      dx2y2   :    -0.000000
      dxy     :     0.000000
      f0      :    -0.000000  f :    -0.000000
      f+1     :     0.000000
      f-1     :     0.000000
      f+2     :    -0.000000
      f-2     :    -0.000000
      f+3     :     0.000000
      f-3     :     0.000000
      g0      :    -0.000000  g :     0.000000
      g+1     :     0.000000
      g-1     :     0.000000
      g+2     :     0.000000
      g-2     :     0.000000
      g+3     :     0.000000
      g-3     :    -0.000000
      g+4     :     0.000000
      g-4     :    -0.000000
  3 H s       :     0.000000  s :     0.000000
      pz      :    -0.000000  p :    -0.000000
      px      :    -0.000000
      py      :     0.000000
      dz2     :     0.000000  d :     0.000000
      dxz     :     0.000000
      dyz     :     0.000000
      dx2y2   :    -0.000000
      dxy     :    -0.000000
      f0      :     0.000000  f :    -0.000000
      f+1     :    -0.000000
      f-1     :     0.000000
      f+2     :    -0.000000
      f-2     :     0.000000
      f+3     :     0.000000
      f-3     :    -0.000000
      g0      :    -0.000000  g :    -0.000000
      g+1     :    -0.000000
      g-1     :    -0.000000
      g+2     :    -0.000000
      g-2     :     0.000000
      g+3     :    -0.000000
      g-3     :     0.000000
      g+4     :    -0.000000
      g-4     :     0.000000
  4 H s       :     0.000000  s :     0.000000
      pz      :    -0.000000  p :     0.000000
      px      :     0.000000
      py      :     0.000000
      dz2     :    -0.000000  d :     0.000000
      dxz     :     0.000000
      dyz     :    -0.000000
      dx2y2   :    -0.000000
      dxy     :    -0.000000
      f0      :     0.000000  f :    -0.000000
      f+1     :    -0.000000
      f-1     :     0.000000
      f+2     :     0.000000
      f-2     :     0.000000
      f+3     :    -0.000000
      f-3     :    -0.000000
      g0      :     0.000000  g :     0.000000
      g+1     :     0.000000
      g-1     :    -0.000000
      g+2     :    -0.000000
      g-2     :    -0.000000
      g+3     :    -0.000000
      g-3     :     0.000000
      g+4     :    -0.000000
      g-4     :    -0.000000


                      *****************************
                      * MAYER POPULATION ANALYSIS *
                      *****************************

  NA   - Mulliken gross atomic population
  ZA   - Total nuclear charge
  QA   - Mulliken gross atomic charge
  VA   - Mayer's total valence
  BVA  - Mayer's bonded valence
  FA   - Mayer's free valence

  ATOM       NA         ZA         QA         VA         BVA        FA
  0 C      5.8395     6.0000     0.1605     4.0854     4.0854    -0.0000
  1 N      7.3497     7.0000    -0.3497     3.0824     3.0824    -0.0000
  2 H      0.9959     1.0000     0.0041     1.0527     1.0527    -0.0000
  3 H      0.9928     1.0000     0.0072     0.9869     0.9869     0.0000
  4 H      0.8221     1.0000     0.1779     0.9853     0.9853     0.0000

  Mayer bond orders larger than 0.1
B(  0-C ,  1-N ) :   2.0760 B(  0-C ,  2-H ) :   0.9859 B(  0-C ,  3-H ) :   0.9813 
B(  1-N ,  4-H ) :   0.9463 

-------
TIMINGS
-------

Total SCF time: 0 days 0 hours 45 min 26 sec 

Total time                  ....    2726.956 sec
Sum of individual times     ....    2725.483 sec  ( 99.9%)

Fock matrix formation       ....    2717.290 sec  ( 99.6%)
  XC integration            ....      43.658 sec  (  1.6% of F)
    Basis function eval.    ....       2.143 sec  (  4.9% of XC)
    Density eval.           ....      12.881 sec  ( 29.5% of XC)
    XC-Functional eval.     ....       0.214 sec  (  0.5% of XC)
    XC-Potential eval.      ....      26.741 sec  ( 61.3% of XC)
Diagonalization             ....       3.757 sec  (  0.1%)
Density matrix formation    ....       0.047 sec  (  0.0%)
Population analysis         ....       0.281 sec  (  0.0%)
Initial guess               ....       1.660 sec  (  0.1%)
Orbital Transformation      ....       0.000 sec  (  0.0%)
Orbital Orthonormalization  ....       0.000 sec  (  0.0%)
DIIS solution               ....       1.973 sec  (  0.1%)
Grid generation             ....       0.475 sec  (  0.0%)

-------------------------   --------------------
FINAL SINGLE POINT ENERGY       -94.555239703212
-------------------------   --------------------


                            ***************************************
                            *     ORCA property calculations      *
                            ***************************************

                                    ---------------------
                                    Active property flags
                                    ---------------------
   (+) Dipole Moment
   (+) Polarizability


------------------------------------------------------------------------------
                       ORCA ELECTRIC PROPERTIES CALCULATION
------------------------------------------------------------------------------

Dipole Moment Calculation                       ... on
Quadrupole Moment Calculation                   ... off
Polarizability Calculation                      ... Analytic (CP-SCF)
GBWName                                         ... ch2nh_pbe.gbw
Electron density file                           ... ch2nh_pbe.scfp.tmp
The origin for moment calculation is the CENTER OF MASS  = ( 0.049442,  0.000000 -0.082068)

-------------
DIPOLE MOMENT
-------------
                                X             Y             Z
Electronic contribution:      0.27293       0.00000      -0.74989
Nuclear contribution   :     -0.79013       0.00000       1.31384
                        -----------------------------------------
Total Dipole Moment    :     -0.51720       0.00000       0.56395
                        -----------------------------------------
Magnitude (a.u.)       :      0.76520
Magnitude (Debye)      :      1.94499



--------------------
Rotational spectrum 
--------------------
 
Rotational constants in cm-1:     6.567152     1.158417     0.984717 
Rotational constants in MHz : 196878.271853 34728.470441 29521.080331 

 Dipole components along the rotational axes: 
x,y,z [a.u.] :     0.522405    -0.559132     0.000000 
x,y,z [Debye]:     1.327848    -1.421200     0.000000 

 
Transforming and storing MO dipole integrals   ... done

                ... starting polarizability calculation

Opening the Dipole integral file               ... (ch2nh_pbe.dmo.tmp) done
Reading Dipole-MO integrals                    ... done
Solving CP-SCF equations                       ... 

           ************************************************************
           *        Program running with 4 parallel MPI-processes     *
           *              working on a common directory               *
           ************************************************************

------------------------------------------------------------------------------
                           ORCA CP-SCF CALCULATION
------------------------------------------------------------------------------

Input orbitals are from        ... ch2nh_pbe.gbw
Input Perturbation             ... ch2nh_pbe.cpv.tmp
Wavefunction output            ... ch2nh_pbe.cpu.tmp
Perturbation mode              ... Real perturbation (singlet)
Solver                         ... POPLE
Max. number of iterations      ... 200
Convergence tolerance          ... 1.000e-06
Integral handling              ... Direct
Number of perturbations        ... 3
Number of operators            ... 2
Orbital ranges used for CP-SCF:
 Operator 0:  Orbitals   0...  7  to   8...553
 Operator 1:  Orbitals   0...  7  to   8...553
DFT calculation                         ... on
Exchange functional (SCF)               ... PBE
Exchange functional (CP-SCF)            ... PBE
   PBE kappa parameter  XKappa (SCF)    ...  0.804000
   PBE kappa parameter  XKappa (CP-SCF) ...  0.804000
   PBE mue parameter   XMuePBE (SCF)    ...  0.219520
   PBE mue parameter   XMuePBE (CP-SCF) ...  0.219520
Correlation functional (SCF)            ... PBE
Correlation functional (CP-SCF)         ... PBE
   PBE beta parameter CBetaPBE (SCF)    ...  0.066725
   PBE beta parameter CBetaPBE (CP-SCF) ...  0.066725
 LDA part of GGA corr.  LDAOpt (SCF)    ... PW91-LDA
 LDA part of GGA corr.  LDAOpt (CP-SCF) ... PW91-LDA
Variables per vector in CP-SCF ... 8736
Number of vectors sought       ... 3
Recalculating density on grid  ... done
Calculating the xc-kernel      ... done
     CP-SCF ITERATION   0: 
     CP-SCF ITERATION   1:      0.620570716986
     CP-SCF ITERATION   2:      0.044791030963
     CP-SCF ITERATION   3:      0.001679991403
     CP-SCF ITERATION   4:      0.000052865486
     CP-SCF ITERATION   5:      0.000000671201
done
Reading CP-SCF coefficients                    ... done
Doing the polarizability tensor   ... done
Cleaning up                                    ... done

-------------------------
THE POLARIZABILITY TENSOR
-------------------------

The raw cartesian tensor (atomic units):
   23.18849     -0.00000      0.33417  
   -0.00000     17.85958      0.00000  
    0.33417      0.00000     30.37747  
diagonalized tensor: 
   17.85958     23.17299     30.39297  

   -0.00000      0.99893      0.04633  
   -1.00000     -0.00000      0.00000  
    0.00000     -0.04633      0.99893  

Isotropic polarizability :  23.80851


Timings for individual modules:

Sum of individual times         ...     4749.237 sec (=  79.154 min)
GTO integral calculation        ...        2.549 sec (=   0.042 min)   0.1 %
SCF iterations                  ...     2727.255 sec (=  45.454 min)  57.4 %
Solution of CP-SCF eqns.        ...     2019.433 sec (=  33.657 min)  42.5 %
                             ****ORCA TERMINATED NORMALLY****
TOTAL RUN TIME: 0 days 1 hours 19 minutes 10 seconds 403 msec
