
                                 *****************
                                 * O   R   C   A *
                                 *****************

           --- An Ab Initio, DFT and Semiempirical electronic structure package ---

                  #######################################################
                  #                        -***-                        #
                  #          Department of theory and spectroscopy      #
                  #               Directorship: Frank Neese             #
                  #        Max Planck Institute fuer Kohlenforschung    #
                  #                Kaiser Wilhelm Platz 1               #
                  #                 D-45470 Muelheim/Ruhr               #
                  #                      Germany                        #
                  #                                                     #
                  #                  All rights reserved                #
                  #                        -***-                        #
                  #######################################################


                         Program Version 4.1.2  - RELEASE  -


 With contributions from (in alphabetic order):
   Daniel Aravena         : Magnetic Properties
   Michael Atanasov       : Ab Initio Ligand Field Theory
   Alexander A. Auer      : GIAO ZORA
   Ute Becker             : Parallelization
   Giovanni Bistoni       : ED, Open-shell LED
   Martin Brehm           : Molecular dynamics
   Dmytro Bykov           : SCF Hessian
   Vijay G. Chilkuri      : MRCI spin determinant printing
   Dipayan Datta          : RHF DLPNO-CCSD density
   Achintya Kumar Dutta   : EOM-CC, STEOM-CC
   Dmitry Ganyushin       : Spin-Orbit,Spin-Spin,Magnetic field MRCI
   Miquel Garcia          : C-PCM Hessian
   Yang Guo               : DLPNO-NEVPT2, CIM, IAO-localization
   Andreas Hansen         : Spin unrestricted coupled pair/coupled cluster methods
   Benjamin Helmich-Paris : CASSCF linear response (MC-RPA)
   Lee Huntington         : MR-EOM, pCC
   Robert Izsak           : Overlap fitted RIJCOSX, COSX-SCS-MP3, EOM
   Christian Kollmar      : KDIIS, OOCD, Brueckner-CCSD(T), CCSD density
   Simone Kossmann        : Meta GGA functionals, TD-DFT gradient, OOMP2, MP2 Hessian
   Martin Krupicka        : AUTO-CI
   Lucas Lang             : DCDCAS
   Dagmar Lenk            : GEPOL surface, SMD
   Dimitrios Liakos       : Extrapolation schemes; parallel MDCI
   Dimitrios Manganas     : ROCIS; embedding schemes
   Dimitrios Pantazis     : SARC Basis sets
   Taras Petrenko         : DFT Hessian,TD-DFT gradient, ASA, ECA, R-Raman, ABS, FL, XAS/XES, NRVS
   Peter Pinski           : DLPNO-MP2, DLPNO-MP2 Gradient
   Christoph Reimann      : Effective Core Potentials
   Marius Retegan         : Local ZFS, SOC
   Christoph Riplinger    : Optimizer, TS searches, QM/MM, DLPNO-CCSD(T), (RO)-DLPNO pert. Triples
   Tobias Risthaus        : Range-separated hybrids, TD-DFT gradient, RPA, STAB
   Michael Roemelt        : Restricted open shell CIS
   Masaaki Saitow         : Open-shell DLPNO
   Barbara Sandhoefer     : DKH picture change effects
   Avijit Sen             : IP-ROCIS
   Kantharuban Sivalingam : CASSCF convergence, NEVPT2, FIC-MRCI
   Bernardo de Souza      : ESD, SOC TD-DFT
   Georgi Stoychev        : AutoAux, RI-MP2 NMR
   Willem Van den Heuvel  : Paramagnetic NMR
   Boris Wezisla          : Elementary symmetry handling
   Frank Wennmohs         : Technical directorship


 We gratefully acknowledge several colleagues who have allowed us to
 interface, adapt or use parts of their codes:
   Stefan Grimme, W. Hujo, H. Kruse,             : VdW corrections, initial TS optimization,
                  C. Bannwarth                     DFT functionals, gCP, sTDA/sTD-DF
   Ed Valeev                                     : LibInt (2-el integral package), F12 methods
   Garnet Chan, S. Sharma, J. Yang, R. Olivares  : DMRG
   Ulf Ekstrom                                   : XCFun DFT Library
   Mihaly Kallay                                 : mrcc  (arbitrary order and MRCC methods)
   Andreas Klamt, Michael Diedenhofen            : otool_cosmo (COSMO solvation model)
   Jiri Pittner, Ondrej Demel                    : Mk-CCSD
   Frank Weinhold                                : gennbo (NPA and NBO analysis)
   Christopher J. Cramer and Donald G. Truhlar   : smd solvation model
   Lars Goerigk                                  : TD-DFT with DH, B97 family of functionals
   V. Asgeirsson, H. Jonsson                     : NEB implementation
   FAccTs GmbH                                   : IRC, NEB, NEB-TS, Multilevel


 Your calculation uses the libint2 library for the computation of 2-el integrals
 For citations please refer to: http://libint.valeyev.net

 This ORCA versions uses:
   CBLAS   interface :  Fast vector & matrix operations
   LAPACKE interface :  Fast linear algebra routines
   SCALAPACK package :  Parallel linear algebra routines


----- Orbital basis set information -----
Your calculation utilizes the basis: aug-pc-4
   H, C-F              : F. Jensen, J. Chem. Phys. 115, 9113 (2001).
                         F. Jensen, J. Chem. Phys. 116, 7372 (2002).
                         F. Jensen, J. Chem. Phys. 117, 9234 (2002).
   Si-Cl               : F. Jensen, T. Helgaker, J. Chem. Phys. 121, 3463 (2004).
   He-B, Ne-Mg, Al, Ar : F. Jensen, J. Phys. Chem. A 111, 11198 (2007).
   K, Ca, Ga-Kr        : F. Jensen, J. Chem. Phys. 136, 094110 (2012).
   Sc-Zn               : F. Jensen, J. Chem. Phys. 138, 014107 (2013).

================================================================================
                                        WARNINGS
                       Please study these warnings very carefully!
================================================================================


INFO   : the flag for use of LIBINT has been found!

================================================================================
                                       INPUT FILE
================================================================================
NAME = ch2ph_pbe.inp
|  1> !uks pbe nori aug-pc-4 grid5 nofinalgrid verytightscf
|  2> 
|  3> %maxcore 1500
|  4> 
|  5> %pal nprocs 4 end
|  6> 
|  7> %scf
|  8> 	maxiter 200
|  9> end
| 10> %elprop
| 11> 	dipole true
| 12> 	 polar 1
| 13> 	 maxiter 200
| 14> end
| 15> 
| 16> * xyz 0 1
| 17> P 0.0000000000 0.0000000000 0.0000000000
| 18> H 0.0000000000 0.0000000000 1.4183490000
| 19> C 1.6600864825 0.0000000000 -0.2063414550
| 20> H 2.3794407562 0.0000000000 0.6006795204
| 21> H 2.0634774886 0.0000000000 -1.2113161293
| 22> *
| 23> 
| 24>                          ****END OF INPUT****
================================================================================

                       ****************************
                       * Single Point Calculation *
                       ****************************

---------------------------------
CARTESIAN COORDINATES (ANGSTROEM)
---------------------------------
  P      0.000000    0.000000    0.000000
  H      0.000000    0.000000    1.418349
  C      1.660086    0.000000   -0.206341
  H      2.379441    0.000000    0.600680
  H      2.063477    0.000000   -1.211316

----------------------------
CARTESIAN COORDINATES (A.U.)
----------------------------
  NO LB      ZA    FRAG     MASS         X           Y           Z
   0 P    15.0000    0    30.974    0.000000    0.000000    0.000000
   1 H     1.0000    0     1.008    0.000000    0.000000    2.680291
   2 C     6.0000    0    12.011    3.137109    0.000000   -0.389929
   3 H     1.0000    0     1.008    4.496491    0.000000    1.135120
   4 H     1.0000    0     1.008    3.899407    0.000000   -2.289056

--------------------------------
INTERNAL COORDINATES (ANGSTROEM)
--------------------------------
 P      0   0   0     0.000000000000     0.00000000     0.00000000
 H      1   0   0     1.418349000000     0.00000000     0.00000000
 C      1   2   0     1.672861000033    97.08527500     0.00000000
 H      3   1   2     1.081088999956   124.62757800     0.00000000
 H      3   1   2     1.082912000020   118.95551500   180.00000000

---------------------------
INTERNAL COORDINATES (A.U.)
---------------------------
 P      0   0   0     0.000000000000     0.00000000     0.00000000
 H      1   0   0     2.680291172321     0.00000000     0.00000000
 C      1   2   0     3.161249150180    97.08527500     0.00000000
 H      3   1   2     2.042962136312   124.62757800     0.00000000
 H      3   1   2     2.046407107174   118.95551500   180.00000000

---------------------
BASIS SET INFORMATION
---------------------
There are 3 groups of distinct atoms

 Group   1 Type P   : 44s27p7d4f3g2h contracted to 8s7p7d4f3g2h pattern {15121211111/111111111/1111111/1111/111/11}
 Group   2 Type H   : 12s7p4d3f2g contracted to 8s7p4d3f2g pattern {51111111/1111111/1111/111/11}
 Group   3 Type C   : 28s12p7d4f3g2h contracted to 9s8p7d4f3g2h pattern {11101111111/51111111/1111111/1111/111/11}

Atom   0P    basis set group =>   1
Atom   1H    basis set group =>   2
Atom   2C    basis set group =>   3
Atom   3H    basis set group =>   2
Atom   4H    basis set group =>   2


           ************************************************************
           *        Program running with 4 parallel MPI-processes     *
           *              working on a common directory               *
           ************************************************************
------------------------------------------------------------------------------
                           ORCA GTO INTEGRAL CALCULATION
------------------------------------------------------------------------------

                         BASIS SET STATISTICS AND STARTUP INFO

 # of primitive gaussian shells          ...  227
 # of primitive gaussian functions       ...  689
 # of contracted shells                  ...  136
 # of contracted basis functions         ...  550
 Highest angular momentum                ...    5
 Maximum contraction depth               ...   15
 Integral package used                   ... LIBINT
 Integral threshhold            Thresh   ...  1.000e-12
 Primitive cut-off              TCut     ...  1.000e-14


------------------------------ INTEGRAL EVALUATION ----------------------------


 * One electron integrals 
 Pre-screening matrix                    ... done
 Shell pair data                         ... done (   0.003 sec)



           ************************************************************
           *        Program running with 4 parallel MPI-processes     *
           *              working on a common directory               *
           ************************************************************
-------------------------------------------------------------------------------
                                 ORCA SCF
-------------------------------------------------------------------------------

------------
SCF SETTINGS
------------
Hamiltonian:
 Density Functional     Method          .... DFT(GTOs)
 Exchange Functional    Exchange        .... PBE
   PBE kappa parameter   XKappa         ....  0.804000
   PBE mue parameter    XMuePBE         ....  0.219520
 Correlation Functional Correlation     .... PBE
   PBE beta parameter  CBetaPBE         ....  0.066725
 LDA part of GGA corr.  LDAOpt          .... PW91-LDA
 Gradients option       PostSCFGGA      .... off
   Density functional embedding theory  .... OFF
   NL short-range parameter             ....  6.400000


General Settings:
 Integral files         IntName         .... ch2ph_pbe
 Hartree-Fock type      HFTyp           .... UHF
 Total Charge           Charge          ....    0
 Multiplicity           Mult            ....    1
 Number of Electrons    NEL             ....   24
 Basis Dimension        Dim             ....  550
 Nuclear Repulsion      ENuc            ....     48.5101282000 Eh

Convergence Acceleration:
 DIIS                   CNVDIIS         .... on
   Start iteration      DIISMaxIt       ....    12
   Startup error        DIISStart       ....  0.200000
   # of expansion vecs  DIISMaxEq       ....     5
   Bias factor          DIISBfac        ....   1.050
   Max. coefficient     DIISMaxC        ....  10.000
 Newton-Raphson         CNVNR           .... off
 SOSCF                  CNVSOSCF        .... off
 Level Shifting         CNVShift        .... on
   Level shift para.    LevelShift      ....    0.2500
   Turn off err/grad.   ShiftErr        ....    0.0010
 Zerner damping         CNVZerner       .... off
 Static damping         CNVDamp         .... on
   Fraction old density DampFac         ....    0.7000
   Max. Damping (<1)    DampMax         ....    0.9800
   Min. Damping (>=0)   DampMin         ....    0.0000
   Turn off err/grad.   DampErr         ....    0.1000
 Fernandez-Rico         CNVRico         .... off

SCF Procedure:
 Maximum # iterations   MaxIter         ....   200
 SCF integral mode      SCFMode         .... Direct
   Integral package                     .... LIBINT
 Reset frequency        DirectResetFreq ....    20
 Integral Threshold     Thresh          ....  1.000e-12 Eh
 Primitive CutOff       TCut            ....  1.000e-14 Eh

Convergence Tolerance:
 Convergence Check Mode ConvCheckMode   .... Total+1el-Energy
 Convergence forced     ConvForced      .... 0
 Energy Change          TolE            ....  1.000e-09 Eh
 1-El. energy change                    ....  1.000e-06 Eh
 DIIS Error             TolErr          ....  1.000e-08


Diagonalization of the overlap matrix:
Smallest eigenvalue                        ... 5.083e-08
Time for diagonalization                   ...    0.066 sec
Threshold for overlap eigenvalues          ... 1.000e-08
Number of eigenvalues below threshold      ... 0
Time for construction of square roots      ...    0.047 sec
Total time needed                          ...    0.114 sec

-------------------
DFT GRID GENERATION
-------------------

General Integration Accuracy     IntAcc      ...  5.010
Radial Grid Type                 RadialGrid  ... Gauss-Chebyshev
Angular Grid (max. acc.)         AngularGrid ... Lebedev-434
Angular grid pruning method      GridPruning ... 3 (G Style)
Weight generation scheme         WeightScheme... Becke
Basis function cutoff            BFCut       ...    1.0000e-12
Integration weight cutoff        WCut        ...    1.0000e-14
Grids for H and He will be reduced by one unit

# of grid points (after initial pruning)     ...  42406 (   0.0 sec)
# of grid points (after weights+screening)   ...  41421 (   0.0 sec)
nearest neighbour list constructed           ...    0.0 sec
Grid point re-assignment to atoms done       ...    0.0 sec
Grid point division into batches done        ...    0.3 sec
Reduced shell lists constructed in    0.4 sec

Total number of grid points                  ...    41421
Total number of batches                      ...      649
Average number of points per batch           ...       63
Average number of grid points per atom       ...     8284
Average number of shells per batch           ...    94.46 (69.46%)
Average number of basis functions per batch  ...   393.05 (71.46%)
Average number of large shells per batch     ...    83.01 (87.87%)
Average number of large basis fcns per batch ...   348.58 (88.69%)
Maximum spatial batch extension              ...  16.75, 20.58, 16.75 au
Average spatial batch extension              ...   0.88,  0.95,  0.83 au

Time for grid setup =    0.484 sec

------------------------------
INITIAL GUESS: MODEL POTENTIAL
------------------------------
Loading Hartree-Fock densities                     ... done
Calculating cut-offs                               ... done
Setting up the integral package                    ... done
Initializing the effective Hamiltonian             ... done
Starting the Coulomb interaction                   ... done (   0.1 sec)
Reading the grid                                   ... done
Mapping shells                                     ... done
Starting the XC term evaluation                    ... done (   1.3 sec)
  promolecular density results
     # of electrons  =     23.998533465
     EX              =    -28.464088027
     EC              =     -0.837741737
     EX+EC           =    -29.301829764
Transforming the Hamiltonian                       ... done (   0.0 sec)
Diagonalizing the Hamiltonian                      ... done (   0.1 sec)
Back transforming the eigenvectors                 ... done (   0.0 sec)
Now organizing SCF variables                       ... done
                      ------------------
                      INITIAL GUESS DONE (   2.1 sec)
                      ------------------
--------------
SCF ITERATIONS
--------------
ITER       Energy         Delta-E        Max-DP      RMS-DP      [F,P]     Damp
               ***  Starting incremental Fock matrix formation  ***
  0   -380.9443513821   0.000000000000 0.02520273  0.00022135  0.2664369 0.7000
  1   -381.0038209456  -0.059469563522 0.01284604  0.00014257  0.0964784 0.7000
                               ***Turning on DIIS***
  2   -381.0150035363  -0.011182590662 0.04687607  0.00030857  0.0206167 0.0000
  3   -381.0343869613  -0.019383425026 0.00967860  0.00007179  0.0919707 0.0000
  4   -381.0450105778  -0.010623616430 0.01674032  0.00011108  0.0193513 0.0000
  5   -381.0460162184  -0.001005640679 0.00937227  0.00006070  0.0110934 0.0000
  6   -381.0461822038  -0.000165985304 0.00351743  0.00001995  0.0046564 0.0000
  7   -381.0462144429  -0.000032239143 0.00054355  0.00000548  0.0026071 0.0000
  8   -381.0462224707  -0.000008027842 0.00020869  0.00000190  0.0015649 0.0000
  9   -381.0462251991  -0.000002728353 0.00040107  0.00000281  0.0008862 0.0000
 10   -381.0462262458  -0.000001046667 0.00014231  0.00000087  0.0003168 0.0000
 11   -381.0462263904  -0.000000144613 0.00007201  0.00000032  0.0000720 0.0000
 12   -381.0462264012  -0.000000010790 0.00005004  0.00000033  0.0000112 0.0000
 13   -381.0462264015  -0.000000000343 0.00009449  0.00000040  0.0000031 0.0000
 14   -381.0462264016  -0.000000000051 0.00029857  0.00000123  0.0000006 0.0000
 15   -381.0462264016   0.000000000004 0.00104571  0.00000396  0.0000002 0.0000
                 **** Energy Check signals convergence ****

               *****************************************************
               *                     SUCCESS                       *
               *           SCF CONVERGED AFTER  16 CYCLES          *
               *****************************************************


----------------
TOTAL SCF ENERGY
----------------

Total Energy       :         -381.04622640 Eh          -10368.79496 eV

Components:
Nuclear Repulsion  :           48.51012820 Eh            1320.02770 eV
Electronic Energy  :         -429.55635460 Eh          -11688.82266 eV
One Electron Energy:         -621.24057521 Eh          -16904.81548 eV
Two Electron Energy:          191.68422061 Eh            5215.99282 eV

Virial components:
Potential Energy   :         -761.63201686 Eh          -20725.06082 eV
Kinetic Energy     :          380.58579046 Eh           10356.26586 eV
Virial Ratio       :            2.00120981


DFT components:
N(Alpha)           :       12.000000586674 electrons
N(Beta)            :       12.000000586674 electrons
N(Total)           :       24.000001173347 electrons
E(X)               :      -28.677159603473 Eh       
E(C)               :       -0.839129776166 Eh       
E(XC)              :      -29.516289379639 Eh       
DFET-embed. en.    :        0.000000000000 Eh       

---------------
SCF CONVERGENCE
---------------

  Last Energy change         ...   -1.3074e-12  Tolerance :   1.0000e-09
  Last MAX-Density change    ...    3.3304e-04  Tolerance :   1.0000e-08
  Last RMS-Density change    ...    2.3864e-06  Tolerance :   1.0000e-09
  Last DIIS Error            ...    5.8030e-08  Tolerance :   1.0000e-08

             **** THE GBW FILE WAS UPDATED (ch2ph_pbe.gbw) ****
             **** DENSITY FILE WAS UPDATED (ch2ph_pbe.scfp.tmp) ****
             **** ENERGY FILE WAS UPDATED (ch2ph_pbe.en.tmp) ****
----------------------
UHF SPIN CONTAMINATION
----------------------

Warning: in a DFT calculation there is little theoretical justification to 
         calculate <S**2> as in Hartree-Fock theory. We will do it anyways
         but you should keep in mind that the values have only limited relevance

Expectation value of <S**2>     :    -0.000000
Ideal value S*(S+1) for S=0.0   :     0.000000
Deviation                       :    -0.000000

----------------
ORBITAL ENERGIES
----------------
                 SPIN UP ORBITALS
  NO   OCC          E(Eh)            E(eV) 
   0   1.0000     -76.281986     -2075.7384 
   1   1.0000      -9.910263      -269.6720 
   2   1.0000      -6.302140      -171.4900 
   3   1.0000      -4.519134      -122.9719 
   4   1.0000      -4.517167      -122.9184 
   5   1.0000      -4.512969      -122.8041 
   6   1.0000      -0.662922       -18.0390 
   7   1.0000      -0.509888       -13.8747 
   8   1.0000      -0.405694       -11.0395 
   9   1.0000      -0.338061        -9.1991 
  10   1.0000      -0.251271        -6.8374 
  11   1.0000      -0.249863        -6.7991 
  12   0.0000      -0.102803        -2.7974 
  13   0.0000      -0.025561        -0.6955 
  14   0.0000      -0.001406        -0.0383 
  15   0.0000       0.006090         0.1657 
  16   0.0000       0.010956         0.2981 
  17   0.0000       0.014743         0.4012 
  18   0.0000       0.031023         0.8442 
  19   0.0000       0.032076         0.8728 
  20   0.0000       0.036456         0.9920 
  21   0.0000       0.038621         1.0509 
  22   0.0000       0.046113         1.2548 
  23   0.0000       0.048984         1.3329 
  24   0.0000       0.052460         1.4275 
  25   0.0000       0.055822         1.5190 
  26   0.0000       0.058332         1.5873 
  27   0.0000       0.061388         1.6705 
  28   0.0000       0.076057         2.0696 
  29   0.0000       0.084300         2.2939 
  30   0.0000       0.088680         2.4131 
  31   0.0000       0.096489         2.6256 
  32   0.0000       0.104096         2.8326 
  33   0.0000       0.104459         2.8425 
  34   0.0000       0.105675         2.8756 
  35   0.0000       0.109000         2.9660 
  36   0.0000       0.115561         3.1446 
  37   0.0000       0.122711         3.3391 
  38   0.0000       0.123748         3.3673 
  39   0.0000       0.129330         3.5192 
  40   0.0000       0.136883         3.7248 
  41   0.0000       0.139348         3.7918 
  42   0.0000       0.143450         3.9035 
  43   0.0000       0.144728         3.9382 
  44   0.0000       0.150582         4.0975 
  45   0.0000       0.154787         4.2120 
  46   0.0000       0.164685         4.4813 
  47   0.0000       0.168026         4.5722 
  48   0.0000       0.169905         4.6234 
  49   0.0000       0.178060         4.8453 
  50   0.0000       0.182403         4.9635 
  51   0.0000       0.186157         5.0656 
  52   0.0000       0.199612         5.4317 
  53   0.0000       0.204785         5.5725 
  54   0.0000       0.206872         5.6293 
  55   0.0000       0.218221         5.9381 
  56   0.0000       0.218252         5.9389 
  57   0.0000       0.219885         5.9834 
  58   0.0000       0.221739         6.0338 
  59   0.0000       0.223646         6.0857 
  60   0.0000       0.227682         6.1956 
  61   0.0000       0.235376         6.4049 
  62   0.0000       0.248950         6.7743 
  63   0.0000       0.256223         6.9722 
  64   0.0000       0.260363         7.0848 
  65   0.0000       0.268529         7.3070 
  66   0.0000       0.271961         7.4004 
  67   0.0000       0.272413         7.4127 
  68   0.0000       0.278411         7.5759 
  69   0.0000       0.279759         7.6126 
  70   0.0000       0.281844         7.6694 
  71   0.0000       0.286064         7.7842 
  72   0.0000       0.286923         7.8076 
  73   0.0000       0.294617         8.0169 
  74   0.0000       0.295019         8.0279 
  75   0.0000       0.306796         8.3484 
  76   0.0000       0.311736         8.4828 
  77   0.0000       0.317998         8.6532 
  78   0.0000       0.319244         8.6871 
  79   0.0000       0.321149         8.7389 
  80   0.0000       0.324963         8.8427 
  81   0.0000       0.325021         8.8443 
  82   0.0000       0.331467         9.0197 
  83   0.0000       0.333055         9.0629 
  84   0.0000       0.336803         9.1649 
  85   0.0000       0.345435         9.3998 
  86   0.0000       0.354906         9.6575 
  87   0.0000       0.378174        10.2906 
  88   0.0000       0.382815        10.4169 
  89   0.0000       0.383874        10.4457 
  90   0.0000       0.384195        10.4545 
  91   0.0000       0.389860        10.6086 
  92   0.0000       0.395873        10.7723 
  93   0.0000       0.417951        11.3730 
  94   0.0000       0.421657        11.4739 
  95   0.0000       0.427102        11.6220 
  96   0.0000       0.430717        11.7204 
  97   0.0000       0.436359        11.8739 
  98   0.0000       0.437719        11.9109 
  99   0.0000       0.438745        11.9389 
 100   0.0000       0.441235        12.0066 
 101   0.0000       0.451676        12.2907 
 102   0.0000       0.452251        12.3064 
 103   0.0000       0.461035        12.5454 
 104   0.0000       0.462906        12.5963 
 105   0.0000       0.466236        12.6869 
 106   0.0000       0.471464        12.8292 
 107   0.0000       0.477711        12.9992 
 108   0.0000       0.479986        13.0611 
 109   0.0000       0.480721        13.0811 
 110   0.0000       0.486623        13.2417 
 111   0.0000       0.488489        13.2925 
 112   0.0000       0.490057        13.3351 
 113   0.0000       0.502795        13.6817 
 114   0.0000       0.504323        13.7233 
 115   0.0000       0.507917        13.8211 
 116   0.0000       0.517191        14.0735 
 117   0.0000       0.523496        14.2451 
 118   0.0000       0.525691        14.3048 
 119   0.0000       0.531430        14.4610 
 120   0.0000       0.542832        14.7712 
 121   0.0000       0.543050        14.7771 
 122   0.0000       0.549197        14.9444 
 123   0.0000       0.553418        15.0593 
 124   0.0000       0.556411        15.1407 
 125   0.0000       0.557837        15.1795 
 126   0.0000       0.571338        15.5469 
 127   0.0000       0.572529        15.5793 
 128   0.0000       0.574218        15.6253 
 129   0.0000       0.575324        15.6554 
 130   0.0000       0.583011        15.8645 
 131   0.0000       0.590780        16.0759 
 132   0.0000       0.595323        16.1996 
 133   0.0000       0.602257        16.3882 
 134   0.0000       0.606984        16.5169 
 135   0.0000       0.608951        16.5704 
 136   0.0000       0.623772        16.9737 
 137   0.0000       0.628138        17.0925 
 138   0.0000       0.634526        17.2663 
 139   0.0000       0.640702        17.4344 
 140   0.0000       0.643823        17.5193 
 141   0.0000       0.654512        17.8102 
 142   0.0000       0.663258        18.0482 
 143   0.0000       0.665873        18.1193 
 144   0.0000       0.673993        18.3403 
 145   0.0000       0.678328        18.4582 
 146   0.0000       0.685632        18.6570 
 147   0.0000       0.698870        19.0172 
 148   0.0000       0.699062        19.0225 
 149   0.0000       0.704080        19.1590 
 150   0.0000       0.715664        19.4742 
 151   0.0000       0.717359        19.5203 
 152   0.0000       0.725077        19.7303 
 153   0.0000       0.729663        19.8551 
 154   0.0000       0.744195        20.2506 
 155   0.0000       0.748306        20.3624 
 156   0.0000       0.753671        20.5084 
 157   0.0000       0.760024        20.6813 
 158   0.0000       0.770004        20.9529 
 159   0.0000       0.778443        21.1825 
 160   0.0000       0.781807        21.2740 
 161   0.0000       0.786798        21.4099 
 162   0.0000       0.787647        21.4330 
 163   0.0000       0.796569        21.6758 
 164   0.0000       0.802798        21.8452 
 165   0.0000       0.803628        21.8678 
 166   0.0000       0.810681        22.0598 
 167   0.0000       0.810837        22.0640 
 168   0.0000       0.824601        22.4385 
 169   0.0000       0.828353        22.5406 
 170   0.0000       0.833557        22.6823 
 171   0.0000       0.838161        22.8075 
 172   0.0000       0.839145        22.8343 
 173   0.0000       0.840214        22.8634 
 174   0.0000       0.848783        23.0966 
 175   0.0000       0.859737        23.3946 
 176   0.0000       0.865085        23.5402 
 177   0.0000       0.866582        23.5809 
 178   0.0000       0.871221        23.7071 
 179   0.0000       0.873369        23.7656 
 180   0.0000       0.875513        23.8239 
 181   0.0000       0.879526        23.9331 
 182   0.0000       0.893404        24.3107 
 183   0.0000       0.894651        24.3447 
 184   0.0000       0.895035        24.3552 
 185   0.0000       0.904811        24.6212 
 186   0.0000       0.909405        24.7462 
 187   0.0000       0.912308        24.8252 
 188   0.0000       0.917012        24.9532 
 189   0.0000       0.917587        24.9688 
 190   0.0000       0.919519        25.0214 
 191   0.0000       0.924228        25.1495 
 192   0.0000       0.931532        25.3483 
 193   0.0000       0.932025        25.3617 
 194   0.0000       0.940032        25.5796 
 195   0.0000       0.959179        26.1006 
 196   0.0000       0.963522        26.2188 
 197   0.0000       0.968208        26.3463 
 198   0.0000       0.987877        26.8815 
 199   0.0000       0.992701        27.0128 
 200   0.0000       1.017691        27.6928 
 201   0.0000       1.019574        27.7440 
 202   0.0000       1.023322        27.8460 
 203   0.0000       1.040115        28.3030 
 204   0.0000       1.078281        29.3415 
 205   0.0000       1.082820        29.4650 
 206   0.0000       1.098856        29.9014 
 207   0.0000       1.104403        30.0523 
 208   0.0000       1.114016        30.3139 
 209   0.0000       1.122597        30.5474 
 210   0.0000       1.156910        31.4811 
 211   0.0000       1.220312        33.2064 
 212   0.0000       1.232087        33.5268 
 213   0.0000       1.241828        33.7919 
 214   0.0000       1.252057        34.0702 
 215   0.0000       1.265797        34.4441 
 216   0.0000       1.296027        35.2667 
 217   0.0000       1.308956        35.6185 
 218   0.0000       1.320142        35.9229 
 219   0.0000       1.340247        36.4700 
 220   0.0000       1.367993        37.2250 
 221   0.0000       1.370627        37.2967 
 222   0.0000       1.381128        37.5824 
 223   0.0000       1.396899        38.0116 
 224   0.0000       1.419050        38.6143 
 225   0.0000       1.466823        39.9143 
 226   0.0000       1.468993        39.9733 
 227   0.0000       1.476742        40.1842 
 228   0.0000       1.508604        41.0512 
 229   0.0000       1.531463        41.6732 
 230   0.0000       1.532339        41.6971 
 231   0.0000       1.540948        41.9313 
 232   0.0000       1.557635        42.3854 
 233   0.0000       1.580014        42.9944 
 234   0.0000       1.585655        43.1479 
 235   0.0000       1.591770        43.3143 
 236   0.0000       1.595573        43.4178 
 237   0.0000       1.608188        43.7610 
 238   0.0000       1.626549        44.2607 
 239   0.0000       1.667181        45.3663 
 240   0.0000       1.700621        46.2763 
 241   0.0000       1.707425        46.4614 
 242   0.0000       1.710824        46.5539 
 243   0.0000       1.732060        47.1317 
 244   0.0000       1.746736        47.5311 
 245   0.0000       1.757671        47.8287 
 246   0.0000       1.781334        48.4726 
 247   0.0000       1.786213        48.6053 
 248   0.0000       1.815003        49.3887 
 249   0.0000       1.859142        50.5898 
 250   0.0000       2.013730        54.7964 
 251   0.0000       2.015805        54.8528 
 252   0.0000       2.044156        55.6243 
 253   0.0000       2.087007        56.7904 
 254   0.0000       2.113362        57.5075 
 255   0.0000       2.148716        58.4695 
 256   0.0000       2.164111        58.8885 
 257   0.0000       2.168575        59.0099 
 258   0.0000       2.227190        60.6049 
 259   0.0000       2.277045        61.9615 
 260   0.0000       2.278271        61.9949 
 261   0.0000       2.287827        62.2549 
 262   0.0000       2.326716        63.3132 
 263   0.0000       2.330226        63.4087 
 264   0.0000       2.344308        63.7919 
 265   0.0000       2.374110        64.6028 
 266   0.0000       2.381899        64.8148 
 267   0.0000       2.456438        66.8431 
 268   0.0000       2.534769        68.9746 
 269   0.0000       2.567414        69.8629 
 270   0.0000       2.638125        71.7870 
 271   0.0000       2.651405        72.1484 
 272   0.0000       2.656278        72.2810 
 273   0.0000       2.690780        73.2198 
 274   0.0000       2.702311        73.5336 
 275   0.0000       2.749835        74.8268 
 276   0.0000       2.775311        75.5200 
 277   0.0000       2.785658        75.8016 
 278   0.0000       2.872965        78.1774 
 279   0.0000       2.943120        80.0864 
 280   0.0000       2.953165        80.3597 
 281   0.0000       2.972765        80.8930 
 282   0.0000       2.992291        81.4244 
 283   0.0000       3.001833        81.6840 
 284   0.0000       3.037269        82.6483 
 285   0.0000       3.037822        82.6633 
 286   0.0000       3.093038        84.1659 
 287   0.0000       3.105555        84.5065 
 288   0.0000       3.132561        85.2413 
 289   0.0000       3.142348        85.5076 
 290   0.0000       3.173918        86.3667 
 291   0.0000       3.201593        87.1198 
 292   0.0000       3.220726        87.6404 
 293   0.0000       3.225678        87.7752 
 294   0.0000       3.284286        89.3700 
 295   0.0000       3.350925        91.1833 
 296   0.0000       3.400849        92.5418 
 297   0.0000       3.426767        93.2471 
 298   0.0000       3.461622        94.1955 
 299   0.0000       3.462864        94.2293 
 300   0.0000       3.507158        95.4346 
 301   0.0000       3.507531        95.4448 
 302   0.0000       3.539022        96.3017 
 303   0.0000       3.545227        96.4705 
 304   0.0000       3.588162        97.6389 
 305   0.0000       3.599438        97.9457 
 306   0.0000       3.627029        98.6965 
 307   0.0000       3.653659        99.4211 
 308   0.0000       3.674652        99.9924 
 309   0.0000       3.727146       101.4208 
 310   0.0000       3.736971       101.6882 
 311   0.0000       3.767834       102.5280 
 312   0.0000       3.777548       102.7923 
 313   0.0000       3.806064       103.5683 
 314   0.0000       3.817655       103.8837 
 315   0.0000       3.859896       105.0331 
 316   0.0000       3.913262       106.4853 
 317   0.0000       3.999675       108.8367 
 318   0.0000       4.013168       109.2039 
 319   0.0000       4.038825       109.9020 
 320   0.0000       4.076219       110.9196 
 321   0.0000       4.079545       111.0101 
 322   0.0000       4.122091       112.1678 
 323   0.0000       4.166656       113.3805 
 324   0.0000       4.271846       116.2428 
 325   0.0000       4.290478       116.7498 
 326   0.0000       4.341551       118.1396 
 327   0.0000       4.397585       119.6644 
 328   0.0000       4.445064       120.9564 
 329   0.0000       4.484608       122.0324 
 330   0.0000       4.485975       122.0696 
 331   0.0000       4.503586       122.5488 
 332   0.0000       4.553847       123.9165 
 333   0.0000       4.633701       126.0894 
 334   0.0000       4.654818       126.6640 
 335   0.0000       4.668510       127.0366 
 336   0.0000       4.696180       127.7896 
 337   0.0000       4.745927       129.1432 
 338   0.0000       4.806224       130.7840 
 339   0.0000       4.857558       132.1809 
 340   0.0000       4.925779       134.0373 
 341   0.0000       4.941530       134.4659 
 342   0.0000       4.952355       134.7604 
 343   0.0000       4.967071       135.1609 
 344   0.0000       5.018144       136.5506 
 345   0.0000       5.146524       140.0440 
 346   0.0000       5.195491       141.3765 
 347   0.0000       5.208245       141.7235 
 348   0.0000       5.236896       142.5032 
 349   0.0000       5.283138       143.7615 
 350   0.0000       5.320058       144.7661 
 351   0.0000       5.363453       145.9470 
 352   0.0000       5.375735       146.2812 
 353   0.0000       5.442569       148.0998 
 354   0.0000       5.466253       148.7443 
 355   0.0000       5.480798       149.1401 
 356   0.0000       5.521836       150.2568 
 357   0.0000       5.542576       150.8212 
 358   0.0000       5.574288       151.6841 
 359   0.0000       5.619217       152.9067 
 360   0.0000       5.656424       153.9191 
 361   0.0000       5.695239       154.9753 
 362   0.0000       5.712961       155.4576 
 363   0.0000       5.769887       157.0066 
 364   0.0000       5.869224       159.7097 
 365   0.0000       5.948725       161.8730 
 366   0.0000       6.102771       166.0648 
 367   0.0000       6.123684       166.6339 
 368   0.0000       6.167421       167.8241 
 369   0.0000       6.278256       170.8400 
 370   0.0000       6.354282       172.9088 
 371   0.0000       6.407731       174.3632 
 372   0.0000       6.424582       174.8218 
 373   0.0000       6.466291       175.9567 
 374   0.0000       6.522088       177.4750 
 375   0.0000       6.685268       181.9154 
 376   0.0000       6.761340       183.9854 
 377   0.0000       6.787645       184.7012 
 378   0.0000       6.828403       185.8103 
 379   0.0000       6.929679       188.5661 
 380   0.0000       7.106194       193.3694 
 381   0.0000       7.240997       197.0375 
 382   0.0000       7.506052       204.2500 
 383   0.0000       7.536047       205.0663 
 384   0.0000       7.565659       205.8720 
 385   0.0000       7.585363       206.4082 
 386   0.0000       7.641589       207.9382 
 387   0.0000       7.717136       209.9940 
 388   0.0000       7.757834       211.1014 
 389   0.0000       7.802044       212.3044 
 390   0.0000       7.805321       212.3936 
 391   0.0000       8.101392       220.4501 
 392   0.0000       8.133553       221.3252 
 393   0.0000       8.454303       230.0533 
 394   0.0000       8.490622       231.0416 
 395   0.0000       8.506477       231.4730 
 396   0.0000       8.548155       232.6071 
 397   0.0000       8.646860       235.2930 
 398   0.0000       8.822022       240.0594 
 399   0.0000       8.874073       241.4758 
 400   0.0000       8.926341       242.8981 
 401   0.0000       8.971149       244.1174 
 402   0.0000       8.973463       244.1803 
 403   0.0000       9.022894       245.5254 
 404   0.0000       9.058190       246.4859 
 405   0.0000       9.071131       246.8380 
 406   0.0000       9.134542       248.5635 
 407   0.0000       9.182877       249.8788 
 408   0.0000       9.235106       251.3000 
 409   0.0000       9.265767       252.1343 
 410   0.0000       9.277374       252.4502 
 411   0.0000       9.407408       255.9886 
 412   0.0000       9.483572       258.0611 
 413   0.0000       9.668181       263.0846 
 414   0.0000       9.784411       266.2474 
 415   0.0000       9.868831       268.5445 
 416   0.0000      10.368790       282.1491 
 417   0.0000      10.382567       282.5240 
 418   0.0000      10.534924       286.6699 
 419   0.0000      10.598669       288.4044 
 420   0.0000      10.677451       290.5482 
 421   0.0000      10.726742       291.8895 
 422   0.0000      10.731522       292.0195 
 423   0.0000      10.748284       292.4757 
 424   0.0000      10.765856       292.9538 
 425   0.0000      10.881597       296.1033 
 426   0.0000      10.884655       296.1865 
 427   0.0000      10.912251       296.9374 
 428   0.0000      10.947611       297.8996 
 429   0.0000      11.041111       300.4439 
 430   0.0000      11.069041       301.2039 
 431   0.0000      11.141923       303.1871 
 432   0.0000      11.153475       303.5015 
 433   0.0000      11.218098       305.2600 
 434   0.0000      11.481347       312.4233 
 435   0.0000      11.551055       314.3202 
 436   0.0000      11.633030       316.5508 
 437   0.0000      11.649505       316.9992 
 438   0.0000      11.688330       318.0556 
 439   0.0000      11.717527       318.8501 
 440   0.0000      11.811424       321.4052 
 441   0.0000      11.841612       322.2267 
 442   0.0000      11.849435       322.4395 
 443   0.0000      11.941506       324.9449 
 444   0.0000      12.116731       329.7130 
 445   0.0000      12.324581       335.3689 
 446   0.0000      12.331170       335.5482 
 447   0.0000      12.361305       336.3682 
 448   0.0000      12.385434       337.0248 
 449   0.0000      12.428676       338.2015 
 450   0.0000      12.439226       338.4886 
 451   0.0000      12.457989       338.9991 
 452   0.0000      12.492732       339.9445 
 453   0.0000      12.542398       341.2960 
 454   0.0000      12.602782       342.9391 
 455   0.0000      12.707307       345.7834 
 456   0.0000      12.721523       346.1702 
 457   0.0000      12.764202       347.3316 
 458   0.0000      12.811463       348.6176 
 459   0.0000      12.942844       352.1927 
 460   0.0000      12.944286       352.2319 
 461   0.0000      13.056996       355.2989 
 462   0.0000      13.076672       355.8343 
 463   0.0000      13.143349       357.6487 
 464   0.0000      13.219335       359.7164 
 465   0.0000      13.312142       362.2418 
 466   0.0000      13.318385       362.4117 
 467   0.0000      13.495375       367.2278 
 468   0.0000      13.504620       367.4794 
 469   0.0000      13.598768       370.0413 
 470   0.0000      13.629071       370.8659 
 471   0.0000      13.704651       372.9225 
 472   0.0000      14.007645       381.1674 
 473   0.0000      14.262478       388.1018 
 474   0.0000      14.360636       390.7728 
 475   0.0000      14.964805       407.2130 
 476   0.0000      15.148364       412.2079 
 477   0.0000      15.377561       418.4447 
 478   0.0000      15.688798       426.9139 
 479   0.0000      16.168297       439.9617 
 480   0.0000      16.174656       440.1348 
 481   0.0000      16.266099       442.6231 
 482   0.0000      16.401176       446.2987 
 483   0.0000      16.524110       449.6439 
 484   0.0000      16.727443       455.1769 
 485   0.0000      16.728010       455.1923 
 486   0.0000      16.730336       455.2556 
 487   0.0000      16.734349       455.3648 
 488   0.0000      16.747188       455.7141 
 489   0.0000      16.748336       455.7454 
 490   0.0000      16.770928       456.3602 
 491   0.0000      16.774233       456.4501 
 492   0.0000      16.785975       456.7696 
 493   0.0000      16.925472       460.5655 
 494   0.0000      17.022289       463.2000 
 495   0.0000      17.066236       464.3959 
 496   0.0000      17.125186       466.0000 
 497   0.0000      17.229501       468.8386 
 498   0.0000      17.229833       468.8476 
 499   0.0000      17.268887       469.9103 
 500   0.0000      17.521330       476.7796 
 501   0.0000      17.764964       483.4092 
 502   0.0000      17.873297       486.3571 
 503   0.0000      18.072428       491.7758 
 504   0.0000      18.366843       499.7872 
 505   0.0000      18.573815       505.4192 
 506   0.0000      18.628454       506.9060 
 507   0.0000      18.668233       507.9884 
 508   0.0000      18.994606       516.8695 
 509   0.0000      19.887315       541.1613 
 510   0.0000      20.034203       545.1584 
 511   0.0000      20.189089       549.3731 
 512   0.0000      20.199321       549.6515 
 513   0.0000      20.347036       553.6710 
 514   0.0000      20.488311       557.5153 
 515   0.0000      21.278380       579.0142 
 516   0.0000      21.366281       581.4061 
 517   0.0000      23.316315       634.4692 
 518   0.0000      23.453786       638.2100 
 519   0.0000      23.494468       639.3170 
 520   0.0000      23.553471       640.9225 
 521   0.0000      23.631082       643.0344 
 522   0.0000      23.878455       649.7658 
 523   0.0000      23.968517       652.2165 
 524   0.0000      25.433377       692.0774 
 525   0.0000      25.690808       699.0824 
 526   0.0000      25.949509       706.1220 
 527   0.0000      32.187183       875.8578 
 528   0.0000      32.298169       878.8779 
 529   0.0000      32.788764       892.2276 
 530   0.0000      33.507857       911.7952 
 531   0.0000      33.824718       920.4174 
 532   0.0000      39.804530      1083.1363 
 533   0.0000      41.088978      1118.0879 
 534   0.0000      41.156756      1119.9323 
 535   0.0000      59.000331      1605.4806 
 536   0.0000      59.022034      1606.0712 
 537   0.0000      59.190784      1610.6631 
 538   0.0000      59.321365      1614.2164 
 539   0.0000      59.805155      1627.3810 
 540   0.0000      75.421980      2052.3364 
 541   0.0000      90.936937      2474.5199 
 542   0.0000      91.038321      2477.2787 
 543   0.0000      91.047272      2477.5222 
 544   0.0000      91.089747      2478.6780 
 545   0.0000      91.140665      2480.0636 
 546   0.0000      91.358385      2485.9880 
 547   0.0000      91.503133      2489.9268 
 548   0.0000      92.355335      2513.1164 
 549   0.0000      92.486706      2516.6912 

                 SPIN DOWN ORBITALS
  NO   OCC          E(Eh)            E(eV) 
   0   1.0000     -76.281986     -2075.7384 
   1   1.0000      -9.910263      -269.6720 
   2   1.0000      -6.302140      -171.4900 
   3   1.0000      -4.519134      -122.9719 
   4   1.0000      -4.517167      -122.9184 
   5   1.0000      -4.512969      -122.8041 
   6   1.0000      -0.662922       -18.0390 
   7   1.0000      -0.509888       -13.8747 
   8   1.0000      -0.405694       -11.0395 
   9   1.0000      -0.338061        -9.1991 
  10   1.0000      -0.251271        -6.8374 
  11   1.0000      -0.249863        -6.7991 
  12   0.0000      -0.102803        -2.7974 
  13   0.0000      -0.025561        -0.6955 
  14   0.0000      -0.001406        -0.0383 
  15   0.0000       0.006090         0.1657 
  16   0.0000       0.010956         0.2981 
  17   0.0000       0.014743         0.4012 
  18   0.0000       0.031023         0.8442 
  19   0.0000       0.032076         0.8728 
  20   0.0000       0.036456         0.9920 
  21   0.0000       0.038621         1.0509 
  22   0.0000       0.046113         1.2548 
  23   0.0000       0.048984         1.3329 
  24   0.0000       0.052460         1.4275 
  25   0.0000       0.055822         1.5190 
  26   0.0000       0.058332         1.5873 
  27   0.0000       0.061388         1.6705 
  28   0.0000       0.076057         2.0696 
  29   0.0000       0.084300         2.2939 
  30   0.0000       0.088680         2.4131 
  31   0.0000       0.096489         2.6256 
  32   0.0000       0.104096         2.8326 
  33   0.0000       0.104459         2.8425 
  34   0.0000       0.105675         2.8756 
  35   0.0000       0.109000         2.9660 
  36   0.0000       0.115561         3.1446 
  37   0.0000       0.122711         3.3391 
  38   0.0000       0.123748         3.3673 
  39   0.0000       0.129330         3.5192 
  40   0.0000       0.136883         3.7248 
  41   0.0000       0.139348         3.7918 
  42   0.0000       0.143450         3.9035 
  43   0.0000       0.144728         3.9382 
  44   0.0000       0.150582         4.0975 
  45   0.0000       0.154787         4.2120 
  46   0.0000       0.164685         4.4813 
  47   0.0000       0.168026         4.5722 
  48   0.0000       0.169905         4.6234 
  49   0.0000       0.178060         4.8453 
  50   0.0000       0.182403         4.9635 
  51   0.0000       0.186157         5.0656 
  52   0.0000       0.199612         5.4317 
  53   0.0000       0.204785         5.5725 
  54   0.0000       0.206872         5.6293 
  55   0.0000       0.218221         5.9381 
  56   0.0000       0.218252         5.9389 
  57   0.0000       0.219885         5.9834 
  58   0.0000       0.221739         6.0338 
  59   0.0000       0.223646         6.0857 
  60   0.0000       0.227682         6.1956 
  61   0.0000       0.235376         6.4049 
  62   0.0000       0.248950         6.7743 
  63   0.0000       0.256223         6.9722 
  64   0.0000       0.260363         7.0848 
  65   0.0000       0.268529         7.3070 
  66   0.0000       0.271961         7.4004 
  67   0.0000       0.272413         7.4127 
  68   0.0000       0.278411         7.5759 
  69   0.0000       0.279759         7.6126 
  70   0.0000       0.281844         7.6694 
  71   0.0000       0.286064         7.7842 
  72   0.0000       0.286923         7.8076 
  73   0.0000       0.294617         8.0169 
  74   0.0000       0.295019         8.0279 
  75   0.0000       0.306796         8.3484 
  76   0.0000       0.311736         8.4828 
  77   0.0000       0.317998         8.6532 
  78   0.0000       0.319244         8.6871 
  79   0.0000       0.321149         8.7389 
  80   0.0000       0.324963         8.8427 
  81   0.0000       0.325021         8.8443 
  82   0.0000       0.331467         9.0197 
  83   0.0000       0.333055         9.0629 
  84   0.0000       0.336803         9.1649 
  85   0.0000       0.345435         9.3998 
  86   0.0000       0.354906         9.6575 
  87   0.0000       0.378174        10.2906 
  88   0.0000       0.382815        10.4169 
  89   0.0000       0.383874        10.4457 
  90   0.0000       0.384195        10.4545 
  91   0.0000       0.389860        10.6086 
  92   0.0000       0.395873        10.7723 
  93   0.0000       0.417951        11.3730 
  94   0.0000       0.421657        11.4739 
  95   0.0000       0.427102        11.6220 
  96   0.0000       0.430717        11.7204 
  97   0.0000       0.436359        11.8739 
  98   0.0000       0.437719        11.9109 
  99   0.0000       0.438745        11.9389 
 100   0.0000       0.441235        12.0066 
 101   0.0000       0.451676        12.2907 
 102   0.0000       0.452251        12.3064 
 103   0.0000       0.461035        12.5454 
 104   0.0000       0.462906        12.5963 
 105   0.0000       0.466236        12.6869 
 106   0.0000       0.471464        12.8292 
 107   0.0000       0.477711        12.9992 
 108   0.0000       0.479986        13.0611 
 109   0.0000       0.480721        13.0811 
 110   0.0000       0.486623        13.2417 
 111   0.0000       0.488489        13.2925 
 112   0.0000       0.490057        13.3351 
 113   0.0000       0.502795        13.6817 
 114   0.0000       0.504323        13.7233 
 115   0.0000       0.507917        13.8211 
 116   0.0000       0.517191        14.0735 
 117   0.0000       0.523496        14.2451 
 118   0.0000       0.525691        14.3048 
 119   0.0000       0.531430        14.4610 
 120   0.0000       0.542832        14.7712 
 121   0.0000       0.543050        14.7771 
 122   0.0000       0.549197        14.9444 
 123   0.0000       0.553418        15.0593 
 124   0.0000       0.556411        15.1407 
 125   0.0000       0.557837        15.1795 
 126   0.0000       0.571338        15.5469 
 127   0.0000       0.572529        15.5793 
 128   0.0000       0.574218        15.6253 
 129   0.0000       0.575324        15.6554 
 130   0.0000       0.583011        15.8645 
 131   0.0000       0.590780        16.0759 
 132   0.0000       0.595323        16.1996 
 133   0.0000       0.602257        16.3882 
 134   0.0000       0.606984        16.5169 
 135   0.0000       0.608951        16.5704 
 136   0.0000       0.623772        16.9737 
 137   0.0000       0.628138        17.0925 
 138   0.0000       0.634526        17.2663 
 139   0.0000       0.640702        17.4344 
 140   0.0000       0.643823        17.5193 
 141   0.0000       0.654512        17.8102 
 142   0.0000       0.663258        18.0482 
 143   0.0000       0.665873        18.1193 
 144   0.0000       0.673993        18.3403 
 145   0.0000       0.678328        18.4582 
 146   0.0000       0.685632        18.6570 
 147   0.0000       0.698870        19.0172 
 148   0.0000       0.699062        19.0225 
 149   0.0000       0.704080        19.1590 
 150   0.0000       0.715664        19.4742 
 151   0.0000       0.717359        19.5203 
 152   0.0000       0.725077        19.7303 
 153   0.0000       0.729663        19.8551 
 154   0.0000       0.744195        20.2506 
 155   0.0000       0.748306        20.3624 
 156   0.0000       0.753671        20.5084 
 157   0.0000       0.760024        20.6813 
 158   0.0000       0.770004        20.9529 
 159   0.0000       0.778443        21.1825 
 160   0.0000       0.781807        21.2740 
 161   0.0000       0.786798        21.4099 
 162   0.0000       0.787647        21.4330 
 163   0.0000       0.796569        21.6758 
 164   0.0000       0.802798        21.8452 
 165   0.0000       0.803628        21.8678 
 166   0.0000       0.810681        22.0598 
 167   0.0000       0.810837        22.0640 
 168   0.0000       0.824601        22.4385 
 169   0.0000       0.828353        22.5406 
 170   0.0000       0.833557        22.6823 
 171   0.0000       0.838161        22.8075 
 172   0.0000       0.839145        22.8343 
 173   0.0000       0.840214        22.8634 
 174   0.0000       0.848783        23.0966 
 175   0.0000       0.859737        23.3946 
 176   0.0000       0.865085        23.5402 
 177   0.0000       0.866582        23.5809 
 178   0.0000       0.871221        23.7071 
 179   0.0000       0.873369        23.7656 
 180   0.0000       0.875513        23.8239 
 181   0.0000       0.879526        23.9331 
 182   0.0000       0.893404        24.3107 
 183   0.0000       0.894651        24.3447 
 184   0.0000       0.895035        24.3552 
 185   0.0000       0.904811        24.6212 
 186   0.0000       0.909405        24.7462 
 187   0.0000       0.912308        24.8252 
 188   0.0000       0.917012        24.9532 
 189   0.0000       0.917587        24.9688 
 190   0.0000       0.919519        25.0214 
 191   0.0000       0.924228        25.1495 
 192   0.0000       0.931532        25.3483 
 193   0.0000       0.932025        25.3617 
 194   0.0000       0.940032        25.5796 
 195   0.0000       0.959179        26.1006 
 196   0.0000       0.963522        26.2188 
 197   0.0000       0.968208        26.3463 
 198   0.0000       0.987877        26.8815 
 199   0.0000       0.992701        27.0128 
 200   0.0000       1.017691        27.6928 
 201   0.0000       1.019574        27.7440 
 202   0.0000       1.023322        27.8460 
 203   0.0000       1.040115        28.3030 
 204   0.0000       1.078281        29.3415 
 205   0.0000       1.082820        29.4650 
 206   0.0000       1.098856        29.9014 
 207   0.0000       1.104403        30.0523 
 208   0.0000       1.114016        30.3139 
 209   0.0000       1.122597        30.5474 
 210   0.0000       1.156910        31.4811 
 211   0.0000       1.220312        33.2064 
 212   0.0000       1.232087        33.5268 
 213   0.0000       1.241828        33.7919 
 214   0.0000       1.252057        34.0702 
 215   0.0000       1.265797        34.4441 
 216   0.0000       1.296027        35.2667 
 217   0.0000       1.308956        35.6185 
 218   0.0000       1.320142        35.9229 
 219   0.0000       1.340247        36.4700 
 220   0.0000       1.367993        37.2250 
 221   0.0000       1.370627        37.2967 
 222   0.0000       1.381128        37.5824 
 223   0.0000       1.396899        38.0116 
 224   0.0000       1.419050        38.6143 
 225   0.0000       1.466823        39.9143 
 226   0.0000       1.468993        39.9733 
 227   0.0000       1.476742        40.1842 
 228   0.0000       1.508604        41.0512 
 229   0.0000       1.531463        41.6732 
 230   0.0000       1.532339        41.6971 
 231   0.0000       1.540948        41.9313 
 232   0.0000       1.557635        42.3854 
 233   0.0000       1.580014        42.9944 
 234   0.0000       1.585655        43.1479 
 235   0.0000       1.591770        43.3143 
 236   0.0000       1.595573        43.4178 
 237   0.0000       1.608188        43.7610 
 238   0.0000       1.626549        44.2607 
 239   0.0000       1.667181        45.3663 
 240   0.0000       1.700621        46.2763 
 241   0.0000       1.707425        46.4614 
 242   0.0000       1.710824        46.5539 
 243   0.0000       1.732060        47.1317 
 244   0.0000       1.746736        47.5311 
 245   0.0000       1.757671        47.8287 
 246   0.0000       1.781334        48.4726 
 247   0.0000       1.786213        48.6053 
 248   0.0000       1.815003        49.3887 
 249   0.0000       1.859142        50.5898 
 250   0.0000       2.013730        54.7964 
 251   0.0000       2.015805        54.8528 
 252   0.0000       2.044156        55.6243 
 253   0.0000       2.087007        56.7904 
 254   0.0000       2.113362        57.5075 
 255   0.0000       2.148716        58.4695 
 256   0.0000       2.164111        58.8885 
 257   0.0000       2.168575        59.0099 
 258   0.0000       2.227190        60.6049 
 259   0.0000       2.277045        61.9615 
 260   0.0000       2.278271        61.9949 
 261   0.0000       2.287827        62.2549 
 262   0.0000       2.326716        63.3132 
 263   0.0000       2.330226        63.4087 
 264   0.0000       2.344308        63.7919 
 265   0.0000       2.374110        64.6028 
 266   0.0000       2.381899        64.8148 
 267   0.0000       2.456438        66.8431 
 268   0.0000       2.534769        68.9746 
 269   0.0000       2.567414        69.8629 
 270   0.0000       2.638125        71.7870 
 271   0.0000       2.651405        72.1484 
 272   0.0000       2.656278        72.2810 
 273   0.0000       2.690780        73.2198 
 274   0.0000       2.702311        73.5336 
 275   0.0000       2.749835        74.8268 
 276   0.0000       2.775311        75.5200 
 277   0.0000       2.785658        75.8016 
 278   0.0000       2.872965        78.1774 
 279   0.0000       2.943120        80.0864 
 280   0.0000       2.953165        80.3597 
 281   0.0000       2.972765        80.8930 
 282   0.0000       2.992291        81.4244 
 283   0.0000       3.001833        81.6840 
 284   0.0000       3.037269        82.6483 
 285   0.0000       3.037822        82.6633 
 286   0.0000       3.093038        84.1659 
 287   0.0000       3.105555        84.5065 
 288   0.0000       3.132561        85.2413 
 289   0.0000       3.142348        85.5076 
 290   0.0000       3.173918        86.3667 
 291   0.0000       3.201593        87.1198 
 292   0.0000       3.220726        87.6404 
 293   0.0000       3.225678        87.7752 
 294   0.0000       3.284286        89.3700 
 295   0.0000       3.350925        91.1833 
 296   0.0000       3.400849        92.5418 
 297   0.0000       3.426767        93.2471 
 298   0.0000       3.461622        94.1955 
 299   0.0000       3.462864        94.2293 
 300   0.0000       3.507158        95.4346 
 301   0.0000       3.507531        95.4448 
 302   0.0000       3.539022        96.3017 
 303   0.0000       3.545227        96.4705 
 304   0.0000       3.588162        97.6389 
 305   0.0000       3.599438        97.9457 
 306   0.0000       3.627029        98.6965 
 307   0.0000       3.653659        99.4211 
 308   0.0000       3.674652        99.9924 
 309   0.0000       3.727146       101.4208 
 310   0.0000       3.736971       101.6882 
 311   0.0000       3.767834       102.5280 
 312   0.0000       3.777548       102.7923 
 313   0.0000       3.806064       103.5683 
 314   0.0000       3.817655       103.8837 
 315   0.0000       3.859896       105.0331 
 316   0.0000       3.913262       106.4853 
 317   0.0000       3.999675       108.8367 
 318   0.0000       4.013168       109.2039 
 319   0.0000       4.038825       109.9020 
 320   0.0000       4.076219       110.9196 
 321   0.0000       4.079545       111.0101 
 322   0.0000       4.122091       112.1678 
 323   0.0000       4.166656       113.3805 
 324   0.0000       4.271846       116.2428 
 325   0.0000       4.290478       116.7498 
 326   0.0000       4.341551       118.1396 
 327   0.0000       4.397585       119.6644 
 328   0.0000       4.445064       120.9564 
 329   0.0000       4.484608       122.0324 
 330   0.0000       4.485975       122.0696 
 331   0.0000       4.503586       122.5488 
 332   0.0000       4.553847       123.9165 
 333   0.0000       4.633701       126.0894 
 334   0.0000       4.654818       126.6640 
 335   0.0000       4.668510       127.0366 
 336   0.0000       4.696180       127.7896 
 337   0.0000       4.745927       129.1432 
 338   0.0000       4.806224       130.7840 
 339   0.0000       4.857558       132.1809 
 340   0.0000       4.925779       134.0373 
 341   0.0000       4.941530       134.4659 
 342   0.0000       4.952355       134.7604 
 343   0.0000       4.967071       135.1609 
 344   0.0000       5.018144       136.5506 
 345   0.0000       5.146524       140.0440 
 346   0.0000       5.195491       141.3765 
 347   0.0000       5.208245       141.7235 
 348   0.0000       5.236896       142.5032 
 349   0.0000       5.283138       143.7615 
 350   0.0000       5.320058       144.7661 
 351   0.0000       5.363453       145.9470 
 352   0.0000       5.375735       146.2812 
 353   0.0000       5.442569       148.0998 
 354   0.0000       5.466253       148.7443 
 355   0.0000       5.480798       149.1401 
 356   0.0000       5.521836       150.2568 
 357   0.0000       5.542576       150.8212 
 358   0.0000       5.574288       151.6841 
 359   0.0000       5.619217       152.9067 
 360   0.0000       5.656424       153.9191 
 361   0.0000       5.695239       154.9753 
 362   0.0000       5.712961       155.4576 
 363   0.0000       5.769887       157.0066 
 364   0.0000       5.869224       159.7097 
 365   0.0000       5.948725       161.8730 
 366   0.0000       6.102771       166.0648 
 367   0.0000       6.123684       166.6339 
 368   0.0000       6.167421       167.8241 
 369   0.0000       6.278256       170.8400 
 370   0.0000       6.354282       172.9088 
 371   0.0000       6.407731       174.3632 
 372   0.0000       6.424582       174.8218 
 373   0.0000       6.466291       175.9567 
 374   0.0000       6.522088       177.4750 
 375   0.0000       6.685268       181.9154 
 376   0.0000       6.761340       183.9854 
 377   0.0000       6.787645       184.7012 
 378   0.0000       6.828403       185.8103 
 379   0.0000       6.929679       188.5661 
 380   0.0000       7.106194       193.3694 
 381   0.0000       7.240997       197.0375 
 382   0.0000       7.506052       204.2500 
 383   0.0000       7.536047       205.0663 
 384   0.0000       7.565659       205.8720 
 385   0.0000       7.585363       206.4082 
 386   0.0000       7.641589       207.9382 
 387   0.0000       7.717136       209.9940 
 388   0.0000       7.757834       211.1014 
 389   0.0000       7.802044       212.3044 
 390   0.0000       7.805321       212.3936 
 391   0.0000       8.101392       220.4501 
 392   0.0000       8.133553       221.3252 
 393   0.0000       8.454303       230.0533 
 394   0.0000       8.490622       231.0416 
 395   0.0000       8.506477       231.4730 
 396   0.0000       8.548155       232.6071 
 397   0.0000       8.646860       235.2930 
 398   0.0000       8.822022       240.0594 
 399   0.0000       8.874073       241.4758 
 400   0.0000       8.926341       242.8981 
 401   0.0000       8.971149       244.1174 
 402   0.0000       8.973463       244.1803 
 403   0.0000       9.022894       245.5254 
 404   0.0000       9.058190       246.4859 
 405   0.0000       9.071131       246.8380 
 406   0.0000       9.134542       248.5635 
 407   0.0000       9.182877       249.8788 
 408   0.0000       9.235106       251.3000 
 409   0.0000       9.265767       252.1343 
 410   0.0000       9.277374       252.4502 
 411   0.0000       9.407408       255.9886 
 412   0.0000       9.483572       258.0611 
 413   0.0000       9.668181       263.0846 
 414   0.0000       9.784411       266.2474 
 415   0.0000       9.868831       268.5445 
 416   0.0000      10.368790       282.1491 
 417   0.0000      10.382567       282.5240 
 418   0.0000      10.534924       286.6699 
 419   0.0000      10.598669       288.4044 
 420   0.0000      10.677451       290.5482 
 421   0.0000      10.726742       291.8895 
 422   0.0000      10.731522       292.0195 
 423   0.0000      10.748284       292.4757 
 424   0.0000      10.765856       292.9538 
 425   0.0000      10.881597       296.1033 
 426   0.0000      10.884655       296.1865 
 427   0.0000      10.912251       296.9374 
 428   0.0000      10.947611       297.8996 
 429   0.0000      11.041111       300.4439 
 430   0.0000      11.069041       301.2039 
 431   0.0000      11.141923       303.1871 
 432   0.0000      11.153475       303.5015 
 433   0.0000      11.218098       305.2600 
 434   0.0000      11.481347       312.4233 
 435   0.0000      11.551055       314.3202 
 436   0.0000      11.633030       316.5508 
 437   0.0000      11.649505       316.9992 
 438   0.0000      11.688330       318.0556 
 439   0.0000      11.717527       318.8501 
 440   0.0000      11.811424       321.4052 
 441   0.0000      11.841612       322.2267 
 442   0.0000      11.849435       322.4395 
 443   0.0000      11.941506       324.9449 
 444   0.0000      12.116731       329.7130 
 445   0.0000      12.324581       335.3689 
 446   0.0000      12.331170       335.5482 
 447   0.0000      12.361305       336.3682 
 448   0.0000      12.385434       337.0248 
 449   0.0000      12.428676       338.2015 
 450   0.0000      12.439226       338.4886 
 451   0.0000      12.457989       338.9991 
 452   0.0000      12.492732       339.9445 
 453   0.0000      12.542398       341.2960 
 454   0.0000      12.602782       342.9391 
 455   0.0000      12.707307       345.7834 
 456   0.0000      12.721523       346.1702 
 457   0.0000      12.764202       347.3316 
 458   0.0000      12.811463       348.6176 
 459   0.0000      12.942844       352.1927 
 460   0.0000      12.944286       352.2319 
 461   0.0000      13.056996       355.2989 
 462   0.0000      13.076672       355.8343 
 463   0.0000      13.143349       357.6487 
 464   0.0000      13.219335       359.7164 
 465   0.0000      13.312142       362.2418 
 466   0.0000      13.318385       362.4117 
 467   0.0000      13.495375       367.2278 
 468   0.0000      13.504620       367.4794 
 469   0.0000      13.598768       370.0413 
 470   0.0000      13.629071       370.8659 
 471   0.0000      13.704651       372.9225 
 472   0.0000      14.007645       381.1674 
 473   0.0000      14.262478       388.1018 
 474   0.0000      14.360636       390.7728 
 475   0.0000      14.964805       407.2130 
 476   0.0000      15.148364       412.2079 
 477   0.0000      15.377561       418.4447 
 478   0.0000      15.688798       426.9139 
 479   0.0000      16.168297       439.9617 
 480   0.0000      16.174656       440.1348 
 481   0.0000      16.266099       442.6231 
 482   0.0000      16.401176       446.2987 
 483   0.0000      16.524110       449.6439 
 484   0.0000      16.727443       455.1769 
 485   0.0000      16.728010       455.1923 
 486   0.0000      16.730336       455.2556 
 487   0.0000      16.734349       455.3648 
 488   0.0000      16.747188       455.7141 
 489   0.0000      16.748336       455.7454 
 490   0.0000      16.770928       456.3602 
 491   0.0000      16.774233       456.4501 
 492   0.0000      16.785975       456.7696 
 493   0.0000      16.925472       460.5655 
 494   0.0000      17.022289       463.2000 
 495   0.0000      17.066236       464.3959 
 496   0.0000      17.125186       466.0000 
 497   0.0000      17.229501       468.8386 
 498   0.0000      17.229833       468.8476 
 499   0.0000      17.268887       469.9103 
 500   0.0000      17.521330       476.7796 
 501   0.0000      17.764964       483.4092 
 502   0.0000      17.873297       486.3571 
 503   0.0000      18.072428       491.7758 
 504   0.0000      18.366843       499.7872 
 505   0.0000      18.573815       505.4192 
 506   0.0000      18.628454       506.9060 
 507   0.0000      18.668233       507.9884 
 508   0.0000      18.994606       516.8695 
 509   0.0000      19.887315       541.1613 
 510   0.0000      20.034203       545.1584 
 511   0.0000      20.189089       549.3731 
 512   0.0000      20.199321       549.6515 
 513   0.0000      20.347036       553.6710 
 514   0.0000      20.488311       557.5153 
 515   0.0000      21.278380       579.0142 
 516   0.0000      21.366281       581.4061 
 517   0.0000      23.316315       634.4692 
 518   0.0000      23.453786       638.2100 
 519   0.0000      23.494468       639.3170 
 520   0.0000      23.553471       640.9225 
 521   0.0000      23.631082       643.0344 
 522   0.0000      23.878455       649.7658 
 523   0.0000      23.968517       652.2165 
 524   0.0000      25.433377       692.0774 
 525   0.0000      25.690808       699.0824 
 526   0.0000      25.949509       706.1220 
 527   0.0000      32.187183       875.8578 
 528   0.0000      32.298169       878.8779 
 529   0.0000      32.788764       892.2276 
 530   0.0000      33.507857       911.7952 
 531   0.0000      33.824718       920.4174 
 532   0.0000      39.804530      1083.1363 
 533   0.0000      41.088978      1118.0879 
 534   0.0000      41.156756      1119.9323 
 535   0.0000      59.000331      1605.4806 
 536   0.0000      59.022034      1606.0712 
 537   0.0000      59.190784      1610.6631 
 538   0.0000      59.321365      1614.2164 
 539   0.0000      59.805155      1627.3810 
 540   0.0000      75.421980      2052.3364 
 541   0.0000      90.936937      2474.5199 
 542   0.0000      91.038321      2477.2787 
 543   0.0000      91.047272      2477.5222 
 544   0.0000      91.089747      2478.6780 
 545   0.0000      91.140665      2480.0636 
 546   0.0000      91.358385      2485.9880 
 547   0.0000      91.503133      2489.9268 
 548   0.0000      92.355335      2513.1164 
 549   0.0000      92.486706      2516.6912 

                    ********************************
                    * MULLIKEN POPULATION ANALYSIS *
                    ********************************

--------------------------------------------
MULLIKEN ATOMIC CHARGES AND SPIN POPULATIONS
--------------------------------------------
   0 P :   -0.258801    0.000000
   1 H :    0.116583    0.000000
   2 C :   -0.057276    0.000000
   3 H :    0.052694    0.000000
   4 H :    0.146801   -0.000000
Sum of atomic charges         :   -0.0000000
Sum of atomic spin populations:   -0.0000000

-----------------------------------------------------
MULLIKEN REDUCED ORBITAL CHARGES AND SPIN POPULATIONS
-----------------------------------------------------
CHARGE
  0 P s       :     5.855953  s :     5.855953
      pz      :     3.081644  p :     9.213160
      px      :     3.053761
      py      :     3.077755
      dz2     :     0.060690  d :     0.175599
      dxz     :     0.033061
      dyz     :    -0.000222
      dx2y2   :     0.037522
      dxy     :     0.044549
      f0      :     0.003420  f :     0.012942
      f+1     :     0.000903
      f-1     :    -0.000260
      f+2     :     0.001498
      f-2     :     0.000263
      f+3     :     0.003101
      f-3     :     0.004016
      g0      :     0.000033  g :     0.001175
      g+1     :    -0.000101
      g-1     :    -0.000011
      g+2     :    -0.000064
      g-2     :    -0.000378
      g+3     :    -0.000362
      g-3     :     0.000339
      g+4     :     0.000366
      g-4     :     0.001352
      h0      :     0.000052  h :    -0.000028
      h+1     :    -0.000170
      h-1     :     0.000014
      h+2     :    -0.000048
      h-2     :    -0.000007
      h+3     :    -0.000062
      h-3     :    -0.000046
      h+4     :    -0.000058
      h-4     :     0.000069
      h+5     :     0.000048
      h-5     :     0.000179
  1 H s       :     0.961835  s :     0.961835
      pz      :    -0.014614  p :    -0.017843
      px      :     0.005327
      py      :    -0.008556
      dz2     :    -0.011211  d :    -0.040587
      dxz     :    -0.008161
      dyz     :    -0.020243
      dx2y2   :    -0.001091
      dxy     :     0.000119
      f0      :    -0.003514  f :    -0.017551
      f+1     :    -0.004278
      f-1     :    -0.006906
      f+2     :    -0.000872
      f-2     :    -0.002893
      f+3     :    -0.001037
      f-3     :     0.001949
      g0      :    -0.000537  g :    -0.002437
      g+1     :    -0.000403
      g-1     :    -0.000587
      g+2     :    -0.000382
      g-2     :    -0.000668
      g+3     :    -0.000138
      g-3     :     0.000020
      g+4     :    -0.000082
      g-4     :     0.000340
  2 C s       :     3.199741  s :     3.199741
      pz      :     1.015196  p :     2.798552
      px      :     0.924774
      py      :     0.858583
      dz2     :     0.021499  d :     0.053848
      dxz     :     0.011927
      dyz     :    -0.000115
      dx2y2   :     0.013662
      dxy     :     0.006875
      f0      :    -0.002335  f :     0.011378
      f+1     :     0.010828
      f-1     :     0.000759
      f+2     :     0.004317
      f-2     :    -0.001135
      f+3     :    -0.001318
      f-3     :     0.000261
      g0      :    -0.000240  g :    -0.005385
      g+1     :    -0.000395
      g-1     :    -0.000063
      g+2     :     0.000416
      g-2     :    -0.000591
      g+3     :    -0.001010
      g-3     :    -0.000689
      g+4     :     0.000514
      g-4     :    -0.003327
      h0      :     0.000022  h :    -0.000858
      h+1     :     0.000020
      h-1     :     0.000005
      h+2     :     0.000008
      h-2     :    -0.000038
      h+3     :    -0.000101
      h-3     :    -0.000088
      h+4     :    -0.000130
      h-4     :    -0.000062
      h+5     :     0.000071
      h-5     :    -0.000566
  3 H s       :     0.804365  s :     0.804365
      pz      :     0.027489  p :     0.104195
      px      :     0.025440
      py      :     0.051266
      dz2     :     0.005944  d :     0.024659
      dxz     :     0.002597
      dyz     :     0.006178
      dx2y2   :    -0.000260
      dxy     :     0.010200
      f0      :     0.003016  f :     0.012301
      f+1     :     0.003477
      f-1     :    -0.000079
      f+2     :     0.002049
      f-2     :     0.007183
      f+3     :    -0.000384
      f-3     :    -0.002963
      g0      :     0.000225  g :     0.001787
      g+1     :     0.000519
      g-1     :     0.000047
      g+2     :     0.000174
      g-2     :    -0.000001
      g+3     :     0.000572
      g-3     :     0.001451
      g+4     :    -0.000030
      g-4     :    -0.001170
  4 H s       :     0.833133  s :     0.833133
      pz      :     0.003689  p :     0.045508
      px      :     0.029074
      py      :     0.012745
      dz2     :    -0.001993  d :    -0.020107
      dxz     :     0.005690
      dyz     :    -0.007631
      dx2y2   :    -0.000114
      dxy     :    -0.016059
      f0      :     0.000503  f :    -0.004993
      f+1     :     0.001953
      f-1     :    -0.000750
      f+2     :     0.001162
      f-2     :    -0.000895
      f+3     :     0.001158
      f-3     :    -0.008124
      g0      :     0.000087  g :    -0.000342
      g+1     :     0.000159
      g-1     :    -0.000028
      g+2     :     0.000422
      g-2     :     0.000197
      g+3     :     0.000296
      g-3     :    -0.000613
      g+4     :     0.000092
      g-4     :    -0.000952

SPIN
  0 P s       :     0.000000  s :     0.000000
      pz      :     0.000000  p :     0.000000
      px      :     0.000000
      py      :    -0.000000
      dz2     :    -0.000000  d :     0.000000
      dxz     :    -0.000000
      dyz     :    -0.000000
      dx2y2   :     0.000000
      dxy     :     0.000000
      f0      :    -0.000000  f :    -0.000000
      f+1     :     0.000000
      f-1     :     0.000000
      f+2     :    -0.000000
      f-2     :    -0.000000
      f+3     :     0.000000
      f-3     :     0.000000
      g0      :    -0.000000  g :    -0.000000
      g+1     :    -0.000000
      g-1     :    -0.000000
      g+2     :     0.000000
      g-2     :     0.000000
      g+3     :    -0.000000
      g-3     :    -0.000000
      g+4     :    -0.000000
      g-4     :     0.000000
      h0      :    -0.000000  h :    -0.000000
      h+1     :     0.000000
      h-1     :    -0.000000
      h+2     :    -0.000000
      h-2     :    -0.000000
      h+3     :     0.000000
      h-3     :     0.000000
      h+4     :    -0.000000
      h-4     :     0.000000
      h+5     :    -0.000000
      h-5     :     0.000000
  1 H s       :     0.000000  s :     0.000000
      pz      :     0.000000  p :     0.000000
      px      :     0.000000
      py      :     0.000000
      dz2     :     0.000000  d :     0.000000
      dxz     :     0.000000
      dyz     :     0.000000
      dx2y2   :    -0.000000
      dxy     :    -0.000000
      f0      :     0.000000  f :     0.000000
      f+1     :     0.000000
      f-1     :     0.000000
      f+2     :     0.000000
      f-2     :     0.000000
      f+3     :    -0.000000
      f-3     :    -0.000000
      g0      :     0.000000  g :     0.000000
      g+1     :     0.000000
      g-1     :     0.000000
      g+2     :     0.000000
      g-2     :     0.000000
      g+3     :    -0.000000
      g-3     :     0.000000
      g+4     :    -0.000000
      g-4     :     0.000000
  2 C s       :     0.000000  s :     0.000000
      pz      :     0.000000  p :     0.000000
      px      :    -0.000000
      py      :    -0.000000
      dz2     :     0.000000  d :    -0.000000
      dxz     :    -0.000000
      dyz     :    -0.000000
      dx2y2   :    -0.000000
      dxy     :    -0.000000
      f0      :    -0.000000  f :     0.000000
      f+1     :     0.000000
      f-1     :    -0.000000
      f+2     :    -0.000000
      f-2     :    -0.000000
      f+3     :     0.000000
      f-3     :     0.000000
      g0      :     0.000000  g :     0.000000
      g+1     :     0.000000
      g-1     :     0.000000
      g+2     :    -0.000000
      g-2     :    -0.000000
      g+3     :    -0.000000
      g-3     :     0.000000
      g+4     :    -0.000000
      g-4     :     0.000000
      h0      :     0.000000  h :     0.000000
      h+1     :     0.000000
      h-1     :    -0.000000
      h+2     :     0.000000
      h-2     :     0.000000
      h+3     :     0.000000
      h-3     :     0.000000
      h+4     :    -0.000000
      h-4     :     0.000000
      h+5     :    -0.000000
      h-5     :     0.000000
  3 H s       :     0.000000  s :     0.000000
      pz      :     0.000000  p :     0.000000
      px      :     0.000000
      py      :     0.000000
      dz2     :     0.000000  d :     0.000000
      dxz     :    -0.000000
      dyz     :     0.000000
      dx2y2   :     0.000000
      dxy     :     0.000000
      f0      :     0.000000  f :    -0.000000
      f+1     :    -0.000000
      f-1     :     0.000000
      f+2     :     0.000000
      f-2     :     0.000000
      f+3     :    -0.000000
      f-3     :     0.000000
      g0      :    -0.000000  g :    -0.000000
      g+1     :     0.000000
      g-1     :    -0.000000
      g+2     :    -0.000000
      g-2     :     0.000000
      g+3     :     0.000000
      g-3     :    -0.000000
      g+4     :    -0.000000
      g-4     :     0.000000
  4 H s       :    -0.000000  s :    -0.000000
      pz      :    -0.000000  p :    -0.000000
      px      :    -0.000000
      py      :     0.000000
      dz2     :    -0.000000  d :    -0.000000
      dxz     :    -0.000000
      dyz     :     0.000000
      dx2y2   :     0.000000
      dxy     :     0.000000
      f0      :    -0.000000  f :     0.000000
      f+1     :    -0.000000
      f-1     :     0.000000
      f+2     :     0.000000
      f-2     :     0.000000
      f+3     :    -0.000000
      f-3     :     0.000000
      g0      :    -0.000000  g :     0.000000
      g+1     :     0.000000
      g-1     :     0.000000
      g+2     :     0.000000
      g-2     :     0.000000
      g+3     :     0.000000
      g-3     :     0.000000
      g+4     :    -0.000000
      g-4     :     0.000000


                     *******************************
                     * LOEWDIN POPULATION ANALYSIS *
                     *******************************

-------------------------------------------
LOEWDIN ATOMIC CHARGES AND SPIN POPULATIONS
-------------------------------------------
   0 P :    1.714793    0.000000
   1 H :   -0.708421    0.000000
   2 C :    0.317826    0.000000
   3 H :   -0.658701    0.000000
   4 H :   -0.665497   -0.000000

----------------------------------------------------
LOEWDIN REDUCED ORBITAL CHARGES AND SPIN POPULATIONS
----------------------------------------------------
CHARGE
  0 P s       :     4.672999  s :     4.672999
      pz      :     2.703178  p :     8.053319
      px      :     2.805466
      py      :     2.544675
      dz2     :     0.117813  d :     0.334071
      dxz     :     0.082817
      dyz     :     0.001076
      dx2y2   :     0.089499
      dxy     :     0.042866
      f0      :     0.038634  f :     0.136745
      f+1     :     0.019217
      f-1     :     0.002278
      f+2     :     0.033003
      f-2     :     0.000849
      f+3     :     0.026706
      f-3     :     0.016057
      g0      :     0.005494  g :     0.060863
      g+1     :     0.012104
      g-1     :     0.000033
      g+2     :     0.007391
      g-2     :     0.000740
      g+3     :     0.014869
      g-3     :     0.000557
      g+4     :     0.012457
      g-4     :     0.007219
      h0      :     0.001867  h :     0.027209
      h+1     :     0.002899
      h-1     :     0.000082
      h+2     :     0.004152
      h-2     :     0.000087
      h+3     :     0.002697
      h-3     :     0.000421
      h+4     :     0.006502
      h-4     :     0.000297
      h+5     :     0.005587
      h-5     :     0.002617
  1 H s       :     0.778444  s :     0.778444
      pz      :     0.202018  p :     0.361931
      px      :     0.087592
      py      :     0.072321
      dz2     :     0.098558  d :     0.296615
      dxz     :     0.105212
      dyz     :     0.068753
      dx2y2   :     0.017908
      dxy     :     0.006185
      f0      :     0.041318  f :     0.171688
      f+1     :     0.061882
      f-1     :     0.026781
      f+2     :     0.019406
      f-2     :     0.008404
      f+3     :     0.010953
      f-3     :     0.002944
      g0      :     0.013856  g :     0.099743
      g+1     :     0.039451
      g-1     :     0.007472
      g+2     :     0.011869
      g-2     :     0.004757
      g+3     :     0.011738
      g-3     :     0.004821
      g+4     :     0.004743
      g-4     :     0.001035
  2 C s       :     2.575888  s :     2.575888
      pz      :     0.870197  p :     2.416721
      px      :     0.945680
      py      :     0.600844
      dz2     :     0.097458  d :     0.467431
      dxz     :     0.188434
      dyz     :     0.001304
      dx2y2   :     0.116761
      dxy     :     0.063474
      f0      :     0.012590  f :     0.136731
      f+1     :     0.041604
      f-1     :     0.002127
      f+2     :     0.031889
      f-2     :     0.001220
      f+3     :     0.028669
      f-3     :     0.018633
      g0      :     0.008617  g :     0.058060
      g+1     :     0.002734
      g-1     :     0.000163
      g+2     :     0.017235
      g-2     :     0.000895
      g+3     :     0.011987
      g-3     :     0.000627
      g+4     :     0.009282
      g-4     :     0.006520
      h0      :     0.000580  h :     0.027343
      h+1     :     0.004384
      h-1     :     0.000050
      h+2     :     0.000643
      h-2     :     0.000095
      h+3     :     0.007576
      h-3     :     0.000297
      h+4     :     0.004415
      h-4     :     0.000342
      h+5     :     0.004343
      h-5     :     0.004616
  3 H s       :     0.680343  s :     0.680343
      pz      :     0.133344  p :     0.371893
      px      :     0.147111
      py      :     0.091438
      dz2     :     0.091361  d :     0.316234
      dxz     :     0.078016
      dyz     :     0.029707
      dx2y2   :     0.063331
      dxy     :     0.053819
      f0      :     0.044551  f :     0.185848
      f+1     :     0.029751
      f-1     :     0.001010
      f+2     :     0.042753
      f-2     :     0.014294
      f+3     :     0.029070
      f-3     :     0.024419
      g0      :     0.008660  g :     0.104383
      g+1     :     0.027757
      g-1     :     0.000093
      g+2     :     0.009936
      g-2     :     0.000048
      g+3     :     0.020805
      g-3     :     0.005808
      g+4     :     0.016444
      g-4     :     0.014831
  4 H s       :     0.703963  s :     0.703963
      pz      :     0.158889  p :     0.375941
      px      :     0.123629
      py      :     0.093422
      dz2     :     0.092928  d :     0.310435
      dxz     :     0.094085
      dyz     :     0.057861
      dx2y2   :     0.038799
      dxy     :     0.026763
      f0      :     0.037171  f :     0.174774
      f+1     :     0.053627
      f-1     :     0.009058
      f+2     :     0.025005
      f-2     :     0.020471
      f+3     :     0.018222
      f-3     :     0.011219
      g0      :     0.015469  g :     0.100384
      g+1     :     0.024430
      g-1     :     0.000138
      g+2     :     0.019428
      g-2     :     0.003457
      g+3     :     0.011045
      g-3     :     0.010914
      g+4     :     0.008811
      g-4     :     0.006694

SPIN
  0 P s       :     0.000000  s :     0.000000
      pz      :     0.000000  p :    -0.000000
      px      :    -0.000000
      py      :    -0.000000
      dz2     :     0.000000  d :    -0.000000
      dxz     :    -0.000000
      dyz     :    -0.000000
      dx2y2   :    -0.000000
      dxy     :     0.000000
      f0      :    -0.000000  f :    -0.000000
      f+1     :     0.000000
      f-1     :     0.000000
      f+2     :    -0.000000
      f-2     :    -0.000000
      f+3     :    -0.000000
      f-3     :     0.000000
      g0      :     0.000000  g :     0.000000
      g+1     :     0.000000
      g-1     :    -0.000000
      g+2     :     0.000000
      g-2     :     0.000000
      g+3     :    -0.000000
      g-3     :     0.000000
      g+4     :     0.000000
      g-4     :     0.000000
      h0      :    -0.000000  h :     0.000000
      h+1     :     0.000000
      h-1     :     0.000000
      h+2     :    -0.000000
      h-2     :     0.000000
      h+3     :     0.000000
      h-3     :     0.000000
      h+4     :     0.000000
      h-4     :    -0.000000
      h+5     :     0.000000
      h-5     :     0.000000
  1 H s       :     0.000000  s :     0.000000
      pz      :    -0.000000  p :    -0.000000
      px      :     0.000000
      py      :    -0.000000
      dz2     :     0.000000  d :     0.000000
      dxz     :     0.000000
      dyz     :    -0.000000
      dx2y2   :    -0.000000
      dxy     :     0.000000
      f0      :     0.000000  f :    -0.000000
      f+1     :    -0.000000
      f-1     :     0.000000
      f+2     :     0.000000
      f-2     :    -0.000000
      f+3     :    -0.000000
      f-3     :    -0.000000
      g0      :    -0.000000  g :    -0.000000
      g+1     :    -0.000000
      g-1     :    -0.000000
      g+2     :    -0.000000
      g-2     :     0.000000
      g+3     :    -0.000000
      g-3     :    -0.000000
      g+4     :     0.000000
      g-4     :     0.000000
  2 C s       :     0.000000  s :     0.000000
      pz      :     0.000000  p :     0.000000
      px      :    -0.000000
      py      :     0.000000
      dz2     :    -0.000000  d :    -0.000000
      dxz     :     0.000000
      dyz     :     0.000000
      dx2y2   :    -0.000000
      dxy     :    -0.000000
      f0      :    -0.000000  f :     0.000000
      f+1     :    -0.000000
      f-1     :     0.000000
      f+2     :     0.000000
      f-2     :    -0.000000
      f+3     :     0.000000
      f-3     :    -0.000000
      g0      :     0.000000  g :     0.000000
      g+1     :     0.000000
      g-1     :    -0.000000
      g+2     :    -0.000000
      g-2     :    -0.000000
      g+3     :     0.000000
      g-3     :     0.000000
      g+4     :     0.000000
      g-4     :    -0.000000
      h0      :     0.000000  h :     0.000000
      h+1     :    -0.000000
      h-1     :     0.000000
      h+2     :     0.000000
      h-2     :    -0.000000
      h+3     :     0.000000
      h-3     :    -0.000000
      h+4     :     0.000000
      h-4     :    -0.000000
      h+5     :    -0.000000
      h-5     :     0.000000
  3 H s       :     0.000000  s :     0.000000
      pz      :     0.000000  p :     0.000000
      px      :    -0.000000
      py      :     0.000000
      dz2     :     0.000000  d :     0.000000
      dxz     :    -0.000000
      dyz     :     0.000000
      dx2y2   :     0.000000
      dxy     :     0.000000
      f0      :     0.000000  f :    -0.000000
      f+1     :    -0.000000
      f-1     :     0.000000
      f+2     :    -0.000000
      f-2     :    -0.000000
      f+3     :    -0.000000
      f-3     :     0.000000
      g0      :    -0.000000  g :    -0.000000
      g+1     :    -0.000000
      g-1     :     0.000000
      g+2     :    -0.000000
      g-2     :    -0.000000
      g+3     :    -0.000000
      g-3     :    -0.000000
      g+4     :    -0.000000
      g-4     :    -0.000000
  4 H s       :    -0.000000  s :    -0.000000
      pz      :     0.000000  p :    -0.000000
      px      :    -0.000000
      py      :    -0.000000
      dz2     :    -0.000000  d :    -0.000000
      dxz     :    -0.000000
      dyz     :     0.000000
      dx2y2   :     0.000000
      dxy     :    -0.000000
      f0      :     0.000000  f :     0.000000
      f+1     :     0.000000
      f-1     :     0.000000
      f+2     :     0.000000
      f-2     :     0.000000
      f+3     :     0.000000
      f-3     :     0.000000
      g0      :     0.000000  g :     0.000000
      g+1     :    -0.000000
      g-1     :     0.000000
      g+2     :     0.000000
      g-2     :    -0.000000
      g+3     :     0.000000
      g-3     :    -0.000000
      g+4     :    -0.000000
      g-4     :    -0.000000


                      *****************************
                      * MAYER POPULATION ANALYSIS *
                      *****************************

  NA   - Mulliken gross atomic population
  ZA   - Total nuclear charge
  QA   - Mulliken gross atomic charge
  VA   - Mayer's total valence
  BVA  - Mayer's bonded valence
  FA   - Mayer's free valence

  ATOM       NA         ZA         QA         VA         BVA        FA
  0 P     15.2588    15.0000    -0.2588     2.9139     2.9139    -0.0000
  1 H      0.8834     1.0000     0.1166     0.7709     0.7709    -0.0000
  2 C      6.0573     6.0000    -0.0573     3.7319     3.7319     0.0000
  3 H      0.9473     1.0000     0.0527     1.2376     1.2376    -0.0000
  4 H      0.8532     1.0000     0.1468     0.9631     0.9631     0.0000

  Mayer bond orders larger than 0.1
B(  0-P ,  1-H ) :   0.8153 B(  0-P ,  2-C ) :   1.8917 B(  0-P ,  3-H ) :   0.1643 
B(  2-C ,  3-H ) :   1.0330 B(  2-C ,  4-H ) :   0.8706 

-------
TIMINGS
-------

Total SCF time: 0 days 1 hours 2 min 26 sec 

Total time                  ....    3746.078 sec
Sum of individual times     ....    3744.343 sec  (100.0%)

Fock matrix formation       ....    3734.935 sec  ( 99.7%)
  XC integration            ....      49.853 sec  (  1.3% of F)
    Basis function eval.    ....       2.618 sec  (  5.3% of XC)
    Density eval.           ....      14.393 sec  ( 28.9% of XC)
    XC-Functional eval.     ....       0.217 sec  (  0.4% of XC)
    XC-Potential eval.      ....      30.476 sec  ( 61.1% of XC)
Diagonalization             ....       4.500 sec  (  0.1%)
Density matrix formation    ....       0.067 sec  (  0.0%)
Population analysis         ....       0.296 sec  (  0.0%)
Initial guess               ....       1.654 sec  (  0.0%)
Orbital Transformation      ....       0.000 sec  (  0.0%)
Orbital Orthonormalization  ....       0.000 sec  (  0.0%)
DIIS solution               ....       2.408 sec  (  0.1%)
Grid generation             ....       0.484 sec  (  0.0%)

-------------------------   --------------------
FINAL SINGLE POINT ENERGY      -381.046226401552
-------------------------   --------------------


                            ***************************************
                            *     ORCA property calculations      *
                            ***************************************

                                    ---------------------
                                    Active property flags
                                    ---------------------
   (+) Dipole Moment
   (+) Polarizability


------------------------------------------------------------------------------
                       ORCA ELECTRIC PROPERTIES CALCULATION
------------------------------------------------------------------------------

Dipole Moment Calculation                       ... on
Quadrupole Moment Calculation                   ... off
Polarizability Calculation                      ... Analytic (CP-SCF)
GBWName                                         ... ch2ph_pbe.gbw
Electron density file                           ... ch2ph_pbe.scfp.tmp
The origin for moment calculation is the CENTER OF MASS  = ( 1.002910,  0.000000 -0.068353)

-------------
DIPOLE MOMENT
-------------
                                X             Y             Z
Electronic contribution:     -2.82473      -0.00000      -0.68529
Nuclear contribution   :      3.14871       0.00000       0.82726
                        -----------------------------------------
Total Dipole Moment    :      0.32399      -0.00000       0.14198
                        -----------------------------------------
Magnitude (a.u.)       :      0.35373
Magnitude (Debye)      :      0.89911



--------------------
Rotational spectrum 
--------------------
 
Rotational constants in cm-1:     4.655134     0.546590     0.489155 
Rotational constants in MHz : 139557.394477 16386.345020 14664.491331 

 Dipole components along the rotational axes: 
x,y,z [a.u.] :     0.297017     0.192109     0.000000 
x,y,z [Debye]:     0.754956     0.488302     0.000000 

 
Transforming and storing MO dipole integrals   ... done

                ... starting polarizability calculation

Opening the Dipole integral file               ... (ch2ph_pbe.dmo.tmp) done
Reading Dipole-MO integrals                    ... done
Solving CP-SCF equations                       ... 

           ************************************************************
           *        Program running with 4 parallel MPI-processes     *
           *              working on a common directory               *
           ************************************************************

------------------------------------------------------------------------------
                           ORCA CP-SCF CALCULATION
------------------------------------------------------------------------------

Input orbitals are from        ... ch2ph_pbe.gbw
Input Perturbation             ... ch2ph_pbe.cpv.tmp
Wavefunction output            ... ch2ph_pbe.cpu.tmp
Perturbation mode              ... Real perturbation (singlet)
Solver                         ... POPLE
Max. number of iterations      ... 200
Convergence tolerance          ... 1.000e-06
Integral handling              ... Direct
Number of perturbations        ... 3
Number of operators            ... 2
Orbital ranges used for CP-SCF:
 Operator 0:  Orbitals   0... 11  to  12...549
 Operator 1:  Orbitals   0... 11  to  12...549
DFT calculation                         ... on
Exchange functional (SCF)               ... PBE
Exchange functional (CP-SCF)            ... PBE
   PBE kappa parameter  XKappa (SCF)    ...  0.804000
   PBE kappa parameter  XKappa (CP-SCF) ...  0.804000
   PBE mue parameter   XMuePBE (SCF)    ...  0.219520
   PBE mue parameter   XMuePBE (CP-SCF) ...  0.219520
Correlation functional (SCF)            ... PBE
Correlation functional (CP-SCF)         ... PBE
   PBE beta parameter CBetaPBE (SCF)    ...  0.066725
   PBE beta parameter CBetaPBE (CP-SCF) ...  0.066725
 LDA part of GGA corr.  LDAOpt (SCF)    ... PW91-LDA
 LDA part of GGA corr.  LDAOpt (CP-SCF) ... PW91-LDA
Variables per vector in CP-SCF ... 12912
Number of vectors sought       ... 3
Recalculating density on grid  ... done
Calculating the xc-kernel      ... done
     CP-SCF ITERATION   0: 
     CP-SCF ITERATION   1:      2.991079334309
     CP-SCF ITERATION   2:      0.066144708656
     CP-SCF ITERATION   3:      0.004342061571
     CP-SCF ITERATION   4:      0.000152826329
     CP-SCF ITERATION   5:      0.000008324384
     CP-SCF ITERATION   6:      0.000000198699
done
Reading CP-SCF coefficients                    ... done
Doing the polarizability tensor   ... done
Cleaning up                                    ... done

-------------------------
THE POLARIZABILITY TENSOR
-------------------------

The raw cartesian tensor (atomic units):
   52.91453      0.00000     -3.02276  
    0.00000     34.45874     -0.00000  
   -3.02276     -0.00000     39.76197  
diagonalized tensor: 
   34.45874     39.10053     53.57597  

    0.00000     -0.21376      0.97689  
   -1.00000      0.00000      0.00000  
   -0.00000     -0.97689     -0.21376  

Isotropic polarizability :  42.37841


Timings for individual modules:

Sum of individual times         ...     6259.700 sec (= 104.328 min)
GTO integral calculation        ...        2.954 sec (=   0.049 min)   0.0 %
SCF iterations                  ...     3746.403 sec (=  62.440 min)  59.8 %
Solution of CP-SCF eqns.        ...     2510.344 sec (=  41.839 min)  40.1 %
                             ****ORCA TERMINATED NORMALLY****
TOTAL RUN TIME: 0 days 1 hours 44 minutes 20 seconds 828 msec
