
                                 *****************
                                 * O   R   C   A *
                                 *****************

           --- An Ab Initio, DFT and Semiempirical electronic structure package ---

                  #######################################################
                  #                        -***-                        #
                  #          Department of theory and spectroscopy      #
                  #               Directorship: Frank Neese             #
                  #        Max Planck Institute fuer Kohlenforschung    #
                  #                Kaiser Wilhelm Platz 1               #
                  #                 D-45470 Muelheim/Ruhr               #
                  #                      Germany                        #
                  #                                                     #
                  #                  All rights reserved                #
                  #                        -***-                        #
                  #######################################################


                         Program Version 4.1.2  - RELEASE  -


 With contributions from (in alphabetic order):
   Daniel Aravena         : Magnetic Properties
   Michael Atanasov       : Ab Initio Ligand Field Theory
   Alexander A. Auer      : GIAO ZORA
   Ute Becker             : Parallelization
   Giovanni Bistoni       : ED, Open-shell LED
   Martin Brehm           : Molecular dynamics
   Dmytro Bykov           : SCF Hessian
   Vijay G. Chilkuri      : MRCI spin determinant printing
   Dipayan Datta          : RHF DLPNO-CCSD density
   Achintya Kumar Dutta   : EOM-CC, STEOM-CC
   Dmitry Ganyushin       : Spin-Orbit,Spin-Spin,Magnetic field MRCI
   Miquel Garcia          : C-PCM Hessian
   Yang Guo               : DLPNO-NEVPT2, CIM, IAO-localization
   Andreas Hansen         : Spin unrestricted coupled pair/coupled cluster methods
   Benjamin Helmich-Paris : CASSCF linear response (MC-RPA)
   Lee Huntington         : MR-EOM, pCC
   Robert Izsak           : Overlap fitted RIJCOSX, COSX-SCS-MP3, EOM
   Christian Kollmar      : KDIIS, OOCD, Brueckner-CCSD(T), CCSD density
   Simone Kossmann        : Meta GGA functionals, TD-DFT gradient, OOMP2, MP2 Hessian
   Martin Krupicka        : AUTO-CI
   Lucas Lang             : DCDCAS
   Dagmar Lenk            : GEPOL surface, SMD
   Dimitrios Liakos       : Extrapolation schemes; parallel MDCI
   Dimitrios Manganas     : ROCIS; embedding schemes
   Dimitrios Pantazis     : SARC Basis sets
   Taras Petrenko         : DFT Hessian,TD-DFT gradient, ASA, ECA, R-Raman, ABS, FL, XAS/XES, NRVS
   Peter Pinski           : DLPNO-MP2, DLPNO-MP2 Gradient
   Christoph Reimann      : Effective Core Potentials
   Marius Retegan         : Local ZFS, SOC
   Christoph Riplinger    : Optimizer, TS searches, QM/MM, DLPNO-CCSD(T), (RO)-DLPNO pert. Triples
   Tobias Risthaus        : Range-separated hybrids, TD-DFT gradient, RPA, STAB
   Michael Roemelt        : Restricted open shell CIS
   Masaaki Saitow         : Open-shell DLPNO
   Barbara Sandhoefer     : DKH picture change effects
   Avijit Sen             : IP-ROCIS
   Kantharuban Sivalingam : CASSCF convergence, NEVPT2, FIC-MRCI
   Bernardo de Souza      : ESD, SOC TD-DFT
   Georgi Stoychev        : AutoAux, RI-MP2 NMR
   Willem Van den Heuvel  : Paramagnetic NMR
   Boris Wezisla          : Elementary symmetry handling
   Frank Wennmohs         : Technical directorship


 We gratefully acknowledge several colleagues who have allowed us to
 interface, adapt or use parts of their codes:
   Stefan Grimme, W. Hujo, H. Kruse,             : VdW corrections, initial TS optimization,
                  C. Bannwarth                     DFT functionals, gCP, sTDA/sTD-DF
   Ed Valeev                                     : LibInt (2-el integral package), F12 methods
   Garnet Chan, S. Sharma, J. Yang, R. Olivares  : DMRG
   Ulf Ekstrom                                   : XCFun DFT Library
   Mihaly Kallay                                 : mrcc  (arbitrary order and MRCC methods)
   Andreas Klamt, Michael Diedenhofen            : otool_cosmo (COSMO solvation model)
   Jiri Pittner, Ondrej Demel                    : Mk-CCSD
   Frank Weinhold                                : gennbo (NPA and NBO analysis)
   Christopher J. Cramer and Donald G. Truhlar   : smd solvation model
   Lars Goerigk                                  : TD-DFT with DH, B97 family of functionals
   V. Asgeirsson, H. Jonsson                     : NEB implementation
   FAccTs GmbH                                   : IRC, NEB, NEB-TS, Multilevel


 Your calculation uses the libint2 library for the computation of 2-el integrals
 For citations please refer to: http://libint.valeyev.net

 This ORCA versions uses:
   CBLAS   interface :  Fast vector & matrix operations
   LAPACKE interface :  Fast linear algebra routines
   SCALAPACK package :  Parallel linear algebra routines


----- Orbital basis set information -----
Your calculation utilizes the basis: aug-pc-4
   H, C-F              : F. Jensen, J. Chem. Phys. 115, 9113 (2001).
                         F. Jensen, J. Chem. Phys. 116, 7372 (2002).
                         F. Jensen, J. Chem. Phys. 117, 9234 (2002).
   Si-Cl               : F. Jensen, T. Helgaker, J. Chem. Phys. 121, 3463 (2004).
   He-B, Ne-Mg, Al, Ar : F. Jensen, J. Phys. Chem. A 111, 11198 (2007).
   K, Ca, Ga-Kr        : F. Jensen, J. Chem. Phys. 136, 094110 (2012).
   Sc-Zn               : F. Jensen, J. Chem. Phys. 138, 014107 (2013).

================================================================================
                                        WARNINGS
                       Please study these warnings very carefully!
================================================================================


INFO   : the flag for use of LIBINT has been found!

================================================================================
                                       INPUT FILE
================================================================================
NAME = ch3bh2_pbe.inp
|  1> !uks pbe nori aug-pc-4 grid5 nofinalgrid verytightscf
|  2> 
|  3> %maxcore 1500
|  4> 
|  5> %pal nprocs 4 end
|  6> 
|  7> %scf
|  8> 	maxiter 200
|  9> end
| 10> %elprop
| 11> 	dipole true
| 12> 	 polar 1
| 13> 	 maxiter 200
| 14> end
| 15> 
| 16> * xyz 0 1
| 17> C -0.0190572749 -0.6845195756 -0.0000000839
| 18> B -0.0207972952 0.8729523951 -0.0000000656
| 19> H 1.0512614815 -0.9395660726 0.0000010826
| 20> H -0.4362896177 -1.1431007759 0.8927422542
| 21> H -0.4362878975 -1.1431009662 -0.8927431359
| 22> H 0.0151838060 1.4835176231 -1.0228906497
| 23> H 0.0151867978 1.4835173722 1.0228905983
| 24> *
| 25> 
| 26>                          ****END OF INPUT****
================================================================================

                       ****************************
                       * Single Point Calculation *
                       ****************************

---------------------------------
CARTESIAN COORDINATES (ANGSTROEM)
---------------------------------
  C     -0.019057   -0.684520   -0.000000
  B     -0.020797    0.872952   -0.000000
  H      1.051261   -0.939566    0.000001
  H     -0.436290   -1.143101    0.892742
  H     -0.436288   -1.143101   -0.892743
  H      0.015184    1.483518   -1.022891
  H      0.015187    1.483517    1.022891

----------------------------
CARTESIAN COORDINATES (A.U.)
----------------------------
  NO LB      ZA    FRAG     MASS         X           Y           Z
   0 C     6.0000    0    12.011   -0.036013   -1.293555   -0.000000
   1 B     5.0000    0    10.810   -0.039301    1.649641   -0.000000
   2 H     1.0000    0     1.008    1.986596   -1.775523    0.000002
   3 H     1.0000    0     1.008   -0.824468   -2.160147    1.687038
   4 H     1.0000    0     1.008   -0.824465   -2.160148   -1.687040
   5 H     1.0000    0     1.008    0.028693    2.803442   -1.932983
   6 H     1.0000    0     1.008    0.028699    2.803442    1.932983

--------------------------------
INTERNAL COORDINATES (ANGSTROEM)
--------------------------------
 C      0   0   0     0.000000000000     0.00000000     0.00000000
 B      1   0   0     1.557472942682     0.00000000     0.00000000
 H      1   2   0     1.100286760774   103.46708113     0.00000000
 H      1   2   3     1.086907736371   114.92834598   115.07642486
 H      1   2   3     1.086907742697   114.92835822   244.92355778
 H      2   1   3     1.191801025476   120.81519254    87.94730336
 H      2   1   3     1.191801055757   120.81517879   272.05298910

---------------------------
INTERNAL COORDINATES (A.U.)
---------------------------
 C      0   0   0     0.000000000000     0.00000000     0.00000000
 B      1   0   0     2.943197322662     0.00000000     0.00000000
 H      1   2   0     2.079240646643   103.46708113     0.00000000
 H      1   2   3     2.053957954582   114.92834598   115.07642486
 H      1   2   3     2.053957966535   114.92835822   244.92355778
 H      2   1   3     2.252177544277   120.81519254    87.94730336
 H      2   1   3     2.252177601499   120.81517879   272.05298910

---------------------
BASIS SET INFORMATION
---------------------
There are 3 groups of distinct atoms

 Group   1 Type C   : 28s12p7d4f3g2h contracted to 9s8p7d4f3g2h pattern {11101111111/51111111/1111111/1111/111/11}
 Group   2 Type B   : 27s12p7d4f3g2h contracted to 9s8p7d4f3g2h pattern {1191111111/51111111/1111111/1111/111/11}
 Group   3 Type H   : 12s7p4d3f2g contracted to 8s7p4d3f2g pattern {51111111/1111111/1111/111/11}

Atom   0C    basis set group =>   1
Atom   1B    basis set group =>   2
Atom   2H    basis set group =>   3
Atom   3H    basis set group =>   3
Atom   4H    basis set group =>   3
Atom   5H    basis set group =>   3
Atom   6H    basis set group =>   3


           ************************************************************
           *        Program running with 4 parallel MPI-processes     *
           *              working on a common directory               *
           ************************************************************
------------------------------------------------------------------------------
                           ORCA GTO INTEGRAL CALCULATION
------------------------------------------------------------------------------

                         BASIS SET STATISTICS AND STARTUP INFO

 # of primitive gaussian shells          ...  251
 # of primitive gaussian functions       ...  811
 # of contracted shells                  ...  186
 # of contracted basis functions         ...  730
 Highest angular momentum                ...    5
 Maximum contraction depth               ...   11
 Integral package used                   ... LIBINT
 Integral threshhold            Thresh   ...  1.000e-12
 Primitive cut-off              TCut     ...  1.000e-14


------------------------------ INTEGRAL EVALUATION ----------------------------


 * One electron integrals 
 Pre-screening matrix                    ... done
 Shell pair data                         ... done (   0.005 sec)



           ************************************************************
           *        Program running with 4 parallel MPI-processes     *
           *              working on a common directory               *
           ************************************************************
-------------------------------------------------------------------------------
                                 ORCA SCF
-------------------------------------------------------------------------------

------------
SCF SETTINGS
------------
Hamiltonian:
 Density Functional     Method          .... DFT(GTOs)
 Exchange Functional    Exchange        .... PBE
   PBE kappa parameter   XKappa         ....  0.804000
   PBE mue parameter    XMuePBE         ....  0.219520
 Correlation Functional Correlation     .... PBE
   PBE beta parameter  CBetaPBE         ....  0.066725
 LDA part of GGA corr.  LDAOpt          .... PW91-LDA
 Gradients option       PostSCFGGA      .... off
   Density functional embedding theory  .... OFF
   NL short-range parameter             ....  6.400000


General Settings:
 Integral files         IntName         .... ch3bh2_pbe
 Hartree-Fock type      HFTyp           .... UHF
 Total Charge           Charge          ....    0
 Multiplicity           Mult            ....    1
 Number of Electrons    NEL             ....   16
 Basis Dimension        Dim             ....  730
 Nuclear Repulsion      ENuc            ....     31.8792731152 Eh

Convergence Acceleration:
 DIIS                   CNVDIIS         .... on
   Start iteration      DIISMaxIt       ....    12
   Startup error        DIISStart       ....  0.200000
   # of expansion vecs  DIISMaxEq       ....     5
   Bias factor          DIISBfac        ....   1.050
   Max. coefficient     DIISMaxC        ....  10.000
 Newton-Raphson         CNVNR           .... off
 SOSCF                  CNVSOSCF        .... off
 Level Shifting         CNVShift        .... on
   Level shift para.    LevelShift      ....    0.2500
   Turn off err/grad.   ShiftErr        ....    0.0010
 Zerner damping         CNVZerner       .... off
 Static damping         CNVDamp         .... on
   Fraction old density DampFac         ....    0.7000
   Max. Damping (<1)    DampMax         ....    0.9800
   Min. Damping (>=0)   DampMin         ....    0.0000
   Turn off err/grad.   DampErr         ....    0.1000
 Fernandez-Rico         CNVRico         .... off

SCF Procedure:
 Maximum # iterations   MaxIter         ....   200
 SCF integral mode      SCFMode         .... Direct
   Integral package                     .... LIBINT
 Reset frequency        DirectResetFreq ....    20
 Integral Threshold     Thresh          ....  1.000e-12 Eh
 Primitive CutOff       TCut            ....  1.000e-14 Eh

Convergence Tolerance:
 Convergence Check Mode ConvCheckMode   .... Total+1el-Energy
 Convergence forced     ConvForced      .... 0
 Energy Change          TolE            ....  1.000e-09 Eh
 1-El. energy change                    ....  1.000e-06 Eh
 DIIS Error             TolErr          ....  1.000e-08


Diagonalization of the overlap matrix:
Smallest eigenvalue                        ... 2.456e-08
Time for diagonalization                   ...    0.356 sec
Threshold for overlap eigenvalues          ... 1.000e-08
Number of eigenvalues below threshold      ... 0
Time for construction of square roots      ...    0.087 sec
Total time needed                          ...    0.444 sec

-------------------
DFT GRID GENERATION
-------------------

General Integration Accuracy     IntAcc      ...  5.010
Radial Grid Type                 RadialGrid  ... Gauss-Chebyshev
Angular Grid (max. acc.)         AngularGrid ... Lebedev-434
Angular grid pruning method      GridPruning ... 3 (G Style)
Weight generation scheme         WeightScheme... Becke
Basis function cutoff            BFCut       ...    1.0000e-12
Integration weight cutoff        WCut        ...    1.0000e-14
Grids for H and He will be reduced by one unit

# of grid points (after initial pruning)     ...  54748 (   0.0 sec)
# of grid points (after weights+screening)   ...  52459 (   0.0 sec)
nearest neighbour list constructed           ...    0.0 sec
Grid point re-assignment to atoms done       ...    0.0 sec
Grid point division into batches done        ...    0.5 sec
Reduced shell lists constructed in    0.8 sec

Total number of grid points                  ...    52459
Total number of batches                      ...      824
Average number of points per batch           ...       63
Average number of grid points per atom       ...     7494
Average number of shells per batch           ...   145.70 (78.33%)
Average number of basis functions per batch  ...   586.41 (80.33%)
Average number of large shells per batch     ...   131.70 (90.39%)
Average number of large basis fcns per batch ...   535.24 (91.27%)
Maximum spatial batch extension              ...  17.85, 17.10, 16.43 au
Average spatial batch extension              ...   0.53,  0.51,  0.51 au

Time for grid setup =    0.874 sec

------------------------------
INITIAL GUESS: MODEL POTENTIAL
------------------------------
Loading Hartree-Fock densities                     ... done
Calculating cut-offs                               ... done
Setting up the integral package                    ... done
Initializing the effective Hamiltonian             ... done
Starting the Coulomb interaction                   ... done (   0.1 sec)
Reading the grid                                   ... done
Mapping shells                                     ... done
Starting the XC term evaluation                    ... done (   3.1 sec)
  promolecular density results
     # of electrons  =     15.997558789
     EX              =    -10.327573824
     EC              =     -0.468780845
     EX+EC           =    -10.796354669
Transforming the Hamiltonian                       ... done (   0.1 sec)
Diagonalizing the Hamiltonian                      ... done (   0.2 sec)
Back transforming the eigenvectors                 ... done (   0.0 sec)
Now organizing SCF variables                       ... done
                      ------------------
                      INITIAL GUESS DONE (   4.6 sec)
                      ------------------
--------------
SCF ITERATIONS
--------------
ITER       Energy         Delta-E        Max-DP      RMS-DP      [F,P]     Damp
               ***  Starting incremental Fock matrix formation  ***
  0    -65.7568177201   0.000000000000 0.02919625  0.00016709  0.2341622 0.7000
  1    -65.8042118958  -0.047394175698 0.02005726  0.00011924  0.1046151 0.7000
                               ***Turning on DIIS***
  2    -65.8214622619  -0.017250366099 0.02324658  0.00023596  0.0298410 0.0000
  3    -65.8447326969  -0.023270435047 0.01836092  0.00007219  0.0662006 0.0000
  4    -65.8532830418  -0.008550344845 0.00442705  0.00003049  0.0111578 0.0000
  5    -65.8537916368  -0.000508594972 0.00168303  0.00001156  0.0040812 0.0000
  6    -65.8538363384  -0.000044701612 0.00171810  0.00001047  0.0009769 0.0000
  7    -65.8538414049  -0.000005066525 0.00019247  0.00000155  0.0002140 0.0000
  8    -65.8538415203  -0.000000115372 0.00002679  0.00000022  0.0000526 0.0000
  9    -65.8538415252  -0.000000004887 0.00010942  0.00000070  0.0000072 0.0000
 10    -65.8538415254  -0.000000000210 0.00014335  0.00000060  0.0000029 0.0000
 11    -65.8538415254  -0.000000000035 0.00016175  0.00000113  0.0000012 0.0000
 12    -65.8538415254   0.000000000002 0.00014394  0.00000102  0.0000004 0.0000
                 **** Energy Check signals convergence ****

               *****************************************************
               *                     SUCCESS                       *
               *           SCF CONVERGED AFTER  13 CYCLES          *
               *****************************************************


----------------
TOTAL SCF ENERGY
----------------

Total Energy       :          -65.85384153 Eh           -1791.97413 eV

Components:
Nuclear Repulsion  :           31.87927312 Eh             867.47912 eV
Electronic Energy  :          -97.73311464 Eh           -2659.45325 eV
One Electron Energy:         -149.92682457 Eh           -4079.71631 eV
Two Electron Energy:           52.19370993 Eh            1420.26305 eV

Virial components:
Potential Energy   :         -131.38839920 Eh           -3575.26010 eV
Kinetic Energy     :           65.53455768 Eh            1783.28597 eV
Virial Ratio       :            2.00487199


DFT components:
N(Alpha)           :        8.000001180318 electrons
N(Beta)            :        8.000001180318 electrons
N(Total)           :       16.000002360637 electrons
E(X)               :      -10.739398635279 Eh       
E(C)               :       -0.472773488873 Eh       
E(XC)              :      -11.212172124152 Eh       
DFET-embed. en.    :        0.000000000000 Eh       

---------------
SCF CONVERGENCE
---------------

  Last Energy change         ...   -2.8422e-14  Tolerance :   1.0000e-09
  Last MAX-Density change    ...    2.5687e-04  Tolerance :   1.0000e-08
  Last RMS-Density change    ...    1.3277e-06  Tolerance :   1.0000e-09
  Last DIIS Error            ...    6.1189e-08  Tolerance :   1.0000e-08

             **** THE GBW FILE WAS UPDATED (ch3bh2_pbe.gbw) ****
             **** DENSITY FILE WAS UPDATED (ch3bh2_pbe.scfp.tmp) ****
             **** ENERGY FILE WAS UPDATED (ch3bh2_pbe.en.tmp) ****
----------------------
UHF SPIN CONTAMINATION
----------------------

Warning: in a DFT calculation there is little theoretical justification to 
         calculate <S**2> as in Hartree-Fock theory. We will do it anyways
         but you should keep in mind that the values have only limited relevance

Expectation value of <S**2>     :    -0.000000
Ideal value S*(S+1) for S=0.0   :     0.000000
Deviation                       :    -0.000000

----------------
ORBITAL ENERGIES
----------------
                 SPIN UP ORBITALS
  NO   OCC          E(Eh)            E(eV) 
   0   1.0000      -9.864281      -268.4207 
   1   1.0000      -6.508249      -177.0984 
   2   1.0000      -0.639059       -17.3897 
   3   1.0000      -0.432209       -11.7610 
   4   1.0000      -0.373521       -10.1640 
   5   1.0000      -0.362930        -9.8758 
   6   1.0000      -0.294371        -8.0102 
   7   1.0000      -0.280147        -7.6232 
   8   0.0000      -0.084364        -2.2957 
   9   0.0000      -0.014083        -0.3832 
  10   0.0000       0.006289         0.1711 
  11   0.0000       0.007851         0.2136 
  12   0.0000       0.010921         0.2972 
  13   0.0000       0.026572         0.7231 
  14   0.0000       0.028835         0.7847 
  15   0.0000       0.029137         0.7929 
  16   0.0000       0.030902         0.8409 
  17   0.0000       0.033921         0.9230 
  18   0.0000       0.034053         0.9266 
  19   0.0000       0.035058         0.9540 
  20   0.0000       0.039321         1.0700 
  21   0.0000       0.049414         1.3446 
  22   0.0000       0.063336         1.7235 
  23   0.0000       0.063680         1.7328 
  24   0.0000       0.065234         1.7751 
  25   0.0000       0.069368         1.8876 
  26   0.0000       0.072725         1.9789 
  27   0.0000       0.077903         2.1198 
  28   0.0000       0.079399         2.1606 
  29   0.0000       0.079804         2.1716 
  30   0.0000       0.083674         2.2769 
  31   0.0000       0.089790         2.4433 
  32   0.0000       0.091420         2.4877 
  33   0.0000       0.092602         2.5198 
  34   0.0000       0.102240         2.7821 
  35   0.0000       0.103737         2.8228 
  36   0.0000       0.119833         3.2608 
  37   0.0000       0.127472         3.4687 
  38   0.0000       0.130151         3.5416 
  39   0.0000       0.130522         3.5517 
  40   0.0000       0.133239         3.6256 
  41   0.0000       0.136645         3.7183 
  42   0.0000       0.138832         3.7778 
  43   0.0000       0.139381         3.7928 
  44   0.0000       0.145314         3.9542 
  45   0.0000       0.145488         3.9589 
  46   0.0000       0.148220         4.0333 
  47   0.0000       0.149105         4.0573 
  48   0.0000       0.150829         4.1043 
  49   0.0000       0.157523         4.2864 
  50   0.0000       0.158204         4.3049 
  51   0.0000       0.163110         4.4384 
  52   0.0000       0.164141         4.4665 
  53   0.0000       0.164801         4.4845 
  54   0.0000       0.166739         4.5372 
  55   0.0000       0.177423         4.8279 
  56   0.0000       0.179346         4.8802 
  57   0.0000       0.190827         5.1927 
  58   0.0000       0.191988         5.2243 
  59   0.0000       0.194827         5.3015 
  60   0.0000       0.199045         5.4163 
  61   0.0000       0.204123         5.5545 
  62   0.0000       0.212326         5.7777 
  63   0.0000       0.214820         5.8455 
  64   0.0000       0.218192         5.9373 
  65   0.0000       0.220883         6.0105 
  66   0.0000       0.222062         6.0426 
  67   0.0000       0.225688         6.1413 
  68   0.0000       0.226390         6.1604 
  69   0.0000       0.231643         6.3033 
  70   0.0000       0.237200         6.4545 
  71   0.0000       0.239981         6.5302 
  72   0.0000       0.243463         6.6250 
  73   0.0000       0.255886         6.9630 
  74   0.0000       0.257197         6.9987 
  75   0.0000       0.260971         7.1014 
  76   0.0000       0.266526         7.2525 
  77   0.0000       0.266625         7.2552 
  78   0.0000       0.268815         7.3148 
  79   0.0000       0.274467         7.4686 
  80   0.0000       0.277647         7.5552 
  81   0.0000       0.279041         7.5931 
  82   0.0000       0.285377         7.7655 
  83   0.0000       0.286796         7.8041 
  84   0.0000       0.296893         8.0789 
  85   0.0000       0.298997         8.1361 
  86   0.0000       0.304078         8.2744 
  87   0.0000       0.308071         8.3831 
  88   0.0000       0.313583         8.5330 
  89   0.0000       0.313727         8.5370 
  90   0.0000       0.319768         8.7013 
  91   0.0000       0.320989         8.7346 
  92   0.0000       0.323327         8.7982 
  93   0.0000       0.327192         8.9033 
  94   0.0000       0.331367         9.0170 
  95   0.0000       0.333857         9.0847 
  96   0.0000       0.337281         9.1779 
  97   0.0000       0.340591         9.2679 
  98   0.0000       0.342039         9.3074 
  99   0.0000       0.344951         9.3866 
 100   0.0000       0.345074         9.3899 
 101   0.0000       0.352240         9.5849 
 102   0.0000       0.358155         9.7459 
 103   0.0000       0.369015        10.0414 
 104   0.0000       0.370492        10.0816 
 105   0.0000       0.372651        10.1403 
 106   0.0000       0.375680        10.2228 
 107   0.0000       0.381132        10.3711 
 108   0.0000       0.384310        10.4576 
 109   0.0000       0.385197        10.4817 
 110   0.0000       0.394495        10.7348 
 111   0.0000       0.395817        10.7707 
 112   0.0000       0.399050        10.8587 
 113   0.0000       0.399904        10.8819 
 114   0.0000       0.408353        11.1118 
 115   0.0000       0.411052        11.1853 
 116   0.0000       0.412163        11.2155 
 117   0.0000       0.419779        11.4228 
 118   0.0000       0.419880        11.4255 
 119   0.0000       0.424593        11.5538 
 120   0.0000       0.430239        11.7074 
 121   0.0000       0.434590        11.8258 
 122   0.0000       0.436259        11.8712 
 123   0.0000       0.443902        12.0792 
 124   0.0000       0.447426        12.1751 
 125   0.0000       0.450634        12.2624 
 126   0.0000       0.459552        12.5051 
 127   0.0000       0.460963        12.5434 
 128   0.0000       0.464454        12.6384 
 129   0.0000       0.468774        12.7560 
 130   0.0000       0.474108        12.9011 
 131   0.0000       0.478261        13.0141 
 132   0.0000       0.489980        13.3330 
 133   0.0000       0.490173        13.3383 
 134   0.0000       0.495369        13.4797 
 135   0.0000       0.500248        13.6124 
 136   0.0000       0.506393        13.7797 
 137   0.0000       0.507983        13.8229 
 138   0.0000       0.514438        13.9986 
 139   0.0000       0.519825        14.1452 
 140   0.0000       0.520474        14.1628 
 141   0.0000       0.523630        14.2487 
 142   0.0000       0.532152        14.4806 
 143   0.0000       0.533321        14.5124 
 144   0.0000       0.540210        14.6998 
 145   0.0000       0.547374        14.8948 
 146   0.0000       0.547876        14.9085 
 147   0.0000       0.551105        14.9963 
 148   0.0000       0.555812        15.1244 
 149   0.0000       0.561149        15.2696 
 150   0.0000       0.571743        15.5579 
 151   0.0000       0.573724        15.6118 
 152   0.0000       0.574692        15.6382 
 153   0.0000       0.581001        15.8098 
 154   0.0000       0.584554        15.9065 
 155   0.0000       0.586155        15.9501 
 156   0.0000       0.587184        15.9781 
 157   0.0000       0.594375        16.1738 
 158   0.0000       0.595928        16.2160 
 159   0.0000       0.597938        16.2707 
 160   0.0000       0.614326        16.7167 
 161   0.0000       0.614607        16.7243 
 162   0.0000       0.615103        16.7378 
 163   0.0000       0.620493        16.8845 
 164   0.0000       0.622494        16.9389 
 165   0.0000       0.626918        17.0593 
 166   0.0000       0.628985        17.1155 
 167   0.0000       0.635390        17.2899 
 168   0.0000       0.638923        17.3860 
 169   0.0000       0.641696        17.4614 
 170   0.0000       0.644108        17.5271 
 171   0.0000       0.651765        17.7354 
 172   0.0000       0.655107        17.8264 
 173   0.0000       0.657127        17.8813 
 174   0.0000       0.660842        17.9824 
 175   0.0000       0.670281        18.2393 
 176   0.0000       0.686782        18.6883 
 177   0.0000       0.693034        18.8584 
 178   0.0000       0.695028        18.9127 
 179   0.0000       0.695374        18.9221 
 180   0.0000       0.697268        18.9736 
 181   0.0000       0.702297        19.1105 
 182   0.0000       0.705491        19.1974 
 183   0.0000       0.719729        19.5848 
 184   0.0000       0.726121        19.7588 
 185   0.0000       0.732344        19.9281 
 186   0.0000       0.734986        20.0000 
 187   0.0000       0.743026        20.2188 
 188   0.0000       0.746634        20.3170 
 189   0.0000       0.754595        20.5336 
 190   0.0000       0.761992        20.7348 
 191   0.0000       0.768558        20.9135 
 192   0.0000       0.770327        20.9617 
 193   0.0000       0.770555        20.9679 
 194   0.0000       0.774869        21.0852 
 195   0.0000       0.786805        21.4101 
 196   0.0000       0.787698        21.4344 
 197   0.0000       0.793003        21.5787 
 198   0.0000       0.799695        21.7608 
 199   0.0000       0.802239        21.8300 
 200   0.0000       0.810795        22.0629 
 201   0.0000       0.815615        22.1940 
 202   0.0000       0.833703        22.6862 
 203   0.0000       0.840487        22.8708 
 204   0.0000       0.843648        22.9568 
 205   0.0000       0.848083        23.0775 
 206   0.0000       0.852668        23.2023 
 207   0.0000       0.857047        23.3214 
 208   0.0000       0.860000        23.4018 
 209   0.0000       0.864994        23.5377 
 210   0.0000       0.866491        23.5784 
 211   0.0000       0.872856        23.7516 
 212   0.0000       0.880565        23.9614 
 213   0.0000       0.888682        24.1823 
 214   0.0000       0.893357        24.3095 
 215   0.0000       0.897921        24.4337 
 216   0.0000       0.898312        24.4443 
 217   0.0000       0.899335        24.4721 
 218   0.0000       0.909503        24.7488 
 219   0.0000       0.910098        24.7650 
 220   0.0000       0.918931        25.0054 
 221   0.0000       0.920031        25.0353 
 222   0.0000       0.924729        25.1631 
 223   0.0000       0.930021        25.3072 
 224   0.0000       0.932116        25.3642 
 225   0.0000       0.937290        25.5050 
 226   0.0000       0.937666        25.5152 
 227   0.0000       0.942709        25.6524 
 228   0.0000       0.944386        25.6981 
 229   0.0000       0.948943        25.8221 
 230   0.0000       0.961309        26.1585 
 231   0.0000       0.963760        26.2252 
 232   0.0000       0.967027        26.3141 
 233   0.0000       0.969308        26.3762 
 234   0.0000       0.975205        26.5367 
 235   0.0000       0.982025        26.7223 
 236   0.0000       0.982816        26.7438 
 237   0.0000       0.986675        26.8488 
 238   0.0000       0.990058        26.9409 
 239   0.0000       0.997215        27.1356 
 240   0.0000       1.003928        27.3183 
 241   0.0000       1.005901        27.3720 
 242   0.0000       1.011130        27.5143 
 243   0.0000       1.015948        27.6454 
 244   0.0000       1.017489        27.6873 
 245   0.0000       1.022457        27.8225 
 246   0.0000       1.029091        28.0030 
 247   0.0000       1.031512        28.0689 
 248   0.0000       1.032973        28.1086 
 249   0.0000       1.038534        28.2600 
 250   0.0000       1.041815        28.3492 
 251   0.0000       1.050015        28.5724 
 252   0.0000       1.053132        28.6572 
 253   0.0000       1.053483        28.6667 
 254   0.0000       1.058145        28.7936 
 255   0.0000       1.066145        29.0113 
 256   0.0000       1.069250        29.0958 
 257   0.0000       1.083256        29.4769 
 258   0.0000       1.083599        29.4862 
 259   0.0000       1.091291        29.6955 
 260   0.0000       1.091674        29.7060 
 261   0.0000       1.100232        29.9388 
 262   0.0000       1.107374        30.1332 
 263   0.0000       1.115602        30.3571 
 264   0.0000       1.129977        30.7482 
 265   0.0000       1.160536        31.5798 
 266   0.0000       1.164563        31.6894 
 267   0.0000       1.175928        31.9986 
 268   0.0000       1.209188        32.9037 
 269   0.0000       1.228075        33.4176 
 270   0.0000       1.233776        33.5728 
 271   0.0000       1.289616        35.0922 
 272   0.0000       1.300323        35.3836 
 273   0.0000       1.300744        35.3950 
 274   0.0000       1.309933        35.6451 
 275   0.0000       1.360219        37.0134 
 276   0.0000       1.414154        38.4811 
 277   0.0000       1.419167        38.6175 
 278   0.0000       1.443097        39.2687 
 279   0.0000       1.456708        39.6390 
 280   0.0000       1.471087        40.0303 
 281   0.0000       1.474351        40.1191 
 282   0.0000       1.489973        40.5442 
 283   0.0000       1.503202        40.9042 
 284   0.0000       1.525112        41.5004 
 285   0.0000       1.544484        42.0275 
 286   0.0000       1.550574        42.1933 
 287   0.0000       1.570936        42.7473 
 288   0.0000       1.579266        42.9740 
 289   0.0000       1.607602        43.7451 
 290   0.0000       1.613575        43.9076 
 291   0.0000       1.618146        44.0320 
 292   0.0000       1.626140        44.2495 
 293   0.0000       1.635694        44.5095 
 294   0.0000       1.641716        44.6734 
 295   0.0000       1.654657        45.0255 
 296   0.0000       1.660027        45.1716 
 297   0.0000       1.668693        45.4074 
 298   0.0000       1.679784        45.7093 
 299   0.0000       1.699787        46.2535 
 300   0.0000       1.708441        46.4890 
 301   0.0000       1.721486        46.8440 
 302   0.0000       1.725120        46.9429 
 303   0.0000       1.755851        47.7791 
 304   0.0000       1.760372        47.9021 
 305   0.0000       1.779774        48.4301 
 306   0.0000       1.789307        48.6895 
 307   0.0000       1.792640        48.7802 
 308   0.0000       1.801145        49.0117 
 309   0.0000       1.807904        49.1956 
 310   0.0000       1.822662        49.5972 
 311   0.0000       1.840902        50.0935 
 312   0.0000       1.851909        50.3930 
 313   0.0000       1.871409        50.9236 
 314   0.0000       1.888188        51.3802 
 315   0.0000       1.924390        52.3653 
 316   0.0000       1.943341        52.8810 
 317   0.0000       1.975402        53.7534 
 318   0.0000       1.976894        53.7940 
 319   0.0000       2.014812        54.8258 
 320   0.0000       2.018705        54.9318 
 321   0.0000       2.027411        55.1687 
 322   0.0000       2.048970        55.7553 
 323   0.0000       2.099229        57.1229 
 324   0.0000       2.101842        57.1940 
 325   0.0000       2.160906        58.8012 
 326   0.0000       2.166181        58.9448 
 327   0.0000       2.229682        60.6727 
 328   0.0000       2.247474        61.1569 
 329   0.0000       2.265307        61.6421 
 330   0.0000       2.265911        61.6586 
 331   0.0000       2.324555        63.2544 
 332   0.0000       2.326357        63.3034 
 333   0.0000       2.332184        63.4620 
 334   0.0000       2.359247        64.1984 
 335   0.0000       2.388359        64.9906 
 336   0.0000       2.428612        66.0859 
 337   0.0000       2.450767        66.6888 
 338   0.0000       2.466013        67.1036 
 339   0.0000       2.541518        69.1582 
 340   0.0000       2.560801        69.6829 
 341   0.0000       2.572997        70.0148 
 342   0.0000       2.581637        70.2499 
 343   0.0000       2.616158        71.1893 
 344   0.0000       2.639139        71.8146 
 345   0.0000       2.670784        72.6757 
 346   0.0000       2.693927        73.3055 
 347   0.0000       2.728076        74.2347 
 348   0.0000       2.746629        74.7396 
 349   0.0000       2.790875        75.9436 
 350   0.0000       2.846931        77.4689 
 351   0.0000       2.916297        79.3565 
 352   0.0000       3.018114        82.1271 
 353   0.0000       3.137500        85.3757 
 354   0.0000       3.145816        85.6020 
 355   0.0000       3.165991        86.1510 
 356   0.0000       3.182774        86.6077 
 357   0.0000       3.186145        86.6994 
 358   0.0000       3.214050        87.4587 
 359   0.0000       3.214338        87.4666 
 360   0.0000       3.256899        88.6247 
 361   0.0000       3.266155        88.8766 
 362   0.0000       3.282354        89.3174 
 363   0.0000       3.314452        90.1908 
 364   0.0000       3.326624        90.5220 
 365   0.0000       3.346831        91.0719 
 366   0.0000       3.389535        92.2339 
 367   0.0000       3.417577        92.9970 
 368   0.0000       3.424232        93.1781 
 369   0.0000       3.444370        93.7261 
 370   0.0000       3.466361        94.3245 
 371   0.0000       3.494032        95.0774 
 372   0.0000       3.494576        95.0923 
 373   0.0000       3.518797        95.7513 
 374   0.0000       3.560222        96.8786 
 375   0.0000       3.598826        97.9290 
 376   0.0000       3.636234        98.9469 
 377   0.0000       3.656899        99.5093 
 378   0.0000       3.664990        99.7294 
 379   0.0000       3.691442       100.4493 
 380   0.0000       3.704237       100.7974 
 381   0.0000       3.745710       101.9259 
 382   0.0000       3.748588       102.0043 
 383   0.0000       3.751979       102.0965 
 384   0.0000       3.787916       103.0744 
 385   0.0000       3.794004       103.2401 
 386   0.0000       3.802372       103.4678 
 387   0.0000       3.827562       104.1532 
 388   0.0000       3.836613       104.3996 
 389   0.0000       3.855080       104.9021 
 390   0.0000       3.872772       105.3835 
 391   0.0000       3.880400       105.5911 
 392   0.0000       3.888387       105.8084 
 393   0.0000       3.907076       106.3169 
 394   0.0000       3.923179       106.7551 
 395   0.0000       3.959002       107.7299 
 396   0.0000       3.967872       107.9713 
 397   0.0000       4.007386       109.0465 
 398   0.0000       4.008709       109.0825 
 399   0.0000       4.051393       110.2440 
 400   0.0000       4.058196       110.4291 
 401   0.0000       4.100368       111.5767 
 402   0.0000       4.131732       112.4301 
 403   0.0000       4.138919       112.6257 
 404   0.0000       4.139666       112.6461 
 405   0.0000       4.159996       113.1992 
 406   0.0000       4.209101       114.5355 
 407   0.0000       4.211031       114.5880 
 408   0.0000       4.233978       115.2124 
 409   0.0000       4.262734       115.9949 
 410   0.0000       4.306697       117.1912 
 411   0.0000       4.315116       117.4203 
 412   0.0000       4.326719       117.7360 
 413   0.0000       4.332455       117.8921 
 414   0.0000       4.380055       119.1874 
 415   0.0000       4.408376       119.9580 
 416   0.0000       4.435248       120.6892 
 417   0.0000       4.459708       121.3548 
 418   0.0000       4.482887       121.9856 
 419   0.0000       4.492932       122.2589 
 420   0.0000       4.521902       123.0472 
 421   0.0000       4.563946       124.1913 
 422   0.0000       4.608787       125.4115 
 423   0.0000       4.633844       126.0933 
 424   0.0000       4.673116       127.1619 
 425   0.0000       4.684403       127.4691 
 426   0.0000       4.758168       129.4763 
 427   0.0000       4.760728       129.5460 
 428   0.0000       4.792046       130.3982 
 429   0.0000       4.794937       130.4769 
 430   0.0000       4.855618       132.1281 
 431   0.0000       4.904566       133.4600 
 432   0.0000       4.912478       133.6753 
 433   0.0000       4.945760       134.5810 
 434   0.0000       4.970060       135.2422 
 435   0.0000       4.983981       135.6210 
 436   0.0000       4.988368       135.7404 
 437   0.0000       5.048467       137.3758 
 438   0.0000       5.213343       141.8623 
 439   0.0000       5.230706       142.3347 
 440   0.0000       5.262120       143.1896 
 441   0.0000       5.287422       143.8781 
 442   0.0000       5.358043       145.7998 
 443   0.0000       5.408472       147.1720 
 444   0.0000       5.447549       148.2353 
 445   0.0000       5.457076       148.4946 
 446   0.0000       5.470246       148.8530 
 447   0.0000       5.493357       149.4818 
 448   0.0000       5.534858       150.6112 
 449   0.0000       5.581861       151.8902 
 450   0.0000       5.611261       152.6902 
 451   0.0000       5.613808       152.7595 
 452   0.0000       5.772333       157.0732 
 453   0.0000       5.773281       157.0990 
 454   0.0000       5.814717       158.2265 
 455   0.0000       5.882187       160.0625 
 456   0.0000       5.889185       160.2529 
 457   0.0000       5.941321       161.6716 
 458   0.0000       5.973496       162.5471 
 459   0.0000       6.004301       163.3853 
 460   0.0000       6.051260       164.6632 
 461   0.0000       6.103545       166.0859 
 462   0.0000       6.166901       167.8099 
 463   0.0000       6.237202       169.7229 
 464   0.0000       6.284416       171.0076 
 465   0.0000       6.328655       172.2115 
 466   0.0000       6.369415       173.3206 
 467   0.0000       6.427333       174.8966 
 468   0.0000       6.515860       177.3056 
 469   0.0000       6.549271       178.2147 
 470   0.0000       6.576357       178.9518 
 471   0.0000       6.681206       181.8049 
 472   0.0000       6.757876       183.8912 
 473   0.0000       6.804121       185.1495 
 474   0.0000       6.915111       188.1697 
 475   0.0000       6.928641       188.5379 
 476   0.0000       6.941224       188.8803 
 477   0.0000       6.966436       189.5664 
 478   0.0000       6.976858       189.8500 
 479   0.0000       7.037545       191.5013 
 480   0.0000       7.222597       196.5369 
 481   0.0000       7.512927       204.4371 
 482   0.0000       7.776365       211.6056 
 483   0.0000       7.888765       214.6642 
 484   0.0000       7.921286       215.5491 
 485   0.0000       7.966321       216.7746 
 486   0.0000       7.989490       217.4051 
 487   0.0000       8.006608       217.8709 
 488   0.0000       8.509658       231.5596 
 489   0.0000       8.562147       232.9879 
 490   0.0000       8.588101       233.6941 
 491   0.0000       8.629608       234.8236 
 492   0.0000       8.651641       235.4231 
 493   0.0000       8.714448       237.1322 
 494   0.0000       8.730842       237.5783 
 495   0.0000       8.753782       238.2025 
 496   0.0000       8.800154       239.4644 
 497   0.0000       8.844456       240.6699 
 498   0.0000       8.845954       240.7106 
 499   0.0000       8.901703       242.2276 
 500   0.0000       8.925061       242.8633 
 501   0.0000       8.944161       243.3830 
 502   0.0000       8.996881       244.8176 
 503   0.0000       9.014823       245.3058 
 504   0.0000       9.035230       245.8611 
 505   0.0000       9.078535       247.0395 
 506   0.0000       9.084432       247.2000 
 507   0.0000       9.096212       247.5205 
 508   0.0000       9.116201       248.0644 
 509   0.0000       9.137749       248.6508 
 510   0.0000       9.187607       250.0075 
 511   0.0000       9.192057       250.1286 
 512   0.0000       9.223282       250.9783 
 513   0.0000       9.273067       252.3330 
 514   0.0000       9.323677       253.7102 
 515   0.0000       9.326414       253.7846 
 516   0.0000       9.392434       255.5811 
 517   0.0000       9.428516       256.5630 
 518   0.0000       9.475832       257.8505 
 519   0.0000       9.505419       258.6556 
 520   0.0000       9.564546       260.2645 
 521   0.0000       9.570550       260.4279 
 522   0.0000       9.628197       261.9966 
 523   0.0000       9.699494       263.9367 
 524   0.0000       9.765599       265.7355 
 525   0.0000       9.838642       267.7231 
 526   0.0000       9.869262       268.5563 
 527   0.0000       9.889122       269.0967 
 528   0.0000       9.891502       269.1615 
 529   0.0000       9.947437       270.6835 
 530   0.0000       9.956672       270.9348 
 531   0.0000       9.958207       270.9766 
 532   0.0000      10.007024       272.3050 
 533   0.0000      10.042581       273.2725 
 534   0.0000      10.055851       273.6336 
 535   0.0000      10.152984       276.2767 
 536   0.0000      10.213320       277.9186 
 537   0.0000      10.266121       279.3554 
 538   0.0000      10.285475       279.8820 
 539   0.0000      10.349744       281.6309 
 540   0.0000      10.409274       283.2507 
 541   0.0000      10.535872       286.6956 
 542   0.0000      10.541282       286.8429 
 543   0.0000      10.730553       291.9932 
 544   0.0000      10.760165       292.7990 
 545   0.0000      10.781564       293.3813 
 546   0.0000      10.856044       295.4080 
 547   0.0000      10.916750       297.0599 
 548   0.0000      10.921048       297.1768 
 549   0.0000      11.041230       300.4471 
 550   0.0000      11.050330       300.6948 
 551   0.0000      11.111900       302.3702 
 552   0.0000      11.167909       303.8942 
 553   0.0000      11.173735       304.0528 
 554   0.0000      11.184022       304.3327 
 555   0.0000      11.237094       305.7769 
 556   0.0000      11.317437       307.9631 
 557   0.0000      11.417959       310.6985 
 558   0.0000      11.433384       311.1182 
 559   0.0000      11.530694       313.7661 
 560   0.0000      11.571267       314.8702 
 561   0.0000      11.578101       315.0561 
 562   0.0000      11.643097       316.8248 
 563   0.0000      11.681158       317.8605 
 564   0.0000      11.786411       320.7245 
 565   0.0000      11.795082       320.9605 
 566   0.0000      11.850129       322.4584 
 567   0.0000      11.882281       323.3333 
 568   0.0000      11.904711       323.9437 
 569   0.0000      11.969090       325.6955 
 570   0.0000      12.041633       327.6695 
 571   0.0000      12.100320       329.2664 
 572   0.0000      12.259981       333.6111 
 573   0.0000      12.275870       334.0434 
 574   0.0000      12.307740       334.9106 
 575   0.0000      12.326026       335.4082 
 576   0.0000      12.392524       337.2177 
 577   0.0000      12.448271       338.7347 
 578   0.0000      12.459150       339.0307 
 579   0.0000      12.480474       339.6110 
 580   0.0000      12.483740       339.6998 
 581   0.0000      12.503057       340.2255 
 582   0.0000      12.564434       341.8956 
 583   0.0000      12.585068       342.4571 
 584   0.0000      12.632271       343.7416 
 585   0.0000      12.664831       344.6276 
 586   0.0000      12.731004       346.4282 
 587   0.0000      12.737630       346.6085 
 588   0.0000      12.800681       348.3242 
 589   0.0000      12.811215       348.6109 
 590   0.0000      12.876022       350.3744 
 591   0.0000      12.884790       350.6130 
 592   0.0000      12.927032       351.7624 
 593   0.0000      12.934635       351.9693 
 594   0.0000      13.027070       354.4846 
 595   0.0000      13.028621       354.5268 
 596   0.0000      13.103560       356.5660 
 597   0.0000      13.117452       356.9440 
 598   0.0000      13.143183       357.6442 
 599   0.0000      13.213388       359.5546 
 600   0.0000      13.255469       360.6996 
 601   0.0000      13.349760       363.2654 
 602   0.0000      13.372235       363.8770 
 603   0.0000      13.418113       365.1254 
 604   0.0000      13.430646       365.4665 
 605   0.0000      13.509494       367.6120 
 606   0.0000      13.615001       370.4830 
 607   0.0000      13.673387       372.0718 
 608   0.0000      13.819619       376.0509 
 609   0.0000      13.881566       377.7366 
 610   0.0000      13.926275       378.9532 
 611   0.0000      13.998558       380.9201 
 612   0.0000      14.173132       385.6705 
 613   0.0000      14.184842       385.9892 
 614   0.0000      14.216835       386.8597 
 615   0.0000      14.289304       388.8317 
 616   0.0000      14.320107       389.6699 
 617   0.0000      14.438599       392.8943 
 618   0.0000      14.706977       400.1972 
 619   0.0000      14.717121       400.4732 
 620   0.0000      14.789782       402.4504 
 621   0.0000      14.842277       403.8789 
 622   0.0000      14.991932       407.9512 
 623   0.0000      15.164874       412.6572 
 624   0.0000      15.226225       414.3266 
 625   0.0000      15.505507       421.9263 
 626   0.0000      15.801785       429.9884 
 627   0.0000      15.801991       429.9940 
 628   0.0000      15.915893       433.0935 
 629   0.0000      16.090575       437.8468 
 630   0.0000      16.241885       441.9641 
 631   0.0000      16.266487       442.6336 
 632   0.0000      16.366262       445.3486 
 633   0.0000      16.744828       455.6499 
 634   0.0000      16.765794       456.2204 
 635   0.0000      16.768390       456.2911 
 636   0.0000      16.780820       456.6293 
 637   0.0000      16.785349       456.7526 
 638   0.0000      16.786218       456.7762 
 639   0.0000      16.791927       456.9316 
 640   0.0000      16.814143       457.5361 
 641   0.0000      16.830129       457.9711 
 642   0.0000      16.838589       458.2013 
 643   0.0000      16.877265       459.2537 
 644   0.0000      16.912980       460.2256 
 645   0.0000      16.993233       462.4094 
 646   0.0000      17.009765       462.8592 
 647   0.0000      17.022962       463.2184 
 648   0.0000      17.211973       468.3616 
 649   0.0000      17.238140       469.0736 
 650   0.0000      17.406057       473.6429 
 651   0.0000      17.423105       474.1068 
 652   0.0000      17.468778       475.3496 
 653   0.0000      17.736550       482.6361 
 654   0.0000      17.832264       485.2406 
 655   0.0000      17.913071       487.4395 
 656   0.0000      18.017414       490.2788 
 657   0.0000      18.101165       492.5578 
 658   0.0000      18.348770       499.2954 
 659   0.0000      18.608543       506.3642 
 660   0.0000      18.632074       507.0045 
 661   0.0000      18.806854       511.7605 
 662   0.0000      18.824103       512.2299 
 663   0.0000      19.074759       519.0506 
 664   0.0000      19.085970       519.3556 
 665   0.0000      19.169287       521.6228 
 666   0.0000      19.359112       526.7882 
 667   0.0000      19.415716       528.3285 
 668   0.0000      19.494054       530.4602 
 669   0.0000      19.587076       532.9914 
 670   0.0000      19.872390       540.7552 
 671   0.0000      19.913493       541.8737 
 672   0.0000      19.918079       541.9985 
 673   0.0000      19.976038       543.5756 
 674   0.0000      20.066619       546.0405 
 675   0.0000      20.214522       550.0651 
 676   0.0000      20.408758       555.3505 
 677   0.0000      20.625251       561.2416 
 678   0.0000      20.718735       563.7854 
 679   0.0000      20.859882       567.6263 
 680   0.0000      20.929581       569.5229 
 681   0.0000      20.991027       571.1949 
 682   0.0000      21.322242       580.2077 
 683   0.0000      21.751061       591.8765 
 684   0.0000      21.755011       591.9839 
 685   0.0000      22.166990       603.1945 
 686   0.0000      22.411641       609.8518 
 687   0.0000      22.422330       610.1426 
 688   0.0000      23.436923       637.7511 
 689   0.0000      23.541275       640.5907 
 690   0.0000      23.566970       641.2899 
 691   0.0000      23.652899       643.6281 
 692   0.0000      23.670598       644.1097 
 693   0.0000      23.771693       646.8607 
 694   0.0000      23.846259       648.8897 
 695   0.0000      23.960694       652.0036 
 696   0.0000      24.134061       656.7212 
 697   0.0000      24.167525       657.6318 
 698   0.0000      24.796220       674.7394 
 699   0.0000      25.177760       685.1217 
 700   0.0000      25.598263       696.5641 
 701   0.0000      25.670127       698.5197 
 702   0.0000      25.793024       701.8639 
 703   0.0000      32.642836       888.2567 
 704   0.0000      32.676274       889.1666 
 705   0.0000      33.295450       906.0152 
 706   0.0000      34.073996       927.2006 
 707   0.0000      34.077297       927.2904 
 708   0.0000      40.832492      1111.1086 
 709   0.0000      40.987146      1115.3170 
 710   0.0000      41.281844      1123.3361 
 711   0.0000      41.337905      1124.8616 
 712   0.0000      41.659527      1133.6133 
 713   0.0000      77.885546      2119.3735 
 714   0.0000      80.069680      2178.8068 
 715   0.0000      91.014103      2476.6196 
 716   0.0000      91.102129      2479.0150 
 717   0.0000      91.122383      2479.5661 
 718   0.0000      91.155527      2480.4680 
 719   0.0000      91.177766      2481.0731 
 720   0.0000      91.251415      2483.0772 
 721   0.0000      91.298691      2484.3637 
 722   0.0000      91.350688      2485.7786 
 723   0.0000      91.484359      2489.4160 
 724   0.0000      91.505843      2490.0006 
 725   0.0000      91.960994      2502.3859 
 726   0.0000      92.236692      2509.8880 
 727   0.0000      92.451827      2515.7421 
 728   0.0000      92.496074      2516.9461 
 729   0.0000      92.578484      2519.1886 

                 SPIN DOWN ORBITALS
  NO   OCC          E(Eh)            E(eV) 
   0   1.0000      -9.864281      -268.4207 
   1   1.0000      -6.508249      -177.0984 
   2   1.0000      -0.639059       -17.3897 
   3   1.0000      -0.432209       -11.7610 
   4   1.0000      -0.373521       -10.1640 
   5   1.0000      -0.362930        -9.8758 
   6   1.0000      -0.294371        -8.0102 
   7   1.0000      -0.280147        -7.6232 
   8   0.0000      -0.084364        -2.2957 
   9   0.0000      -0.014083        -0.3832 
  10   0.0000       0.006289         0.1711 
  11   0.0000       0.007851         0.2136 
  12   0.0000       0.010921         0.2972 
  13   0.0000       0.026572         0.7231 
  14   0.0000       0.028835         0.7847 
  15   0.0000       0.029137         0.7929 
  16   0.0000       0.030902         0.8409 
  17   0.0000       0.033921         0.9230 
  18   0.0000       0.034053         0.9266 
  19   0.0000       0.035058         0.9540 
  20   0.0000       0.039321         1.0700 
  21   0.0000       0.049414         1.3446 
  22   0.0000       0.063336         1.7235 
  23   0.0000       0.063680         1.7328 
  24   0.0000       0.065234         1.7751 
  25   0.0000       0.069368         1.8876 
  26   0.0000       0.072725         1.9789 
  27   0.0000       0.077903         2.1198 
  28   0.0000       0.079399         2.1606 
  29   0.0000       0.079804         2.1716 
  30   0.0000       0.083674         2.2769 
  31   0.0000       0.089790         2.4433 
  32   0.0000       0.091420         2.4877 
  33   0.0000       0.092602         2.5198 
  34   0.0000       0.102240         2.7821 
  35   0.0000       0.103737         2.8228 
  36   0.0000       0.119833         3.2608 
  37   0.0000       0.127472         3.4687 
  38   0.0000       0.130151         3.5416 
  39   0.0000       0.130522         3.5517 
  40   0.0000       0.133239         3.6256 
  41   0.0000       0.136645         3.7183 
  42   0.0000       0.138832         3.7778 
  43   0.0000       0.139381         3.7928 
  44   0.0000       0.145314         3.9542 
  45   0.0000       0.145488         3.9589 
  46   0.0000       0.148220         4.0333 
  47   0.0000       0.149105         4.0573 
  48   0.0000       0.150829         4.1043 
  49   0.0000       0.157523         4.2864 
  50   0.0000       0.158204         4.3049 
  51   0.0000       0.163110         4.4384 
  52   0.0000       0.164141         4.4665 
  53   0.0000       0.164801         4.4845 
  54   0.0000       0.166739         4.5372 
  55   0.0000       0.177423         4.8279 
  56   0.0000       0.179346         4.8802 
  57   0.0000       0.190827         5.1927 
  58   0.0000       0.191988         5.2243 
  59   0.0000       0.194827         5.3015 
  60   0.0000       0.199045         5.4163 
  61   0.0000       0.204123         5.5545 
  62   0.0000       0.212326         5.7777 
  63   0.0000       0.214820         5.8455 
  64   0.0000       0.218192         5.9373 
  65   0.0000       0.220883         6.0105 
  66   0.0000       0.222062         6.0426 
  67   0.0000       0.225688         6.1413 
  68   0.0000       0.226390         6.1604 
  69   0.0000       0.231643         6.3033 
  70   0.0000       0.237200         6.4545 
  71   0.0000       0.239981         6.5302 
  72   0.0000       0.243463         6.6250 
  73   0.0000       0.255886         6.9630 
  74   0.0000       0.257197         6.9987 
  75   0.0000       0.260971         7.1014 
  76   0.0000       0.266526         7.2525 
  77   0.0000       0.266625         7.2552 
  78   0.0000       0.268815         7.3148 
  79   0.0000       0.274467         7.4686 
  80   0.0000       0.277647         7.5552 
  81   0.0000       0.279041         7.5931 
  82   0.0000       0.285377         7.7655 
  83   0.0000       0.286796         7.8041 
  84   0.0000       0.296893         8.0789 
  85   0.0000       0.298997         8.1361 
  86   0.0000       0.304078         8.2744 
  87   0.0000       0.308071         8.3831 
  88   0.0000       0.313583         8.5330 
  89   0.0000       0.313727         8.5370 
  90   0.0000       0.319768         8.7013 
  91   0.0000       0.320989         8.7346 
  92   0.0000       0.323327         8.7982 
  93   0.0000       0.327192         8.9033 
  94   0.0000       0.331367         9.0170 
  95   0.0000       0.333857         9.0847 
  96   0.0000       0.337281         9.1779 
  97   0.0000       0.340591         9.2679 
  98   0.0000       0.342039         9.3074 
  99   0.0000       0.344951         9.3866 
 100   0.0000       0.345074         9.3899 
 101   0.0000       0.352240         9.5849 
 102   0.0000       0.358155         9.7459 
 103   0.0000       0.369015        10.0414 
 104   0.0000       0.370492        10.0816 
 105   0.0000       0.372651        10.1403 
 106   0.0000       0.375680        10.2228 
 107   0.0000       0.381132        10.3711 
 108   0.0000       0.384310        10.4576 
 109   0.0000       0.385197        10.4817 
 110   0.0000       0.394495        10.7348 
 111   0.0000       0.395817        10.7707 
 112   0.0000       0.399050        10.8587 
 113   0.0000       0.399904        10.8819 
 114   0.0000       0.408353        11.1118 
 115   0.0000       0.411052        11.1853 
 116   0.0000       0.412163        11.2155 
 117   0.0000       0.419779        11.4228 
 118   0.0000       0.419880        11.4255 
 119   0.0000       0.424593        11.5538 
 120   0.0000       0.430239        11.7074 
 121   0.0000       0.434590        11.8258 
 122   0.0000       0.436259        11.8712 
 123   0.0000       0.443902        12.0792 
 124   0.0000       0.447426        12.1751 
 125   0.0000       0.450634        12.2624 
 126   0.0000       0.459552        12.5051 
 127   0.0000       0.460963        12.5434 
 128   0.0000       0.464454        12.6384 
 129   0.0000       0.468774        12.7560 
 130   0.0000       0.474108        12.9011 
 131   0.0000       0.478261        13.0141 
 132   0.0000       0.489980        13.3330 
 133   0.0000       0.490173        13.3383 
 134   0.0000       0.495369        13.4797 
 135   0.0000       0.500248        13.6124 
 136   0.0000       0.506393        13.7797 
 137   0.0000       0.507983        13.8229 
 138   0.0000       0.514438        13.9986 
 139   0.0000       0.519825        14.1452 
 140   0.0000       0.520474        14.1628 
 141   0.0000       0.523630        14.2487 
 142   0.0000       0.532152        14.4806 
 143   0.0000       0.533321        14.5124 
 144   0.0000       0.540210        14.6998 
 145   0.0000       0.547374        14.8948 
 146   0.0000       0.547876        14.9085 
 147   0.0000       0.551105        14.9963 
 148   0.0000       0.555812        15.1244 
 149   0.0000       0.561149        15.2696 
 150   0.0000       0.571743        15.5579 
 151   0.0000       0.573724        15.6118 
 152   0.0000       0.574692        15.6382 
 153   0.0000       0.581001        15.8098 
 154   0.0000       0.584554        15.9065 
 155   0.0000       0.586155        15.9501 
 156   0.0000       0.587184        15.9781 
 157   0.0000       0.594375        16.1738 
 158   0.0000       0.595928        16.2160 
 159   0.0000       0.597938        16.2707 
 160   0.0000       0.614326        16.7167 
 161   0.0000       0.614607        16.7243 
 162   0.0000       0.615103        16.7378 
 163   0.0000       0.620493        16.8845 
 164   0.0000       0.622494        16.9389 
 165   0.0000       0.626918        17.0593 
 166   0.0000       0.628985        17.1155 
 167   0.0000       0.635390        17.2899 
 168   0.0000       0.638923        17.3860 
 169   0.0000       0.641696        17.4614 
 170   0.0000       0.644108        17.5271 
 171   0.0000       0.651765        17.7354 
 172   0.0000       0.655107        17.8264 
 173   0.0000       0.657127        17.8813 
 174   0.0000       0.660842        17.9824 
 175   0.0000       0.670281        18.2393 
 176   0.0000       0.686782        18.6883 
 177   0.0000       0.693034        18.8584 
 178   0.0000       0.695028        18.9127 
 179   0.0000       0.695374        18.9221 
 180   0.0000       0.697268        18.9736 
 181   0.0000       0.702297        19.1105 
 182   0.0000       0.705491        19.1974 
 183   0.0000       0.719729        19.5848 
 184   0.0000       0.726121        19.7588 
 185   0.0000       0.732344        19.9281 
 186   0.0000       0.734986        20.0000 
 187   0.0000       0.743026        20.2188 
 188   0.0000       0.746634        20.3170 
 189   0.0000       0.754595        20.5336 
 190   0.0000       0.761992        20.7348 
 191   0.0000       0.768558        20.9135 
 192   0.0000       0.770327        20.9617 
 193   0.0000       0.770555        20.9679 
 194   0.0000       0.774869        21.0852 
 195   0.0000       0.786805        21.4101 
 196   0.0000       0.787698        21.4344 
 197   0.0000       0.793003        21.5787 
 198   0.0000       0.799695        21.7608 
 199   0.0000       0.802239        21.8300 
 200   0.0000       0.810795        22.0629 
 201   0.0000       0.815615        22.1940 
 202   0.0000       0.833703        22.6862 
 203   0.0000       0.840487        22.8708 
 204   0.0000       0.843648        22.9568 
 205   0.0000       0.848083        23.0775 
 206   0.0000       0.852668        23.2023 
 207   0.0000       0.857047        23.3214 
 208   0.0000       0.860000        23.4018 
 209   0.0000       0.864994        23.5377 
 210   0.0000       0.866491        23.5784 
 211   0.0000       0.872856        23.7516 
 212   0.0000       0.880565        23.9614 
 213   0.0000       0.888682        24.1823 
 214   0.0000       0.893357        24.3095 
 215   0.0000       0.897921        24.4337 
 216   0.0000       0.898312        24.4443 
 217   0.0000       0.899335        24.4721 
 218   0.0000       0.909503        24.7488 
 219   0.0000       0.910098        24.7650 
 220   0.0000       0.918931        25.0054 
 221   0.0000       0.920031        25.0353 
 222   0.0000       0.924729        25.1631 
 223   0.0000       0.930021        25.3072 
 224   0.0000       0.932116        25.3642 
 225   0.0000       0.937290        25.5050 
 226   0.0000       0.937666        25.5152 
 227   0.0000       0.942709        25.6524 
 228   0.0000       0.944386        25.6981 
 229   0.0000       0.948943        25.8221 
 230   0.0000       0.961309        26.1585 
 231   0.0000       0.963760        26.2252 
 232   0.0000       0.967027        26.3141 
 233   0.0000       0.969308        26.3762 
 234   0.0000       0.975205        26.5367 
 235   0.0000       0.982025        26.7223 
 236   0.0000       0.982816        26.7438 
 237   0.0000       0.986675        26.8488 
 238   0.0000       0.990058        26.9409 
 239   0.0000       0.997215        27.1356 
 240   0.0000       1.003928        27.3183 
 241   0.0000       1.005901        27.3720 
 242   0.0000       1.011130        27.5143 
 243   0.0000       1.015948        27.6454 
 244   0.0000       1.017489        27.6873 
 245   0.0000       1.022457        27.8225 
 246   0.0000       1.029091        28.0030 
 247   0.0000       1.031512        28.0689 
 248   0.0000       1.032973        28.1086 
 249   0.0000       1.038534        28.2600 
 250   0.0000       1.041815        28.3492 
 251   0.0000       1.050015        28.5724 
 252   0.0000       1.053132        28.6572 
 253   0.0000       1.053483        28.6667 
 254   0.0000       1.058145        28.7936 
 255   0.0000       1.066145        29.0113 
 256   0.0000       1.069250        29.0958 
 257   0.0000       1.083256        29.4769 
 258   0.0000       1.083599        29.4862 
 259   0.0000       1.091291        29.6955 
 260   0.0000       1.091674        29.7060 
 261   0.0000       1.100232        29.9388 
 262   0.0000       1.107374        30.1332 
 263   0.0000       1.115602        30.3571 
 264   0.0000       1.129977        30.7482 
 265   0.0000       1.160536        31.5798 
 266   0.0000       1.164563        31.6894 
 267   0.0000       1.175928        31.9986 
 268   0.0000       1.209188        32.9037 
 269   0.0000       1.228075        33.4176 
 270   0.0000       1.233776        33.5728 
 271   0.0000       1.289616        35.0922 
 272   0.0000       1.300323        35.3836 
 273   0.0000       1.300744        35.3950 
 274   0.0000       1.309933        35.6451 
 275   0.0000       1.360219        37.0134 
 276   0.0000       1.414154        38.4811 
 277   0.0000       1.419167        38.6175 
 278   0.0000       1.443097        39.2687 
 279   0.0000       1.456708        39.6390 
 280   0.0000       1.471087        40.0303 
 281   0.0000       1.474351        40.1191 
 282   0.0000       1.489973        40.5442 
 283   0.0000       1.503202        40.9042 
 284   0.0000       1.525112        41.5004 
 285   0.0000       1.544484        42.0275 
 286   0.0000       1.550574        42.1933 
 287   0.0000       1.570936        42.7473 
 288   0.0000       1.579266        42.9740 
 289   0.0000       1.607602        43.7451 
 290   0.0000       1.613575        43.9076 
 291   0.0000       1.618146        44.0320 
 292   0.0000       1.626140        44.2495 
 293   0.0000       1.635694        44.5095 
 294   0.0000       1.641716        44.6734 
 295   0.0000       1.654657        45.0255 
 296   0.0000       1.660027        45.1716 
 297   0.0000       1.668693        45.4074 
 298   0.0000       1.679784        45.7093 
 299   0.0000       1.699787        46.2535 
 300   0.0000       1.708441        46.4890 
 301   0.0000       1.721486        46.8440 
 302   0.0000       1.725120        46.9429 
 303   0.0000       1.755851        47.7791 
 304   0.0000       1.760372        47.9021 
 305   0.0000       1.779774        48.4301 
 306   0.0000       1.789307        48.6895 
 307   0.0000       1.792640        48.7802 
 308   0.0000       1.801145        49.0117 
 309   0.0000       1.807904        49.1956 
 310   0.0000       1.822662        49.5972 
 311   0.0000       1.840902        50.0935 
 312   0.0000       1.851909        50.3930 
 313   0.0000       1.871409        50.9236 
 314   0.0000       1.888188        51.3802 
 315   0.0000       1.924390        52.3653 
 316   0.0000       1.943341        52.8810 
 317   0.0000       1.975402        53.7534 
 318   0.0000       1.976894        53.7940 
 319   0.0000       2.014812        54.8258 
 320   0.0000       2.018705        54.9318 
 321   0.0000       2.027411        55.1687 
 322   0.0000       2.048970        55.7553 
 323   0.0000       2.099229        57.1229 
 324   0.0000       2.101842        57.1940 
 325   0.0000       2.160906        58.8012 
 326   0.0000       2.166181        58.9448 
 327   0.0000       2.229682        60.6727 
 328   0.0000       2.247474        61.1569 
 329   0.0000       2.265307        61.6421 
 330   0.0000       2.265911        61.6586 
 331   0.0000       2.324555        63.2544 
 332   0.0000       2.326357        63.3034 
 333   0.0000       2.332184        63.4620 
 334   0.0000       2.359247        64.1984 
 335   0.0000       2.388359        64.9906 
 336   0.0000       2.428612        66.0859 
 337   0.0000       2.450767        66.6888 
 338   0.0000       2.466013        67.1036 
 339   0.0000       2.541518        69.1582 
 340   0.0000       2.560801        69.6829 
 341   0.0000       2.572997        70.0148 
 342   0.0000       2.581637        70.2499 
 343   0.0000       2.616158        71.1893 
 344   0.0000       2.639139        71.8146 
 345   0.0000       2.670784        72.6757 
 346   0.0000       2.693927        73.3055 
 347   0.0000       2.728076        74.2347 
 348   0.0000       2.746629        74.7396 
 349   0.0000       2.790875        75.9436 
 350   0.0000       2.846931        77.4689 
 351   0.0000       2.916297        79.3565 
 352   0.0000       3.018114        82.1271 
 353   0.0000       3.137500        85.3757 
 354   0.0000       3.145816        85.6020 
 355   0.0000       3.165991        86.1510 
 356   0.0000       3.182774        86.6077 
 357   0.0000       3.186145        86.6994 
 358   0.0000       3.214050        87.4587 
 359   0.0000       3.214338        87.4666 
 360   0.0000       3.256899        88.6247 
 361   0.0000       3.266155        88.8766 
 362   0.0000       3.282354        89.3174 
 363   0.0000       3.314452        90.1908 
 364   0.0000       3.326624        90.5220 
 365   0.0000       3.346831        91.0719 
 366   0.0000       3.389535        92.2339 
 367   0.0000       3.417577        92.9970 
 368   0.0000       3.424232        93.1781 
 369   0.0000       3.444370        93.7261 
 370   0.0000       3.466361        94.3245 
 371   0.0000       3.494032        95.0774 
 372   0.0000       3.494576        95.0923 
 373   0.0000       3.518797        95.7513 
 374   0.0000       3.560222        96.8786 
 375   0.0000       3.598826        97.9290 
 376   0.0000       3.636234        98.9469 
 377   0.0000       3.656899        99.5093 
 378   0.0000       3.664990        99.7294 
 379   0.0000       3.691442       100.4493 
 380   0.0000       3.704237       100.7974 
 381   0.0000       3.745710       101.9259 
 382   0.0000       3.748588       102.0043 
 383   0.0000       3.751979       102.0965 
 384   0.0000       3.787916       103.0744 
 385   0.0000       3.794004       103.2401 
 386   0.0000       3.802372       103.4678 
 387   0.0000       3.827562       104.1532 
 388   0.0000       3.836613       104.3996 
 389   0.0000       3.855080       104.9021 
 390   0.0000       3.872772       105.3835 
 391   0.0000       3.880400       105.5911 
 392   0.0000       3.888387       105.8084 
 393   0.0000       3.907076       106.3169 
 394   0.0000       3.923179       106.7551 
 395   0.0000       3.959002       107.7299 
 396   0.0000       3.967872       107.9713 
 397   0.0000       4.007386       109.0465 
 398   0.0000       4.008709       109.0825 
 399   0.0000       4.051393       110.2440 
 400   0.0000       4.058196       110.4291 
 401   0.0000       4.100368       111.5767 
 402   0.0000       4.131732       112.4301 
 403   0.0000       4.138919       112.6257 
 404   0.0000       4.139666       112.6461 
 405   0.0000       4.159996       113.1992 
 406   0.0000       4.209101       114.5355 
 407   0.0000       4.211031       114.5880 
 408   0.0000       4.233978       115.2124 
 409   0.0000       4.262734       115.9949 
 410   0.0000       4.306697       117.1912 
 411   0.0000       4.315116       117.4203 
 412   0.0000       4.326719       117.7360 
 413   0.0000       4.332455       117.8921 
 414   0.0000       4.380055       119.1874 
 415   0.0000       4.408376       119.9580 
 416   0.0000       4.435248       120.6892 
 417   0.0000       4.459708       121.3548 
 418   0.0000       4.482887       121.9856 
 419   0.0000       4.492932       122.2589 
 420   0.0000       4.521902       123.0472 
 421   0.0000       4.563946       124.1913 
 422   0.0000       4.608787       125.4115 
 423   0.0000       4.633844       126.0933 
 424   0.0000       4.673116       127.1619 
 425   0.0000       4.684403       127.4691 
 426   0.0000       4.758168       129.4763 
 427   0.0000       4.760728       129.5460 
 428   0.0000       4.792046       130.3982 
 429   0.0000       4.794937       130.4769 
 430   0.0000       4.855618       132.1281 
 431   0.0000       4.904566       133.4600 
 432   0.0000       4.912478       133.6753 
 433   0.0000       4.945760       134.5810 
 434   0.0000       4.970060       135.2422 
 435   0.0000       4.983981       135.6210 
 436   0.0000       4.988368       135.7404 
 437   0.0000       5.048467       137.3758 
 438   0.0000       5.213343       141.8623 
 439   0.0000       5.230706       142.3347 
 440   0.0000       5.262120       143.1896 
 441   0.0000       5.287422       143.8781 
 442   0.0000       5.358043       145.7998 
 443   0.0000       5.408472       147.1720 
 444   0.0000       5.447549       148.2353 
 445   0.0000       5.457076       148.4946 
 446   0.0000       5.470246       148.8530 
 447   0.0000       5.493357       149.4818 
 448   0.0000       5.534858       150.6112 
 449   0.0000       5.581861       151.8902 
 450   0.0000       5.611261       152.6902 
 451   0.0000       5.613808       152.7595 
 452   0.0000       5.772333       157.0732 
 453   0.0000       5.773281       157.0990 
 454   0.0000       5.814717       158.2265 
 455   0.0000       5.882187       160.0625 
 456   0.0000       5.889185       160.2529 
 457   0.0000       5.941321       161.6716 
 458   0.0000       5.973496       162.5471 
 459   0.0000       6.004301       163.3853 
 460   0.0000       6.051260       164.6632 
 461   0.0000       6.103545       166.0859 
 462   0.0000       6.166901       167.8099 
 463   0.0000       6.237202       169.7229 
 464   0.0000       6.284416       171.0076 
 465   0.0000       6.328655       172.2115 
 466   0.0000       6.369415       173.3206 
 467   0.0000       6.427333       174.8966 
 468   0.0000       6.515860       177.3056 
 469   0.0000       6.549271       178.2147 
 470   0.0000       6.576357       178.9518 
 471   0.0000       6.681206       181.8049 
 472   0.0000       6.757876       183.8912 
 473   0.0000       6.804121       185.1495 
 474   0.0000       6.915111       188.1697 
 475   0.0000       6.928641       188.5379 
 476   0.0000       6.941224       188.8803 
 477   0.0000       6.966436       189.5664 
 478   0.0000       6.976858       189.8500 
 479   0.0000       7.037545       191.5013 
 480   0.0000       7.222597       196.5369 
 481   0.0000       7.512927       204.4371 
 482   0.0000       7.776365       211.6056 
 483   0.0000       7.888765       214.6642 
 484   0.0000       7.921286       215.5491 
 485   0.0000       7.966321       216.7746 
 486   0.0000       7.989490       217.4051 
 487   0.0000       8.006608       217.8709 
 488   0.0000       8.509658       231.5596 
 489   0.0000       8.562147       232.9879 
 490   0.0000       8.588101       233.6941 
 491   0.0000       8.629608       234.8236 
 492   0.0000       8.651641       235.4231 
 493   0.0000       8.714448       237.1322 
 494   0.0000       8.730842       237.5783 
 495   0.0000       8.753782       238.2025 
 496   0.0000       8.800154       239.4644 
 497   0.0000       8.844456       240.6699 
 498   0.0000       8.845954       240.7106 
 499   0.0000       8.901703       242.2276 
 500   0.0000       8.925061       242.8633 
 501   0.0000       8.944161       243.3830 
 502   0.0000       8.996881       244.8176 
 503   0.0000       9.014823       245.3058 
 504   0.0000       9.035230       245.8611 
 505   0.0000       9.078535       247.0395 
 506   0.0000       9.084432       247.2000 
 507   0.0000       9.096212       247.5205 
 508   0.0000       9.116201       248.0644 
 509   0.0000       9.137749       248.6508 
 510   0.0000       9.187607       250.0075 
 511   0.0000       9.192057       250.1286 
 512   0.0000       9.223282       250.9783 
 513   0.0000       9.273067       252.3330 
 514   0.0000       9.323677       253.7102 
 515   0.0000       9.326414       253.7846 
 516   0.0000       9.392434       255.5811 
 517   0.0000       9.428516       256.5630 
 518   0.0000       9.475832       257.8505 
 519   0.0000       9.505419       258.6556 
 520   0.0000       9.564546       260.2645 
 521   0.0000       9.570550       260.4279 
 522   0.0000       9.628197       261.9966 
 523   0.0000       9.699494       263.9367 
 524   0.0000       9.765599       265.7355 
 525   0.0000       9.838642       267.7231 
 526   0.0000       9.869262       268.5563 
 527   0.0000       9.889122       269.0967 
 528   0.0000       9.891502       269.1615 
 529   0.0000       9.947437       270.6835 
 530   0.0000       9.956672       270.9348 
 531   0.0000       9.958207       270.9766 
 532   0.0000      10.007024       272.3050 
 533   0.0000      10.042581       273.2725 
 534   0.0000      10.055851       273.6336 
 535   0.0000      10.152984       276.2767 
 536   0.0000      10.213320       277.9186 
 537   0.0000      10.266121       279.3554 
 538   0.0000      10.285475       279.8820 
 539   0.0000      10.349744       281.6309 
 540   0.0000      10.409274       283.2507 
 541   0.0000      10.535872       286.6956 
 542   0.0000      10.541282       286.8429 
 543   0.0000      10.730553       291.9932 
 544   0.0000      10.760165       292.7990 
 545   0.0000      10.781564       293.3813 
 546   0.0000      10.856044       295.4080 
 547   0.0000      10.916750       297.0599 
 548   0.0000      10.921048       297.1768 
 549   0.0000      11.041230       300.4471 
 550   0.0000      11.050330       300.6948 
 551   0.0000      11.111900       302.3702 
 552   0.0000      11.167909       303.8942 
 553   0.0000      11.173735       304.0528 
 554   0.0000      11.184022       304.3327 
 555   0.0000      11.237094       305.7769 
 556   0.0000      11.317437       307.9631 
 557   0.0000      11.417959       310.6985 
 558   0.0000      11.433384       311.1182 
 559   0.0000      11.530694       313.7661 
 560   0.0000      11.571267       314.8702 
 561   0.0000      11.578101       315.0561 
 562   0.0000      11.643097       316.8248 
 563   0.0000      11.681158       317.8605 
 564   0.0000      11.786411       320.7245 
 565   0.0000      11.795082       320.9605 
 566   0.0000      11.850129       322.4584 
 567   0.0000      11.882281       323.3333 
 568   0.0000      11.904711       323.9437 
 569   0.0000      11.969090       325.6955 
 570   0.0000      12.041633       327.6695 
 571   0.0000      12.100320       329.2664 
 572   0.0000      12.259981       333.6111 
 573   0.0000      12.275870       334.0434 
 574   0.0000      12.307740       334.9106 
[...]
      g-1     :     0.013164
      g+2     :     0.000716
      g-2     :     0.000761
      g+3     :     0.000178
      g-3     :     0.015223
      g+4     :     0.008348
      g-4     :     0.000903
      h0      :     0.002281  h :     0.021396
      h+1     :     0.000051
      h-1     :     0.000379
      h+2     :     0.005190
      h-2     :     0.000174
      h+3     :     0.000217
      h-3     :     0.000555
      h+4     :     0.008407
      h-4     :     0.000013
      h+5     :     0.000257
      h-5     :     0.003872
  1 B s       :     2.327934  s :     2.327934
      pz      :     0.659649  p :     1.409401
      px      :     0.079305
      py      :     0.670446
      dz2     :     0.060810  d :     0.365456
      dxz     :     0.000735
      dyz     :     0.168541
      dx2y2   :     0.068741
      dxy     :     0.066629
      f0      :     0.013854  f :     0.089696
      f+1     :     0.002397
      f-1     :     0.017832
      f+2     :     0.019599
      f-2     :     0.000438
      f+3     :     0.023678
      f-3     :     0.011898
      g0      :     0.000637  g :     0.024349
      g+1     :     0.000057
      g-1     :     0.005963
      g+2     :     0.002393
      g-2     :     0.001039
      g+3     :     0.000328
      g-3     :     0.004585
      g+4     :     0.003122
      g-4     :     0.006224
      h0      :     0.000454  h :     0.006937
      h+1     :     0.000037
      h-1     :     0.000340
      h+2     :     0.000878
      h-2     :     0.000045
      h+3     :     0.000301
      h-3     :     0.000253
      h+4     :     0.000956
      h-4     :     0.000331
      h+5     :     0.002215
      h-5     :     0.001126
  2 H s       :     0.585197  s :     0.585197
      pz      :     0.080303  p :     0.324275
      px      :     0.134670
      py      :     0.109301
      dz2     :     0.019901  d :     0.286199
      dxz     :     0.087344
      dyz     :     0.020716
      dx2y2   :     0.073252
      dxy     :     0.084987
      f0      :     0.020958  f :     0.139799
      f+1     :     0.005452
      f-1     :     0.006797
      f+2     :     0.033741
      f-2     :     0.015428
      f+3     :     0.034491
      f-3     :     0.022932
      g0      :     0.001096  g :     0.070993
      g+1     :     0.006433
      g-1     :     0.015245
      g+2     :     0.001604
      g-2     :     0.002085
      g+3     :     0.023372
      g-3     :     0.000594
      g+4     :     0.004554
      g-4     :     0.016010
  3 H s       :     0.612280  s :     0.612280
      pz      :     0.118149  p :     0.313798
      px      :     0.085941
      py      :     0.109708
      dz2     :     0.081842  d :     0.269214
      dxz     :     0.050813
      dyz     :     0.061599
      dx2y2   :     0.056157
      dxy     :     0.018804
      f0      :     0.031923  f :     0.127949
      f+1     :     0.007362
      f-1     :     0.027470
      f+2     :     0.028105
      f-2     :     0.009789
      f+3     :     0.006607
      f-3     :     0.016693
      g0      :     0.016613  g :     0.063060
      g+1     :     0.001120
      g-1     :     0.003718
      g+2     :     0.015371
      g-2     :     0.003173
      g+3     :     0.003774
      g-3     :     0.007728
      g+4     :     0.006863
      g-4     :     0.004702
  4 H s       :     0.612280  s :     0.612280
      pz      :     0.118149  p :     0.313798
      px      :     0.085941
      py      :     0.109708
      dz2     :     0.081842  d :     0.269214
      dxz     :     0.050813
      dyz     :     0.061599
      dx2y2   :     0.056157
      dxy     :     0.018804
      f0      :     0.031923  f :     0.127949
      f+1     :     0.007362
      f-1     :     0.027470
      f+2     :     0.028105
      f-2     :     0.009789
      f+3     :     0.006607
      f-3     :     0.016693
      g0      :     0.016613  g :     0.063060
      g+1     :     0.001120
      g-1     :     0.003718
      g+2     :     0.015371
      g-2     :     0.003173
      g+3     :     0.003774
      g-3     :     0.007728
      g+4     :     0.006863
      g-4     :     0.004702
  5 H s       :     0.685332  s :     0.685332
      pz      :     0.103173  p :     0.183229
      px      :     0.009341
      py      :     0.070714
      dz2     :     0.067300  d :     0.161059
      dxz     :     0.005319
      dyz     :     0.048223
      dx2y2   :     0.027519
      dxy     :     0.012697
      f0      :     0.034888  f :     0.120670
      f+1     :     0.000198
      f-1     :     0.027369
      f+2     :     0.019001
      f-2     :     0.009909
      f+3     :     0.014868
      f-3     :     0.014437
      g0      :     0.022043  g :     0.088725
      g+1     :     0.000738
      g-1     :     0.008001
      g+2     :     0.015871
      g-2     :     0.000547
      g+3     :     0.011182
      g-3     :     0.007904
      g+4     :     0.008414
      g-4     :     0.014025
  6 H s       :     0.685332  s :     0.685332
      pz      :     0.103173  p :     0.183229
      px      :     0.009341
      py      :     0.070714
      dz2     :     0.067300  d :     0.161059
      dxz     :     0.005319
      dyz     :     0.048223
      dx2y2   :     0.027519
      dxy     :     0.012697
      f0      :     0.034888  f :     0.120670
      f+1     :     0.000198
      f-1     :     0.027369
      f+2     :     0.019001
      f-2     :     0.009909
      f+3     :     0.014868
      f-3     :     0.014437
      g0      :     0.022043  g :     0.088725
      g+1     :     0.000738
      g-1     :     0.008002
      g+2     :     0.015871
      g-2     :     0.000547
      g+3     :     0.011182
      g-3     :     0.007904
      g+4     :     0.008414
      g-4     :     0.014025

SPIN
  0 C s       :     0.000000  s :     0.000000
      pz      :    -0.000000  p :    -0.000000
      px      :    -0.000000
      py      :    -0.000000
      dz2     :     0.000000  d :    -0.000000
      dxz     :    -0.000000
      dyz     :     0.000000
      dx2y2   :    -0.000000
      dxy     :    -0.000000
      f0      :     0.000000  f :    -0.000000
      f+1     :     0.000000
      f-1     :     0.000000
      f+2     :    -0.000000
      f-2     :     0.000000
      f+3     :    -0.000000
      f-3     :    -0.000000
      g0      :    -0.000000  g :     0.000000
      g+1     :    -0.000000
      g-1     :    -0.000000
      g+2     :     0.000000
      g-2     :     0.000000
      g+3     :    -0.000000
      g-3     :     0.000000
      g+4     :    -0.000000
      g-4     :    -0.000000
      h0      :    -0.000000  h :     0.000000
      h+1     :     0.000000
      h-1     :    -0.000000
      h+2     :    -0.000000
      h-2     :     0.000000
      h+3     :     0.000000
      h-3     :     0.000000
      h+4     :     0.000000
      h-4     :    -0.000000
      h+5     :     0.000000
      h-5     :    -0.000000
  1 B s       :     0.000000  s :     0.000000
      pz      :     0.000000  p :     0.000000
      px      :     0.000000
      py      :     0.000000
      dz2     :     0.000000  d :     0.000000
      dxz     :    -0.000000
      dyz     :    -0.000000
      dx2y2   :     0.000000
      dxy     :    -0.000000
      f0      :     0.000000  f :    -0.000000
      f+1     :     0.000000
      f-1     :    -0.000000
      f+2     :    -0.000000
      f-2     :    -0.000000
      f+3     :     0.000000
      f-3     :    -0.000000
      g0      :     0.000000  g :    -0.000000
      g+1     :    -0.000000
      g-1     :    -0.000000
      g+2     :     0.000000
      g-2     :    -0.000000
      g+3     :     0.000000
      g-3     :    -0.000000
      g+4     :    -0.000000
      g-4     :    -0.000000
      h0      :    -0.000000  h :    -0.000000
      h+1     :    -0.000000
      h-1     :    -0.000000
      h+2     :    -0.000000
      h-2     :     0.000000
      h+3     :     0.000000
      h-3     :    -0.000000
      h+4     :     0.000000
      h-4     :     0.000000
      h+5     :    -0.000000
      h-5     :     0.000000
  2 H s       :     0.000000  s :     0.000000
      pz      :     0.000000  p :     0.000000
      px      :     0.000000
      py      :     0.000000
      dz2     :    -0.000000  d :    -0.000000
      dxz     :    -0.000000
      dyz     :     0.000000
      dx2y2   :    -0.000000
      dxy     :    -0.000000
      f0      :    -0.000000  f :    -0.000000
      f+1     :     0.000000
      f-1     :     0.000000
      f+2     :     0.000000
      f-2     :    -0.000000
      f+3     :    -0.000000
      f-3     :     0.000000
      g0      :     0.000000  g :     0.000000
      g+1     :    -0.000000
      g-1     :     0.000000
      g+2     :     0.000000
      g-2     :     0.000000
      g+3     :    -0.000000
      g-3     :    -0.000000
      g+4     :     0.000000
      g-4     :     0.000000
  3 H s       :    -0.000000  s :    -0.000000
      pz      :    -0.000000  p :    -0.000000
      px      :    -0.000000
      py      :     0.000000
      dz2     :     0.000000  d :     0.000000
      dxz     :     0.000000
      dyz     :     0.000000
      dx2y2   :    -0.000000
      dxy     :    -0.000000
      f0      :    -0.000000  f :     0.000000
      f+1     :     0.000000
      f-1     :     0.000000
      f+2     :     0.000000
      f-2     :     0.000000
      f+3     :     0.000000
      f-3     :     0.000000
      g0      :    -0.000000  g :     0.000000
      g+1     :    -0.000000
      g-1     :     0.000000
      g+2     :    -0.000000
      g-2     :     0.000000
      g+3     :     0.000000
      g-3     :     0.000000
      g+4     :    -0.000000
      g-4     :     0.000000
  4 H s       :     0.000000  s :     0.000000
      pz      :     0.000000  p :     0.000000
      px      :    -0.000000
      py      :     0.000000
      dz2     :     0.000000  d :     0.000000
      dxz     :    -0.000000
      dyz     :    -0.000000
      dx2y2   :     0.000000
      dxy     :     0.000000
      f0      :    -0.000000  f :    -0.000000
      f+1     :     0.000000
      f-1     :    -0.000000
      f+2     :    -0.000000
      f-2     :     0.000000
      f+3     :     0.000000
      f-3     :     0.000000
      g0      :     0.000000  g :    -0.000000
      g+1     :    -0.000000
      g-1     :     0.000000
      g+2     :    -0.000000
      g-2     :     0.000000
      g+3     :    -0.000000
      g-3     :    -0.000000
      g+4     :     0.000000
      g-4     :    -0.000000
  5 H s       :    -0.000000  s :    -0.000000
      pz      :     0.000000  p :     0.000000
      px      :    -0.000000
      py      :    -0.000000
      dz2     :    -0.000000  d :     0.000000
      dxz     :     0.000000
      dyz     :    -0.000000
      dx2y2   :     0.000000
      dxy     :     0.000000
      f0      :     0.000000  f :    -0.000000
      f+1     :    -0.000000
      f-1     :     0.000000
      f+2     :    -0.000000
      f-2     :    -0.000000
      f+3     :     0.000000
      f-3     :    -0.000000
      g0      :    -0.000000  g :    -0.000000
      g+1     :    -0.000000
      g-1     :    -0.000000
      g+2     :     0.000000
      g-2     :     0.000000
      g+3     :     0.000000
      g-3     :    -0.000000
      g+4     :    -0.000000
      g-4     :     0.000000
  6 H s       :    -0.000000  s :    -0.000000
      pz      :     0.000000  p :    -0.000000
      px      :    -0.000000
      py      :    -0.000000
      dz2     :     0.000000  d :    -0.000000
      dxz     :     0.000000
      dyz     :    -0.000000
      dx2y2   :    -0.000000
      dxy     :    -0.000000
      f0      :    -0.000000  f :    -0.000000
      f+1     :    -0.000000
      f-1     :    -0.000000
      f+2     :    -0.000000
      f-2     :    -0.000000
      f+3     :     0.000000
      f-3     :     0.000000
      g0      :    -0.000000  g :    -0.000000
      g+1     :    -0.000000
      g-1     :    -0.000000
      g+2     :     0.000000
      g-2     :     0.000000
      g+3     :     0.000000
      g-3     :     0.000000
      g+4     :    -0.000000
      g-4     :    -0.000000


                      *****************************
                      * MAYER POPULATION ANALYSIS *
                      *****************************

  NA   - Mulliken gross atomic population
  ZA   - Total nuclear charge
  QA   - Mulliken gross atomic charge
  VA   - Mayer's total valence
  BVA  - Mayer's bonded valence
  FA   - Mayer's free valence

  ATOM       NA         ZA         QA         VA         BVA        FA
  0 C      6.3482     6.0000    -0.3482     3.8665     3.8665     0.0000
  1 B      4.8223     5.0000     0.1777     2.9137     2.9137    -0.0000
  2 H      0.8430     1.0000     0.1570     0.8852     0.8852     0.0000
  3 H      0.9402     1.0000     0.0598     1.0721     1.0721     0.0000
  4 H      0.9399     1.0000     0.0601     1.0716     1.0716     0.0000
  5 H      1.0532     1.0000    -0.0532     0.9193     0.9193    -0.0000
  6 H      1.0532     1.0000    -0.0532     0.9195     0.9195    -0.0000

  Mayer bond orders larger than 0.1
B(  0-C ,  1-B ) :   0.9048 B(  0-C ,  2-H ) :   0.8796 B(  0-C ,  3-H ) :   1.0737 
B(  0-C ,  4-H ) :   1.0734 B(  1-B ,  5-H ) :   1.0145 B(  1-B ,  6-H ) :   1.0147 


-------
TIMINGS
-------

Total SCF time: 0 days 2 hours 3 min 2 sec 

Total time                  ....    7382.899 sec
Sum of individual times     ....    7380.497 sec  (100.0%)

Fock matrix formation       ....    7363.747 sec  ( 99.7%)
  XC integration            ....      89.613 sec  (  1.2% of F)
    Basis function eval.    ....       3.537 sec  (  3.9% of XC)
    Density eval.           ....      26.767 sec  ( 29.9% of XC)
    XC-Functional eval.     ....       0.255 sec  (  0.3% of XC)
    XC-Potential eval.      ....      57.689 sec  ( 64.4% of XC)
Diagonalization             ....       7.999 sec  (  0.1%)
Density matrix formation    ....       0.097 sec  (  0.0%)
Population analysis         ....       0.560 sec  (  0.0%)
Initial guess               ....       3.681 sec  (  0.0%)
Orbital Transformation      ....       0.000 sec  (  0.0%)
Orbital Orthonormalization  ....       0.000 sec  (  0.0%)
DIIS solution               ....       3.538 sec  (  0.0%)
Grid generation             ....       0.874 sec  (  0.0%)

-------------------------   --------------------
FINAL SINGLE POINT ENERGY       -65.853841525398
-------------------------   --------------------


                            ***************************************
                            *     ORCA property calculations      *
                            ***************************************

                                    ---------------------
                                    Active property flags
                                    ---------------------
   (+) Dipole Moment
   (+) Polarizability


------------------------------------------------------------------------------
                       ORCA ELECTRIC PROPERTIES CALCULATION
------------------------------------------------------------------------------

Dipole Moment Calculation                       ... on
Quadrupole Moment Calculation                   ... off
Polarizability Calculation                      ... Analytic (CP-SCF)
GBWName                                         ... ch3bh2_pbe.gbw
Electron density file                           ... ch3bh2_pbe.scfp.tmp
The origin for moment calculation is the CENTER OF MASS  = (-0.016481,  0.064710 -0.000000)

-------------
DIPOLE MOMENT
-------------
                                X             Y             Z
Electronic contribution:     -0.20693       0.75449      -0.00000
Nuclear contribution   :      0.24617      -1.03742       0.00000
                        -----------------------------------------
Total Dipole Moment    :      0.03924      -0.28293       0.00000
                        -----------------------------------------
Magnitude (a.u.)       :      0.28563
Magnitude (Debye)      :      0.72603



--------------------
Rotational spectrum 
--------------------
 
Rotational constants in cm-1:     3.228710     0.723532     0.660823 
Rotational constants in MHz : 96794.286037 21690.947830 19810.964189 

 Dipole components along the rotational axes: 
x,y,z [a.u.] :    -0.282880    -0.000000    -0.039573 
x,y,z [Debye]:    -0.719023    -0.000001    -0.100587 

 
Transforming and storing MO dipole integrals   ... done

                ... starting polarizability calculation

Opening the Dipole integral file               ... (ch3bh2_pbe.dmo.tmp) done
Reading Dipole-MO integrals                    ... done
Solving CP-SCF equations                       ... 

           ************************************************************
           *        Program running with 4 parallel MPI-processes     *
           *              working on a common directory               *
           ************************************************************

------------------------------------------------------------------------------
                           ORCA CP-SCF CALCULATION
------------------------------------------------------------------------------

Input orbitals are from        ... ch3bh2_pbe.gbw
Input Perturbation             ... ch3bh2_pbe.cpv.tmp
Wavefunction output            ... ch3bh2_pbe.cpu.tmp
Perturbation mode              ... Real perturbation (singlet)
Solver                         ... POPLE
Max. number of iterations      ... 200
Convergence tolerance          ... 1.000e-06
Integral handling              ... Direct
Number of perturbations        ... 3
Number of operators            ... 2
Orbital ranges used for CP-SCF:
 Operator 0:  Orbitals   0...  7  to   8...729
 Operator 1:  Orbitals   0...  7  to   8...729
DFT calculation                         ... on
Exchange functional (SCF)               ... PBE
Exchange functional (CP-SCF)            ... PBE
   PBE kappa parameter  XKappa (SCF)    ...  0.804000
   PBE kappa parameter  XKappa (CP-SCF) ...  0.804000
   PBE mue parameter   XMuePBE (SCF)    ...  0.219520
   PBE mue parameter   XMuePBE (CP-SCF) ...  0.219520
Correlation functional (SCF)            ... PBE
Correlation functional (CP-SCF)         ... PBE
   PBE beta parameter CBetaPBE (SCF)    ...  0.066725
   PBE beta parameter CBetaPBE (CP-SCF) ...  0.066725
 LDA part of GGA corr.  LDAOpt (SCF)    ... PW91-LDA
 LDA part of GGA corr.  LDAOpt (CP-SCF) ... PW91-LDA
Variables per vector in CP-SCF ... 11552
Number of vectors sought       ... 3
Recalculating density on grid  ... done
Calculating the xc-kernel      ... done
     CP-SCF ITERATION   0: 
     CP-SCF ITERATION   1:      0.171657354588
     CP-SCF ITERATION   2:      0.011220980712
     CP-SCF ITERATION   3:      0.000460702975
     CP-SCF ITERATION   4:      0.000011125734
     CP-SCF ITERATION   5:      0.000000279660
done
Reading CP-SCF coefficients                    ... done
Doing the polarizability tensor   ... done
Cleaning up                                    ... done

-------------------------
THE POLARIZABILITY TENSOR
-------------------------

The raw cartesian tensor (atomic units):
   26.36001     -0.31594      0.00001  
   -0.31594     36.03146     -0.00000  
    0.00001     -0.00000     30.47406  
diagonalized tensor: 
   26.34970     30.47406     36.04177  

   -0.99947      0.00000      0.03262  
   -0.03262      0.00000     -0.99947  
    0.00000      1.00000      0.00000  

Isotropic polarizability :  30.95518


Timings for individual modules:

Sum of individual times         ...    12503.663 sec (= 208.394 min)
GTO integral calculation        ...        8.072 sec (=   0.135 min)   0.1 %
SCF iterations                  ...     7386.503 sec (= 123.108 min)  59.1 %
Solution of CP-SCF eqns.        ...     5109.088 sec (=  85.151 min)  40.9 %
                             ****ORCA TERMINATED NORMALLY****
TOTAL RUN TIME: 0 days 3 hours 28 minutes 25 seconds 124 msec
