
                                 *****************
                                 * O   R   C   A *
                                 *****************

           --- An Ab Initio, DFT and Semiempirical electronic structure package ---

                  #######################################################
                  #                        -***-                        #
                  #          Department of theory and spectroscopy      #
                  #               Directorship: Frank Neese             #
                  #        Max Planck Institute fuer Kohlenforschung    #
                  #                Kaiser Wilhelm Platz 1               #
                  #                 D-45470 Muelheim/Ruhr               #
                  #                      Germany                        #
                  #                                                     #
                  #                  All rights reserved                #
                  #                        -***-                        #
                  #######################################################


                         Program Version 4.1.2  - RELEASE  -


 With contributions from (in alphabetic order):
   Daniel Aravena         : Magnetic Properties
   Michael Atanasov       : Ab Initio Ligand Field Theory
   Alexander A. Auer      : GIAO ZORA
   Ute Becker             : Parallelization
   Giovanni Bistoni       : ED, Open-shell LED
   Martin Brehm           : Molecular dynamics
   Dmytro Bykov           : SCF Hessian
   Vijay G. Chilkuri      : MRCI spin determinant printing
   Dipayan Datta          : RHF DLPNO-CCSD density
   Achintya Kumar Dutta   : EOM-CC, STEOM-CC
   Dmitry Ganyushin       : Spin-Orbit,Spin-Spin,Magnetic field MRCI
   Miquel Garcia          : C-PCM Hessian
   Yang Guo               : DLPNO-NEVPT2, CIM, IAO-localization
   Andreas Hansen         : Spin unrestricted coupled pair/coupled cluster methods
   Benjamin Helmich-Paris : CASSCF linear response (MC-RPA)
   Lee Huntington         : MR-EOM, pCC
   Robert Izsak           : Overlap fitted RIJCOSX, COSX-SCS-MP3, EOM
   Christian Kollmar      : KDIIS, OOCD, Brueckner-CCSD(T), CCSD density
   Simone Kossmann        : Meta GGA functionals, TD-DFT gradient, OOMP2, MP2 Hessian
   Martin Krupicka        : AUTO-CI
   Lucas Lang             : DCDCAS
   Dagmar Lenk            : GEPOL surface, SMD
   Dimitrios Liakos       : Extrapolation schemes; parallel MDCI
   Dimitrios Manganas     : ROCIS; embedding schemes
   Dimitrios Pantazis     : SARC Basis sets
   Taras Petrenko         : DFT Hessian,TD-DFT gradient, ASA, ECA, R-Raman, ABS, FL, XAS/XES, NRVS
   Peter Pinski           : DLPNO-MP2, DLPNO-MP2 Gradient
   Christoph Reimann      : Effective Core Potentials
   Marius Retegan         : Local ZFS, SOC
   Christoph Riplinger    : Optimizer, TS searches, QM/MM, DLPNO-CCSD(T), (RO)-DLPNO pert. Triples
   Tobias Risthaus        : Range-separated hybrids, TD-DFT gradient, RPA, STAB
   Michael Roemelt        : Restricted open shell CIS
   Masaaki Saitow         : Open-shell DLPNO
   Barbara Sandhoefer     : DKH picture change effects
   Avijit Sen             : IP-ROCIS
   Kantharuban Sivalingam : CASSCF convergence, NEVPT2, FIC-MRCI
   Bernardo de Souza      : ESD, SOC TD-DFT
   Georgi Stoychev        : AutoAux, RI-MP2 NMR
   Willem Van den Heuvel  : Paramagnetic NMR
   Boris Wezisla          : Elementary symmetry handling
   Frank Wennmohs         : Technical directorship


 We gratefully acknowledge several colleagues who have allowed us to
 interface, adapt or use parts of their codes:
   Stefan Grimme, W. Hujo, H. Kruse,             : VdW corrections, initial TS optimization,
                  C. Bannwarth                     DFT functionals, gCP, sTDA/sTD-DF
   Ed Valeev                                     : LibInt (2-el integral package), F12 methods
   Garnet Chan, S. Sharma, J. Yang, R. Olivares  : DMRG
   Ulf Ekstrom                                   : XCFun DFT Library
   Mihaly Kallay                                 : mrcc  (arbitrary order and MRCC methods)
   Andreas Klamt, Michael Diedenhofen            : otool_cosmo (COSMO solvation model)
   Jiri Pittner, Ondrej Demel                    : Mk-CCSD
   Frank Weinhold                                : gennbo (NPA and NBO analysis)
   Christopher J. Cramer and Donald G. Truhlar   : smd solvation model
   Lars Goerigk                                  : TD-DFT with DH, B97 family of functionals
   V. Asgeirsson, H. Jonsson                     : NEB implementation
   FAccTs GmbH                                   : IRC, NEB, NEB-TS, Multilevel


 Your calculation uses the libint2 library for the computation of 2-el integrals
 For citations please refer to: http://libint.valeyev.net

 This ORCA versions uses:
   CBLAS   interface :  Fast vector & matrix operations
   LAPACKE interface :  Fast linear algebra routines
   SCALAPACK package :  Parallel linear algebra routines


----- Orbital basis set information -----
Your calculation utilizes the basis: aug-pc-4
   H, C-F              : F. Jensen, J. Chem. Phys. 115, 9113 (2001).
                         F. Jensen, J. Chem. Phys. 116, 7372 (2002).
                         F. Jensen, J. Chem. Phys. 117, 9234 (2002).
   Si-Cl               : F. Jensen, T. Helgaker, J. Chem. Phys. 121, 3463 (2004).
   He-B, Ne-Mg, Al, Ar : F. Jensen, J. Phys. Chem. A 111, 11198 (2007).
   K, Ca, Ga-Kr        : F. Jensen, J. Chem. Phys. 136, 094110 (2012).
   Sc-Zn               : F. Jensen, J. Chem. Phys. 138, 014107 (2013).

================================================================================
                                        WARNINGS
                       Please study these warnings very carefully!
================================================================================


INFO   : the flag for use of LIBINT has been found!

================================================================================
                                       INPUT FILE
================================================================================
NAME = ch3oh_pbe.inp
|  1> !uks pbe nori aug-pc-4 grid5 nofinalgrid verytightscf
|  2> 
|  3> %maxcore 1500
|  4> 
|  5> %pal nprocs 4 end
|  6> 
|  7> %scf
|  8> 	maxiter 200
|  9> end
| 10> %elprop
| 11> 	dipole true
| 12> 	 polar 1
| 13> 	 maxiter 200
| 14> end
| 15> 
| 16> * xyz 0 1
| 17> C -0.0503 0.6685 0.0000
| 18> O -0.0503 -0.7585 0.0000
| 19> H -1.0807 1.0417 0.0000
| 20> H 0.4650 1.0417 0.8924
| 21> H 0.4650 1.0417 -0.8924
| 22> H 0.8544 -1.0677 0.0000
| 23> *
| 24> 
| 25>                          ****END OF INPUT****
================================================================================

                       ****************************
                       * Single Point Calculation *
                       ****************************

---------------------------------
CARTESIAN COORDINATES (ANGSTROEM)
---------------------------------
  C     -0.050300    0.668500    0.000000
  O     -0.050300   -0.758500    0.000000
  H     -1.080700    1.041700    0.000000
  H      0.465000    1.041700    0.892400
  H      0.465000    1.041700   -0.892400
  H      0.854400   -1.067700    0.000000

----------------------------
CARTESIAN COORDINATES (A.U.)
----------------------------
  NO LB      ZA    FRAG     MASS         X           Y           Z
   0 C     6.0000    0    12.011   -0.095053    1.263282    0.000000
   1 O     8.0000    0    15.999   -0.095053   -1.433357    0.000000
   2 H     1.0000    0     1.008   -2.042227    1.968528    0.000000
   3 H     1.0000    0     1.008    0.878723    1.968528    1.686392
   4 H     1.0000    0     1.008    0.878723    1.968528   -1.686392
   5 H     1.0000    0     1.008    1.614582   -2.017661    0.000000

--------------------------------
INTERNAL COORDINATES (ANGSTROEM)
--------------------------------
 C      0   0   0     0.000000000000     0.00000000     0.00000000
 O      1   0   0     1.427000000000     0.00000000     0.00000000
 H      1   2   0     1.095902550412   109.90985201     0.00000000
 H      1   2   3     1.095988179681   109.90823068   120.00349674
 H      1   2   3     1.095988179681   109.90823068   239.99650326
 H      2   1   3     0.956078830432   108.86892767   180.00000085

---------------------------
INTERNAL COORDINATES (A.U.)
---------------------------
 C      0   0   0     0.000000000000     0.00000000     0.00000000
 O      1   0   0     2.696639193106     0.00000000     0.00000000
 H      1   2   0     2.070955689745   109.90985201     0.00000000
 H      1   2   3     2.071117505612   109.90823068   120.00349674
 H      1   2   3     2.071117505612   109.90823068   239.99650326
 H      2   1   3     1.806727151956   108.86892767   180.00000085

---------------------
BASIS SET INFORMATION
---------------------
There are 3 groups of distinct atoms

 Group   1 Type C   : 28s12p7d4f3g2h contracted to 9s8p7d4f3g2h pattern {11101111111/51111111/1111111/1111/111/11}
 Group   2 Type O   : 27s12p7d4f3g2h contracted to 9s8p7d4f3g2h pattern {1191111111/51111111/1111111/1111/111/11}
 Group   3 Type H   : 12s7p4d3f2g contracted to 8s7p4d3f2g pattern {51111111/1111111/1111/111/11}

Atom   0C    basis set group =>   1
Atom   1O    basis set group =>   2
Atom   2H    basis set group =>   3
Atom   3H    basis set group =>   3
Atom   4H    basis set group =>   3
Atom   5H    basis set group =>   3


           ************************************************************
           *        Program running with 4 parallel MPI-processes     *
           *              working on a common directory               *
           ************************************************************
------------------------------------------------------------------------------
                           ORCA GTO INTEGRAL CALCULATION
------------------------------------------------------------------------------

                         BASIS SET STATISTICS AND STARTUP INFO

 # of primitive gaussian shells          ...  223
 # of primitive gaussian functions       ...  719
 # of contracted shells                  ...  162
 # of contracted basis functions         ...  642
 Highest angular momentum                ...    5
 Maximum contraction depth               ...   11
 Integral package used                   ... LIBINT
 Integral threshhold            Thresh   ...  1.000e-12
 Primitive cut-off              TCut     ...  1.000e-14


------------------------------ INTEGRAL EVALUATION ----------------------------


 * One electron integrals 
 Pre-screening matrix                    ... done
 Shell pair data                         ... done (   0.004 sec)



           ************************************************************
           *        Program running with 4 parallel MPI-processes     *
           *              working on a common directory               *
           ************************************************************
-------------------------------------------------------------------------------
                                 ORCA SCF
-------------------------------------------------------------------------------

------------
SCF SETTINGS
------------
Hamiltonian:
 Density Functional     Method          .... DFT(GTOs)
 Exchange Functional    Exchange        .... PBE
   PBE kappa parameter   XKappa         ....  0.804000
   PBE mue parameter    XMuePBE         ....  0.219520
 Correlation Functional Correlation     .... PBE
   PBE beta parameter  CBetaPBE         ....  0.066725
 LDA part of GGA corr.  LDAOpt          .... PW91-LDA
 Gradients option       PostSCFGGA      .... off
   Density functional embedding theory  .... OFF
   NL short-range parameter             ....  6.400000


General Settings:
 Integral files         IntName         .... ch3oh_pbe
 Hartree-Fock type      HFTyp           .... UHF
 Total Charge           Charge          ....    0
 Multiplicity           Mult            ....    1
 Number of Electrons    NEL             ....   18
 Basis Dimension        Dim             ....  642
 Nuclear Repulsion      ENuc            ....     40.1934428462 Eh

Convergence Acceleration:
 DIIS                   CNVDIIS         .... on
   Start iteration      DIISMaxIt       ....    12
   Startup error        DIISStart       ....  0.200000
   # of expansion vecs  DIISMaxEq       ....     5
   Bias factor          DIISBfac        ....   1.050
   Max. coefficient     DIISMaxC        ....  10.000
 Newton-Raphson         CNVNR           .... off
 SOSCF                  CNVSOSCF        .... off
 Level Shifting         CNVShift        .... on
   Level shift para.    LevelShift      ....    0.2500
   Turn off err/grad.   ShiftErr        ....    0.0010
 Zerner damping         CNVZerner       .... off
 Static damping         CNVDamp         .... on
   Fraction old density DampFac         ....    0.7000
   Max. Damping (<1)    DampMax         ....    0.9800
   Min. Damping (>=0)   DampMin         ....    0.0000
   Turn off err/grad.   DampErr         ....    0.1000
 Fernandez-Rico         CNVRico         .... off

SCF Procedure:
 Maximum # iterations   MaxIter         ....   200
 SCF integral mode      SCFMode         .... Direct
   Integral package                     .... LIBINT
 Reset frequency        DirectResetFreq ....    20
 Integral Threshold     Thresh          ....  1.000e-12 Eh
 Primitive CutOff       TCut            ....  1.000e-14 Eh

Convergence Tolerance:
 Convergence Check Mode ConvCheckMode   .... Total+1el-Energy
 Convergence forced     ConvForced      .... 0
 Energy Change          TolE            ....  1.000e-09 Eh
 1-El. energy change                    ....  1.000e-06 Eh
 DIIS Error             TolErr          ....  1.000e-08


Diagonalization of the overlap matrix:
Smallest eigenvalue                        ... 7.178e-08
Time for diagonalization                   ...    0.151 sec
Threshold for overlap eigenvalues          ... 1.000e-08
Number of eigenvalues below threshold      ... 0
Time for construction of square roots      ...    0.094 sec
Total time needed                          ...    0.247 sec

-------------------
DFT GRID GENERATION
-------------------

General Integration Accuracy     IntAcc      ...  5.010
Radial Grid Type                 RadialGrid  ... Gauss-Chebyshev
Angular Grid (max. acc.)         AngularGrid ... Lebedev-434
Angular grid pruning method      GridPruning ... 3 (G Style)
Weight generation scheme         WeightScheme... Becke
Basis function cutoff            BFCut       ...    1.0000e-12
Integration weight cutoff        WCut        ...    1.0000e-14
Grids for H and He will be reduced by one unit

# of grid points (after initial pruning)     ...  48308 (   0.0 sec)
# of grid points (after weights+screening)   ...  46672 (   0.0 sec)
nearest neighbour list constructed           ...    0.0 sec
Grid point re-assignment to atoms done       ...    0.0 sec
Grid point division into batches done        ...    0.3 sec
Reduced shell lists constructed in    0.6 sec

Total number of grid points                  ...    46672
Total number of batches                      ...      733
Average number of points per batch           ...       63
Average number of grid points per atom       ...     7779
Average number of shells per batch           ...   132.63 (81.87%)
Average number of basis functions per batch  ...   541.74 (84.38%)
Average number of large shells per batch     ...   120.02 (90.50%)
Average number of large basis fcns per batch ...   493.74 (91.14%)
Maximum spatial batch extension              ...  14.97, 13.47, 14.62 au
Average spatial batch extension              ...   0.40,  0.39,  0.44 au

Time for grid setup =    0.621 sec

------------------------------
INITIAL GUESS: MODEL POTENTIAL
------------------------------
Loading Hartree-Fock densities                     ... done
Calculating cut-offs                               ... done
Setting up the integral package                    ... done
Initializing the effective Hamiltonian             ... done
Starting the Coulomb interaction                   ... done (   0.1 sec)
Reading the grid                                   ... done
Mapping shells                                     ... done
Starting the XC term evaluation                    ... done (   2.3 sec)
  promolecular density results
     # of electrons  =     17.998040470
     EX              =    -14.424686393
     EC              =     -0.574310312
     EX+EC           =    -14.998996706
Transforming the Hamiltonian                       ... done (   0.1 sec)
Diagonalizing the Hamiltonian                      ... done (   0.1 sec)
Back transforming the eigenvectors                 ... done (   0.0 sec)
Now organizing SCF variables                       ... done
                      ------------------
                      INITIAL GUESS DONE (   3.4 sec)
                      ------------------
--------------
SCF ITERATIONS
--------------
ITER       Energy         Delta-E        Max-DP      RMS-DP      [F,P]     Damp
               ***  Starting incremental Fock matrix formation  ***
  0   -115.5524574166   0.000000000000 0.01669132  0.00016352  0.2669994 0.7000
  1   -115.5983433169  -0.045885900252 0.01016619  0.00009886  0.0832159 0.7000
                               ***Turning on DIIS***
  2   -115.6113626423  -0.013019325356 0.01352441  0.00013692  0.0204606 0.0000
  3   -115.6373636443  -0.026001002085 0.00588113  0.00006233  0.0433640 0.0000
  4   -115.6416691278  -0.004305483412 0.00279507  0.00002280  0.0191463 0.0000
  5   -115.6421533390  -0.000484211244 0.00172985  0.00001030  0.0028285 0.0000
  6   -115.6421770895  -0.000023750493 0.00125539  0.00000973  0.0004840 0.0000
  7   -115.6421783737  -0.000001284230 0.00007972  0.00000086  0.0001039 0.0000
  8   -115.6421784102  -0.000000036450 0.00001976  0.00000017  0.0000342 0.0000
  9   -115.6421784112  -0.000000001071 0.00001054  0.00000007  0.0000227 0.0000
 10   -115.6421784122  -0.000000000958 0.00002520  0.00000016  0.0000050 0.0000
 11   -115.6421784122  -0.000000000018 0.00002447  0.00000023  0.0000023 0.0000
                 **** Energy Check signals convergence ****

               *****************************************************
               *                     SUCCESS                       *
               *           SCF CONVERGED AFTER  12 CYCLES          *
               *****************************************************


----------------
TOTAL SCF ENERGY
----------------

Total Energy       :         -115.64217841 Eh           -3146.78365 eV

Components:
Nuclear Repulsion  :           40.19344285 Eh            1093.71918 eV
Electronic Energy  :         -155.83562126 Eh           -4240.50284 eV
One Electron Energy:         -236.73019299 Eh           -6441.75604 eV
Two Electron Energy:           80.89457173 Eh            2201.25321 eV

Virial components:
Potential Energy   :         -230.85136218 Eh           -6281.78492 eV
Kinetic Energy     :          115.20918377 Eh            3135.00127 eV
Virial Ratio       :            2.00375833


DFT components:
N(Alpha)           :        9.000000184294 electrons
N(Beta)            :        9.000000184294 electrons
N(Total)           :       18.000000368587 electrons
E(X)               :      -14.774804330367 Eh       
E(C)               :       -0.580114292033 Eh       
E(XC)              :      -15.354918622400 Eh       
DFET-embed. en.    :        0.000000000000 Eh       

---------------
SCF CONVERGENCE
---------------

  Last Energy change         ...   -1.0516e-11  Tolerance :   1.0000e-09
  Last MAX-Density change    ...    5.2827e-05  Tolerance :   1.0000e-08
  Last RMS-Density change    ...    4.6246e-07  Tolerance :   1.0000e-09
  Last DIIS Error            ...    3.0919e-07  Tolerance :   1.0000e-08

             **** THE GBW FILE WAS UPDATED (ch3oh_pbe.gbw) ****
             **** DENSITY FILE WAS UPDATED (ch3oh_pbe.scfp.tmp) ****
             **** ENERGY FILE WAS UPDATED (ch3oh_pbe.en.tmp) ****
----------------------
UHF SPIN CONTAMINATION
----------------------

Warning: in a DFT calculation there is little theoretical justification to 
         calculate <S**2> as in Hartree-Fock theory. We will do it anyways
         but you should keep in mind that the values have only limited relevance

Expectation value of <S**2>     :    -0.000000
Ideal value S*(S+1) for S=0.0   :     0.000000
Deviation                       :    -0.000000

----------------
ORBITAL ENERGIES
----------------
                 SPIN UP ORBITALS
  NO   OCC          E(Eh)            E(eV) 
   0   1.0000     -18.750376      -510.2237 
   1   1.0000      -9.924758      -270.0664 
   2   1.0000      -0.934153       -25.4196 
   3   1.0000      -0.619715       -16.8633 
   4   1.0000      -0.458807       -12.4848 
   5   1.0000      -0.391879       -10.6636 
   6   1.0000      -0.383908       -10.4467 
   7   1.0000      -0.292760        -7.9664 
   8   1.0000      -0.230145        -6.2626 
   9   0.0000      -0.024984        -0.6799 
  10   0.0000      -0.003839        -0.1045 
  11   0.0000       0.013134         0.3574 
  12   0.0000       0.013946         0.3795 
  13   0.0000       0.028673         0.7802 
  14   0.0000       0.034131         0.9287 
  15   0.0000       0.036783         1.0009 
  16   0.0000       0.037919         1.0318 
  17   0.0000       0.043290         1.1780 
  18   0.0000       0.047337         1.2881 
  19   0.0000       0.050488         1.3739 
  20   0.0000       0.062247         1.6938 
  21   0.0000       0.069249         1.8844 
  22   0.0000       0.074664         2.0317 
  23   0.0000       0.078189         2.1276 
  24   0.0000       0.082972         2.2578 
  25   0.0000       0.092189         2.5086 
  26   0.0000       0.104275         2.8375 
  27   0.0000       0.106675         2.9028 
  28   0.0000       0.109273         2.9735 
  29   0.0000       0.112487         3.0609 
  30   0.0000       0.119998         3.2653 
  31   0.0000       0.121290         3.3005 
  32   0.0000       0.122401         3.3307 
  33   0.0000       0.133250         3.6259 
  34   0.0000       0.134371         3.6564 
  35   0.0000       0.138161         3.7596 
  36   0.0000       0.149274         4.0620 
  37   0.0000       0.157370         4.2823 
  38   0.0000       0.162178         4.4131 
  39   0.0000       0.162505         4.4220 
  40   0.0000       0.163902         4.4600 
  41   0.0000       0.165830         4.5125 
  42   0.0000       0.172932         4.7057 
  43   0.0000       0.174286         4.7426 
  44   0.0000       0.181407         4.9363 
  45   0.0000       0.191469         5.2101 
  46   0.0000       0.197986         5.3875 
  47   0.0000       0.204676         5.5695 
  48   0.0000       0.207199         5.6382 
  49   0.0000       0.211305         5.7499 
  50   0.0000       0.219627         5.9764 
  51   0.0000       0.229417         6.2428 
  52   0.0000       0.231361         6.2957 
  53   0.0000       0.235153         6.3988 
  54   0.0000       0.241925         6.5831 
  55   0.0000       0.243721         6.6320 
  56   0.0000       0.250807         6.8248 
  57   0.0000       0.262373         7.1395 
  58   0.0000       0.269008         7.3201 
  59   0.0000       0.270243         7.3537 
  60   0.0000       0.274370         7.4660 
  61   0.0000       0.274384         7.4664 
  62   0.0000       0.279107         7.5949 
  63   0.0000       0.282949         7.6994 
  64   0.0000       0.286355         7.7921 
  65   0.0000       0.289149         7.8681 
  66   0.0000       0.289923         7.8892 
  67   0.0000       0.293082         7.9752 
  68   0.0000       0.306732         8.3466 
  69   0.0000       0.308542         8.3959 
  70   0.0000       0.315400         8.5825 
  71   0.0000       0.316678         8.6173 
  72   0.0000       0.322377         8.7723 
  73   0.0000       0.322591         8.7782 
  74   0.0000       0.327722         8.9178 
  75   0.0000       0.333468         9.0741 
  76   0.0000       0.334082         9.0908 
  77   0.0000       0.339639         9.2420 
  78   0.0000       0.345718         9.4075 
  79   0.0000       0.358843         9.7646 
  80   0.0000       0.363674         9.8961 
  81   0.0000       0.364889         9.9291 
  82   0.0000       0.379949        10.3389 
  83   0.0000       0.380148        10.3443 
  84   0.0000       0.385869        10.5000 
  85   0.0000       0.403657        10.9841 
  86   0.0000       0.403887        10.9903 
  87   0.0000       0.414412        11.2767 
  88   0.0000       0.425898        11.5893 
  89   0.0000       0.432530        11.7697 
  90   0.0000       0.433619        11.7994 
  91   0.0000       0.434986        11.8366 
  92   0.0000       0.438988        11.9455 
  93   0.0000       0.440572        11.9886 
  94   0.0000       0.452634        12.3168 
  95   0.0000       0.454252        12.3608 
  96   0.0000       0.456407        12.4195 
  97   0.0000       0.460725        12.5370 
  98   0.0000       0.461020        12.5450 
  99   0.0000       0.462659        12.5896 
 100   0.0000       0.472387        12.8543 
 101   0.0000       0.474964        12.9244 
 102   0.0000       0.482969        13.1423 
 103   0.0000       0.484861        13.1937 
 104   0.0000       0.485218        13.2035 
 105   0.0000       0.491637        13.3781 
 106   0.0000       0.493021        13.4158 
 107   0.0000       0.498619        13.5681 
 108   0.0000       0.509037        13.8516 
 109   0.0000       0.514684        14.0053 
 110   0.0000       0.520294        14.1579 
 111   0.0000       0.522585        14.2203 
 112   0.0000       0.533221        14.5097 
 113   0.0000       0.534272        14.5383 
 114   0.0000       0.541421        14.7328 
 115   0.0000       0.543926        14.8010 
 116   0.0000       0.545196        14.8355 
 117   0.0000       0.545659        14.8481 
 118   0.0000       0.558214        15.1898 
 119   0.0000       0.562277        15.3003 
 120   0.0000       0.564031        15.3481 
 121   0.0000       0.573335        15.6012 
 122   0.0000       0.577764        15.7218 
 123   0.0000       0.583332        15.8733 
 124   0.0000       0.588739        16.0204 
 125   0.0000       0.589928        16.0528 
 126   0.0000       0.597354        16.2548 
 127   0.0000       0.600665        16.3449 
 128   0.0000       0.609240        16.5783 
 129   0.0000       0.615926        16.7602 
 130   0.0000       0.620122        16.8744 
 131   0.0000       0.628322        17.0975 
 132   0.0000       0.628914        17.1136 
 133   0.0000       0.634650        17.2697 
 134   0.0000       0.641703        17.4616 
 135   0.0000       0.641945        17.4682 
 136   0.0000       0.649396        17.6710 
 137   0.0000       0.670477        18.2446 
 138   0.0000       0.674927        18.3657 
 139   0.0000       0.685548        18.6547 
 140   0.0000       0.694422        18.8962 
 141   0.0000       0.695638        18.9293 
 142   0.0000       0.697752        18.9868 
 143   0.0000       0.708041        19.2668 
 144   0.0000       0.720570        19.6077 
 145   0.0000       0.731263        19.8987 
 146   0.0000       0.734575        19.9888 
 147   0.0000       0.739458        20.1217 
 148   0.0000       0.742131        20.1944 
 149   0.0000       0.749364        20.3912 
 150   0.0000       0.768312        20.9068 
 151   0.0000       0.771632        20.9972 
 152   0.0000       0.793814        21.6008 
 153   0.0000       0.795527        21.6474 
 154   0.0000       0.796925        21.6854 
 155   0.0000       0.798781        21.7359 
 156   0.0000       0.807316        21.9682 
 157   0.0000       0.808347        21.9962 
 158   0.0000       0.817957        22.2578 
 159   0.0000       0.822129        22.3713 
 160   0.0000       0.837645        22.7935 
 161   0.0000       0.840389        22.8681 
 162   0.0000       0.841824        22.9072 
 163   0.0000       0.847267        23.0553 
 164   0.0000       0.850519        23.1438 
 165   0.0000       0.855201        23.2712 
 166   0.0000       0.856530        23.3074 
 167   0.0000       0.863004        23.4835 
 168   0.0000       0.864147        23.5146 
 169   0.0000       0.870948        23.6997 
 170   0.0000       0.873434        23.7673 
 171   0.0000       0.874193        23.7880 
 172   0.0000       0.877837        23.8872 
 173   0.0000       0.883388        24.0382 
 174   0.0000       0.884578        24.0706 
 175   0.0000       0.886514        24.1233 
 176   0.0000       0.894902        24.3515 
 177   0.0000       0.901671        24.5357 
 178   0.0000       0.907700        24.6998 
 179   0.0000       0.908057        24.7095 
 180   0.0000       0.912012        24.8171 
 181   0.0000       0.913326        24.8529 
 182   0.0000       0.924700        25.1624 
 183   0.0000       0.927583        25.2408 
 184   0.0000       0.929307        25.2877 
 185   0.0000       0.930736        25.3266 
 186   0.0000       0.943849        25.6834 
 187   0.0000       0.947051        25.7706 
 188   0.0000       0.952510        25.9191 
 189   0.0000       0.956045        26.0153 
 190   0.0000       0.963633        26.2218 
 191   0.0000       0.971338        26.4314 
 192   0.0000       0.976408        26.5694 
 193   0.0000       0.986124        26.8338 
 194   0.0000       0.988506        26.8986 
 195   0.0000       0.993431        27.0326 
 196   0.0000       0.999296        27.1922 
 197   0.0000       1.000131        27.2149 
 198   0.0000       1.010601        27.4999 
 199   0.0000       1.016255        27.6537 
 200   0.0000       1.016988        27.6736 
 201   0.0000       1.033266        28.1166 
 202   0.0000       1.035063        28.1655 
 203   0.0000       1.043420        28.3929 
 204   0.0000       1.043976        28.4080 
 205   0.0000       1.053577        28.6693 
 206   0.0000       1.065435        28.9920 
 207   0.0000       1.077757        29.3273 
 208   0.0000       1.086574        29.5672 
 209   0.0000       1.092623        29.7318 
 210   0.0000       1.101572        29.9753 
 211   0.0000       1.109232        30.1837 
 212   0.0000       1.142719        31.0950 
 213   0.0000       1.153426        31.3863 
 214   0.0000       1.156307        31.4647 
 215   0.0000       1.184758        32.2389 
 216   0.0000       1.190528        32.3959 
 217   0.0000       1.194749        32.5108 
 218   0.0000       1.201836        32.7036 
 219   0.0000       1.213177        33.0122 
 220   0.0000       1.228273        33.4230 
 221   0.0000       1.254964        34.1493 
 222   0.0000       1.258757        34.2525 
 223   0.0000       1.268783        34.5253 
 224   0.0000       1.273609        34.6567 
 225   0.0000       1.274940        34.6929 
 226   0.0000       1.296678        35.2844 
 227   0.0000       1.304715        35.5031 
 228   0.0000       1.329135        36.1676 
 229   0.0000       1.346891        36.6508 
 230   0.0000       1.349624        36.7251 
 231   0.0000       1.357910        36.9506 
 232   0.0000       1.387056        37.7437 
 233   0.0000       1.399870        38.0924 
 234   0.0000       1.409236        38.3473 
 235   0.0000       1.441875        39.2354 
 236   0.0000       1.522129        41.4192 
 237   0.0000       1.526080        41.5267 
 238   0.0000       1.558281        42.4030 
 239   0.0000       1.572327        42.7852 
 240   0.0000       1.580177        42.9988 
 241   0.0000       1.597816        43.4788 
 242   0.0000       1.606321        43.7102 
 243   0.0000       1.609091        43.7856 
 244   0.0000       1.619458        44.0677 
 245   0.0000       1.632218        44.4149 
 246   0.0000       1.641455        44.6663 
 247   0.0000       1.648411        44.8555 
 248   0.0000       1.662407        45.2364 
 249   0.0000       1.688393        45.9435 
 250   0.0000       1.695142        46.1272 
 251   0.0000       1.702912        46.3386 
 252   0.0000       1.709601        46.5206 
 253   0.0000       1.751545        47.6620 
 254   0.0000       1.759121        47.8681 
 255   0.0000       1.781353        48.4731 
 256   0.0000       1.788303        48.6622 
 257   0.0000       1.828863        49.7659 
 258   0.0000       1.839566        50.0571 
 259   0.0000       1.850265        50.3483 
 260   0.0000       1.878292        51.1109 
 261   0.0000       1.885701        51.3125 
 262   0.0000       1.906948        51.8907 
 263   0.0000       1.907295        51.9001 
 264   0.0000       1.954706        53.1903 
 265   0.0000       1.958234        53.2863 
 266   0.0000       1.979897        53.8757 
 267   0.0000       2.003464        54.5170 
 268   0.0000       2.026712        55.1496 
 269   0.0000       2.044523        55.6343 
 270   0.0000       2.055045        55.9206 
 271   0.0000       2.113587        57.5136 
 272   0.0000       2.160934        58.8020 
 273   0.0000       2.178073        59.2684 
 274   0.0000       2.217086        60.3300 
 275   0.0000       2.221570        60.4520 
 276   0.0000       2.245495        61.1030 
 277   0.0000       2.300648        62.6038 
 278   0.0000       2.304819        62.7173 
 279   0.0000       2.326133        63.2973 
 280   0.0000       2.335121        63.5419 
 281   0.0000       2.366099        64.3848 
 282   0.0000       2.399918        65.3051 
 283   0.0000       2.414222        65.6943 
 284   0.0000       2.440632        66.4130 
 285   0.0000       2.458102        66.8883 
 286   0.0000       2.501757        68.0763 
 287   0.0000       2.516705        68.4830 
 288   0.0000       2.568403        69.8898 
 289   0.0000       2.628647        71.5291 
 290   0.0000       2.657252        72.3075 
 291   0.0000       2.673670        72.7542 
 292   0.0000       2.716421        73.9176 
 293   0.0000       2.727565        74.2208 
 294   0.0000       2.771946        75.4285 
 295   0.0000       2.772431        75.4417 
 296   0.0000       2.823876        76.8416 
 297   0.0000       2.868611        78.0589 
 298   0.0000       2.901514        78.9542 
 299   0.0000       2.967572        80.7517 
 300   0.0000       3.012412        81.9719 
 301   0.0000       3.105515        84.5054 
 302   0.0000       3.142412        85.5094 
 303   0.0000       3.178883        86.5018 
 304   0.0000       3.204688        87.2040 
 305   0.0000       3.239853        88.1609 
 306   0.0000       3.282416        89.3191 
 307   0.0000       3.317903        90.2847 
 308   0.0000       3.335463        90.7626 
 309   0.0000       3.343944        90.9933 
 310   0.0000       3.434646        93.4615 
 311   0.0000       3.436189        93.5035 
 312   0.0000       3.484294        94.8125 
 313   0.0000       3.525567        95.9355 
 314   0.0000       3.548816        96.5682 
 315   0.0000       3.582494        97.4846 
 316   0.0000       3.607643        98.1690 
 317   0.0000       3.650462        99.3341 
 318   0.0000       3.660467        99.6064 
 319   0.0000       3.676149       100.0331 
 320   0.0000       3.720502       101.2400 
 321   0.0000       3.758663       102.2784 
 322   0.0000       3.771887       102.6383 
 323   0.0000       3.780383       102.8694 
 324   0.0000       3.811357       103.7123 
 325   0.0000       3.835974       104.3822 
 326   0.0000       3.857082       104.9565 
 327   0.0000       3.884039       105.6901 
 328   0.0000       3.893329       105.9429 
 329   0.0000       3.921668       106.7140 
 330   0.0000       3.933402       107.0333 
 331   0.0000       3.979200       108.2795 
 332   0.0000       4.018831       109.3579 
 333   0.0000       4.063830       110.5824 
 334   0.0000       4.065175       110.6190 
 335   0.0000       4.118329       112.0654 
 336   0.0000       4.147150       112.8497 
 337   0.0000       4.181336       113.7799 
 338   0.0000       4.187639       113.9515 
 339   0.0000       4.211816       114.6093 
 340   0.0000       4.243604       115.4743 
 341   0.0000       4.276985       116.3827 
 342   0.0000       4.335080       117.9635 
 343   0.0000       4.341661       118.1426 
 344   0.0000       4.377963       119.1304 
 345   0.0000       4.380842       119.2088 
 346   0.0000       4.409932       120.0003 
 347   0.0000       4.458995       121.3354 
 348   0.0000       4.464458       121.4841 
 349   0.0000       4.487730       122.1173 
 350   0.0000       4.593179       124.9868 
 351   0.0000       4.615782       125.6018 
 352   0.0000       4.697702       127.8310 
 353   0.0000       4.699130       127.8698 
 354   0.0000       4.708350       128.1207 
 355   0.0000       4.738270       128.9349 
 356   0.0000       4.765204       129.6678 
 357   0.0000       4.810184       130.8918 
 358   0.0000       4.825965       131.3212 
 359   0.0000       4.854320       132.0928 
 360   0.0000       4.876324       132.6915 
 361   0.0000       4.914043       133.7179 
 362   0.0000       4.937402       134.3536 
 363   0.0000       4.990408       135.7959 
 364   0.0000       5.085565       138.3853 
 365   0.0000       5.111189       139.0825 
 366   0.0000       5.144864       139.9989 
 367   0.0000       5.225849       142.2026 
 368   0.0000       5.230524       142.3298 
 369   0.0000       5.259437       143.1165 
 370   0.0000       5.315208       144.6342 
 371   0.0000       5.319187       144.7424 
 372   0.0000       5.380348       146.4067 
 373   0.0000       5.381890       146.4487 
 374   0.0000       5.460329       148.5831 
 375   0.0000       5.481695       149.1645 
 376   0.0000       5.496903       149.5783 
 377   0.0000       5.530105       150.4818 
 378   0.0000       5.540959       150.7772 
 379   0.0000       5.661405       154.0547 
 380   0.0000       5.679849       154.5565 
 381   0.0000       5.740683       156.2119 
 382   0.0000       5.751771       156.5136 
 383   0.0000       5.783616       157.3802 
 384   0.0000       5.836088       158.8080 
 385   0.0000       5.895564       160.4265 
 386   0.0000       5.977779       162.6636 
 387   0.0000       5.986239       162.8939 
 388   0.0000       6.038771       164.3233 
 389   0.0000       6.136185       166.9741 
 390   0.0000       6.245092       169.9376 
 391   0.0000       6.272245       170.6765 
 392   0.0000       6.298378       171.3876 
 393   0.0000       6.327372       172.1765 
 394   0.0000       6.332847       172.3255 
 395   0.0000       6.443563       175.3383 
 396   0.0000       6.450593       175.5296 
 397   0.0000       6.612107       179.9246 
 398   0.0000       6.713573       182.6856 
 399   0.0000       6.768128       184.1701 
 400   0.0000       6.787082       184.6859 
 401   0.0000       6.845246       186.2686 
 402   0.0000       6.874869       187.0747 
 403   0.0000       6.900192       187.7638 
 404   0.0000       6.946456       189.0227 
 405   0.0000       6.957722       189.3292 
 406   0.0000       7.020972       191.0504 
 407   0.0000       7.041747       191.6157 
 408   0.0000       7.090002       192.9288 
 409   0.0000       7.470793       203.2906 
 410   0.0000       7.537317       205.1008 
 411   0.0000       7.617798       207.2908 
 412   0.0000       7.674049       208.8215 
 413   0.0000       7.686795       209.1683 
 414   0.0000       7.827498       212.9970 
 415   0.0000       7.851584       213.6525 
 416   0.0000       7.910778       215.2632 
 417   0.0000       7.987381       217.3477 
 418   0.0000       8.032018       218.5623 
 419   0.0000       8.093864       220.2452 
 420   0.0000       8.505778       231.4540 
 421   0.0000       8.517615       231.7761 
 422   0.0000       8.551862       232.7080 
 423   0.0000       8.764829       238.5031 
 424   0.0000       8.817941       239.9484 
 425   0.0000       8.994613       244.7559 
 426   0.0000       9.001438       244.9416 
 427   0.0000       9.020835       245.4694 
 428   0.0000       9.052641       246.3349 
 429   0.0000       9.086155       247.2469 
 430   0.0000       9.120207       248.1735 
 431   0.0000       9.131279       248.4747 
 432   0.0000       9.177842       249.7418 
 433   0.0000       9.182908       249.8796 
 434   0.0000       9.238611       251.3954 
 435   0.0000       9.276281       252.4204 
 436   0.0000       9.284758       252.6511 
 437   0.0000       9.296629       252.9741 
 438   0.0000       9.322289       253.6724 
 439   0.0000       9.426329       256.5034 
 440   0.0000       9.594162       261.0704 
 441   0.0000       9.597131       261.1512 
 442   0.0000       9.609860       261.4976 
 443   0.0000       9.697530       263.8832 
 444   0.0000       9.747516       265.2434 
 445   0.0000       9.777416       266.0570 
 446   0.0000       9.927401       270.1383 
 447   0.0000       9.939630       270.4711 
 448   0.0000       9.950499       270.7668 
 449   0.0000       9.996292       272.0129 
 450   0.0000      10.129956       275.6501 
 451   0.0000      10.547364       287.0084 
 452   0.0000      10.604516       288.5636 
 453   0.0000      10.748687       292.4866 
 454   0.0000      10.831538       294.7411 
 455   0.0000      10.836102       294.8653 
 456   0.0000      10.888357       296.2873 
 457   0.0000      10.966946       298.4258 
 458   0.0000      11.047475       300.6171 
 459   0.0000      11.060105       300.9608 
 460   0.0000      11.111280       302.3533 
 461   0.0000      11.157564       303.6128 
 462   0.0000      11.191411       304.5338 
 463   0.0000      11.244643       305.9823 
 464   0.0000      11.270739       306.6924 
 465   0.0000      11.391021       309.9654 
 466   0.0000      11.474390       312.2340 
 467   0.0000      11.510587       313.2190 
 468   0.0000      11.549500       314.2779 
 469   0.0000      11.606930       315.8406 
 470   0.0000      11.615883       316.0843 
 471   0.0000      11.750535       319.7483 
 472   0.0000      11.916956       324.2769 
 473   0.0000      11.944263       325.0199 
 474   0.0000      11.947132       325.0980 
 475   0.0000      11.959810       325.4430 
 476   0.0000      11.990742       326.2847 
 477   0.0000      12.082525       328.7822 
 478   0.0000      12.119292       329.7827 
 479   0.0000      12.138185       330.2968 
 480   0.0000      12.178074       331.3822 
 481   0.0000      12.190638       331.7241 
 482   0.0000      12.246685       333.2493 
 483   0.0000      12.255469       333.4883 
 484   0.0000      12.318120       335.1931 
 485   0.0000      12.392155       337.2077 
 486   0.0000      12.399257       337.4009 
 487   0.0000      12.458898       339.0238 
 488   0.0000      12.515144       340.5544 
 489   0.0000      12.565967       341.9373 
 490   0.0000      12.584639       342.4454 
 491   0.0000      12.634697       343.8076 
 492   0.0000      12.670206       344.7738 
 493   0.0000      12.704920       345.7185 
 494   0.0000      12.705150       345.7247 
 495   0.0000      12.732789       346.4768 
 496   0.0000      12.777867       347.7034 
 497   0.0000      12.809963       348.5768 
 498   0.0000      12.864133       350.0509 
 499   0.0000      12.900687       351.0455 
 500   0.0000      12.943533       352.2114 
 501   0.0000      12.964198       352.7738 
 502   0.0000      13.000304       353.7563 
 503   0.0000      13.025658       354.4462 
 504   0.0000      13.058417       355.3376 
 505   0.0000      13.058612       355.3429 
 506   0.0000      13.146630       357.7380 
 507   0.0000      13.189926       358.9161 
 508   0.0000      13.284092       361.4785 
 509   0.0000      13.294107       361.7511 
 510   0.0000      13.435012       365.5853 
 511   0.0000      13.486426       366.9843 
 512   0.0000      13.490330       367.0905 
 513   0.0000      13.539177       368.4197 
 514   0.0000      13.564310       369.1036 
 515   0.0000      13.650536       371.4500 
 516   0.0000      13.762053       374.4845 
 517   0.0000      13.890824       377.9885 
 518   0.0000      13.898840       378.2067 
 519   0.0000      14.088720       383.3736 
 520   0.0000      14.093328       383.4989 
 521   0.0000      14.145137       384.9087 
 522   0.0000      14.173592       385.6831 
 523   0.0000      14.511153       394.8685 
 524   0.0000      14.533159       395.4674 
 525   0.0000      14.591955       397.0673 
 526   0.0000      14.608268       397.5112 
 527   0.0000      14.658250       398.8713 
 528   0.0000      14.832499       403.6128 
 529   0.0000      14.846181       403.9851 
 530   0.0000      14.908800       405.6891 
 531   0.0000      15.321080       416.9078 
 532   0.0000      15.481155       421.2636 
 533   0.0000      15.512440       422.1150 
 534   0.0000      15.683056       426.7576 
 535   0.0000      15.890558       432.4041 
 536   0.0000      15.936470       433.6534 
 537   0.0000      15.945262       433.8926 
 538   0.0000      16.154077       439.5748 
 539   0.0000      16.217541       441.3017 
 540   0.0000      16.262829       442.5341 
 541   0.0000      16.739058       455.4929 
 542   0.0000      16.757925       456.0063 
 543   0.0000      16.765893       456.2232 
 544   0.0000      16.781602       456.6506 
 545   0.0000      16.792107       456.9365 
 546   0.0000      16.801452       457.1908 
 547   0.0000      16.806589       457.3305 
 548   0.0000      16.823144       457.7810 
 549   0.0000      16.842552       458.3091 
 550   0.0000      17.190631       467.7808 
 551   0.0000      17.208445       468.2656 
 552   0.0000      17.240416       469.1356 
 553   0.0000      17.263807       469.7721 
 554   0.0000      17.378412       472.8906 
 555   0.0000      17.387642       473.1418 
 556   0.0000      17.392802       473.2822 
 557   0.0000      17.426746       474.2059 
 558   0.0000      17.444994       474.7024 
 559   0.0000      17.548368       477.5154 
 560   0.0000      17.601892       478.9718 
 561   0.0000      17.829636       485.1691 
 562   0.0000      17.935023       488.0368 
 563   0.0000      17.940821       488.1946 
 564   0.0000      18.112168       492.8571 
 565   0.0000      18.328696       498.7492 
 566   0.0000      18.411784       501.0101 
 567   0.0000      18.545155       504.6393 
 568   0.0000      18.567016       505.2342 
 569   0.0000      18.604659       506.2585 
 570   0.0000      18.698156       508.8027 
 571   0.0000      18.784685       511.1573 
 572   0.0000      18.854391       513.0541 
 573   0.0000      18.925692       514.9943 
 574   0.0000      19.063389       518.7412 
 575   0.0000      19.453817       529.3653 
 576   0.0000      19.750050       537.4262 
 577   0.0000      19.841854       539.9243 
 578   0.0000      19.898735       541.4721 
 579   0.0000      19.909401       541.7624 
 580   0.0000      19.949180       542.8448 
 581   0.0000      20.108424       547.1780 
 582   0.0000      20.119638       547.4832 
 583   0.0000      20.153250       548.3978 
 584   0.0000      20.748499       564.5954 
 585   0.0000      20.750340       564.6455 
 586   0.0000      20.984340       571.0129 
 587   0.0000      21.093099       573.9724 
 588   0.0000      21.109808       574.4271 
 589   0.0000      21.327989       580.3641 
 590   0.0000      21.627461       588.5131 
 591   0.0000      21.694648       590.3414 
 592   0.0000      21.810517       593.4943 
 593   0.0000      23.423700       637.3913 
 594   0.0000      23.518891       639.9816 
 595   0.0000      23.632674       643.0778 
 596   0.0000      23.693209       644.7250 
 597   0.0000      23.708070       645.1294 
 598   0.0000      23.811274       647.9377 
 599   0.0000      23.965677       652.1392 
 600   0.0000      24.024185       653.7313 
 601   0.0000      24.060978       654.7325 
 602   0.0000      24.096896       655.7099 
 603   0.0000      24.108091       656.0145 
 604   0.0000      24.998420       680.2416 
 605   0.0000      25.607571       696.8174 
 606   0.0000      25.649757       697.9654 
 607   0.0000      25.653915       698.0785 
 608   0.0000      27.109598       737.6897 
 609   0.0000      27.297213       742.7949 
 610   0.0000      31.063871       845.2909 
 611   0.0000      32.337934       879.9599 
 612   0.0000      32.623402       887.7279 
 613   0.0000      32.655399       888.5986 
 614   0.0000      33.193315       903.2360 
 615   0.0000      33.964621       924.2243 
 616   0.0000      34.001559       925.2295 
 617   0.0000      34.237934       931.6615 
 618   0.0000      34.752100       945.6527 
 619   0.0000      41.235817      1122.0836 
 620   0.0000      41.255433      1122.6174 
 621   0.0000      41.647697      1133.2914 
 622   0.0000      41.744977      1135.9386 
 623   0.0000      66.908005      1820.6594 
 624   0.0000      67.047002      1824.4417 
 625   0.0000      67.056900      1824.7110 
 626   0.0000      67.683676      1841.7665 
 627   0.0000      68.963191      1876.5838 
 628   0.0000      78.511448      2136.4051 
 629   0.0000      91.012641      2476.5799 
 630   0.0000      91.076440      2478.3159 
 631   0.0000      91.151954      2480.3708 
 632   0.0000      91.194690      2481.5337 
 633   0.0000      91.306845      2484.5856 
 634   0.0000      91.370686      2486.3228 
 635   0.0000      91.455773      2488.6381 
 636   0.0000      91.468364      2488.9807 
 637   0.0000      92.433601      2515.2462 
 638   0.0000      92.488925      2516.7516 
 639   0.0000      92.496678      2516.9626 
 640   0.0000      93.620063      2547.5314 
 641   0.0000     144.419187      3929.8459 

                 SPIN DOWN ORBITALS
  NO   OCC          E(Eh)            E(eV) 
   0   1.0000     -18.750376      -510.2237 
   1   1.0000      -9.924758      -270.0664 
   2   1.0000      -0.934153       -25.4196 
   3   1.0000      -0.619715       -16.8633 
   4   1.0000      -0.458807       -12.4848 
   5   1.0000      -0.391879       -10.6636 
   6   1.0000      -0.383908       -10.4467 
   7   1.0000      -0.292760        -7.9664 
   8   1.0000      -0.230145        -6.2626 
   9   0.0000      -0.024984        -0.6799 
  10   0.0000      -0.003839        -0.1045 
  11   0.0000       0.013134         0.3574 
  12   0.0000       0.013946         0.3795 
  13   0.0000       0.028673         0.7802 
  14   0.0000       0.034131         0.9287 
  15   0.0000       0.036783         1.0009 
  16   0.0000       0.037919         1.0318 
  17   0.0000       0.043290         1.1780 
  18   0.0000       0.047337         1.2881 
  19   0.0000       0.050488         1.3739 
  20   0.0000       0.062247         1.6938 
  21   0.0000       0.069249         1.8844 
  22   0.0000       0.074664         2.0317 
  23   0.0000       0.078189         2.1276 
  24   0.0000       0.082972         2.2578 
  25   0.0000       0.092189         2.5086 
  26   0.0000       0.104275         2.8375 
  27   0.0000       0.106675         2.9028 
  28   0.0000       0.109273         2.9735 
  29   0.0000       0.112487         3.0609 
  30   0.0000       0.119998         3.2653 
  31   0.0000       0.121290         3.3005 
  32   0.0000       0.122401         3.3307 
  33   0.0000       0.133250         3.6259 
  34   0.0000       0.134371         3.6564 
  35   0.0000       0.138161         3.7596 
  36   0.0000       0.149274         4.0620 
  37   0.0000       0.157370         4.2823 
  38   0.0000       0.162178         4.4131 
  39   0.0000       0.162505         4.4220 
  40   0.0000       0.163902         4.4600 
  41   0.0000       0.165830         4.5125 
  42   0.0000       0.172932         4.7057 
  43   0.0000       0.174286         4.7426 
  44   0.0000       0.181407         4.9363 
  45   0.0000       0.191469         5.2101 
  46   0.0000       0.197986         5.3875 
  47   0.0000       0.204676         5.5695 
  48   0.0000       0.207199         5.6382 
  49   0.0000       0.211305         5.7499 
  50   0.0000       0.219627         5.9764 
  51   0.0000       0.229417         6.2428 
  52   0.0000       0.231361         6.2957 
  53   0.0000       0.235153         6.3988 
  54   0.0000       0.241925         6.5831 
  55   0.0000       0.243721         6.6320 
  56   0.0000       0.250807         6.8248 
  57   0.0000       0.262373         7.1395 
  58   0.0000       0.269008         7.3201 
  59   0.0000       0.270243         7.3537 
  60   0.0000       0.274370         7.4660 
  61   0.0000       0.274384         7.4664 
  62   0.0000       0.279107         7.5949 
  63   0.0000       0.282949         7.6994 
  64   0.0000       0.286355         7.7921 
  65   0.0000       0.289149         7.8681 
  66   0.0000       0.289923         7.8892 
  67   0.0000       0.293082         7.9752 
  68   0.0000       0.306732         8.3466 
  69   0.0000       0.308542         8.3959 
  70   0.0000       0.315400         8.5825 
  71   0.0000       0.316678         8.6173 
  72   0.0000       0.322377         8.7723 
  73   0.0000       0.322591         8.7782 
  74   0.0000       0.327722         8.9178 
  75   0.0000       0.333468         9.0741 
  76   0.0000       0.334082         9.0908 
  77   0.0000       0.339639         9.2420 
  78   0.0000       0.345718         9.4075 
  79   0.0000       0.358843         9.7646 
  80   0.0000       0.363674         9.8961 
  81   0.0000       0.364889         9.9291 
  82   0.0000       0.379949        10.3389 
  83   0.0000       0.380148        10.3443 
  84   0.0000       0.385869        10.5000 
  85   0.0000       0.403657        10.9841 
  86   0.0000       0.403887        10.9903 
  87   0.0000       0.414412        11.2767 
  88   0.0000       0.425898        11.5893 
  89   0.0000       0.432530        11.7697 
  90   0.0000       0.433619        11.7994 
  91   0.0000       0.434986        11.8366 
  92   0.0000       0.438988        11.9455 
  93   0.0000       0.440572        11.9886 
  94   0.0000       0.452634        12.3168 
  95   0.0000       0.454252        12.3608 
  96   0.0000       0.456407        12.4195 
  97   0.0000       0.460725        12.5370 
  98   0.0000       0.461020        12.5450 
  99   0.0000       0.462659        12.5896 
 100   0.0000       0.472387        12.8543 
 101   0.0000       0.474964        12.9244 
 102   0.0000       0.482969        13.1423 
 103   0.0000       0.484861        13.1937 
 104   0.0000       0.485218        13.2035 
 105   0.0000       0.491637        13.3781 
 106   0.0000       0.493021        13.4158 
 107   0.0000       0.498619        13.5681 
 108   0.0000       0.509037        13.8516 
 109   0.0000       0.514684        14.0053 
 110   0.0000       0.520294        14.1579 
 111   0.0000       0.522585        14.2203 
 112   0.0000       0.533221        14.5097 
 113   0.0000       0.534272        14.5383 
 114   0.0000       0.541421        14.7328 
 115   0.0000       0.543926        14.8010 
 116   0.0000       0.545196        14.8355 
 117   0.0000       0.545659        14.8481 
 118   0.0000       0.558214        15.1898 
 119   0.0000       0.562277        15.3003 
 120   0.0000       0.564031        15.3481 
 121   0.0000       0.573335        15.6012 
 122   0.0000       0.577764        15.7218 
 123   0.0000       0.583332        15.8733 
 124   0.0000       0.588739        16.0204 
 125   0.0000       0.589928        16.0528 
 126   0.0000       0.597354        16.2548 
 127   0.0000       0.600665        16.3449 
 128   0.0000       0.609240        16.5783 
 129   0.0000       0.615926        16.7602 
 130   0.0000       0.620122        16.8744 
 131   0.0000       0.628322        17.0975 
 132   0.0000       0.628914        17.1136 
 133   0.0000       0.634650        17.2697 
 134   0.0000       0.641703        17.4616 
 135   0.0000       0.641945        17.4682 
 136   0.0000       0.649396        17.6710 
 137   0.0000       0.670477        18.2446 
 138   0.0000       0.674927        18.3657 
 139   0.0000       0.685548        18.6547 
 140   0.0000       0.694422        18.8962 
 141   0.0000       0.695638        18.9293 
 142   0.0000       0.697752        18.9868 
 143   0.0000       0.708041        19.2668 
 144   0.0000       0.720570        19.6077 
 145   0.0000       0.731263        19.8987 
 146   0.0000       0.734575        19.9888 
 147   0.0000       0.739458        20.1217 
 148   0.0000       0.742131        20.1944 
 149   0.0000       0.749364        20.3912 
 150   0.0000       0.768312        20.9068 
 151   0.0000       0.771632        20.9972 
 152   0.0000       0.793814        21.6008 
 153   0.0000       0.795527        21.6474 
 154   0.0000       0.796925        21.6854 
 155   0.0000       0.798781        21.7359 
 156   0.0000       0.807316        21.9682 
 157   0.0000       0.808347        21.9962 
 158   0.0000       0.817957        22.2578 
 159   0.0000       0.822129        22.3713 
 160   0.0000       0.837645        22.7935 
 161   0.0000       0.840389        22.8681 
 162   0.0000       0.841824        22.9072 
 163   0.0000       0.847267        23.0553 
 164   0.0000       0.850519        23.1438 
 165   0.0000       0.855201        23.2712 
 166   0.0000       0.856530        23.3074 
 167   0.0000       0.863004        23.4835 
 168   0.0000       0.864147        23.5146 
 169   0.0000       0.870948        23.6997 
 170   0.0000       0.873434        23.7673 
 171   0.0000       0.874193        23.7880 
 172   0.0000       0.877837        23.8872 
 173   0.0000       0.883388        24.0382 
 174   0.0000       0.884578        24.0706 
 175   0.0000       0.886514        24.1233 
 176   0.0000       0.894902        24.3515 
 177   0.0000       0.901671        24.5357 
 178   0.0000       0.907700        24.6998 
 179   0.0000       0.908057        24.7095 
 180   0.0000       0.912012        24.8171 
 181   0.0000       0.913326        24.8529 
 182   0.0000       0.924700        25.1624 
 183   0.0000       0.927583        25.2408 
 184   0.0000       0.929307        25.2877 
 185   0.0000       0.930736        25.3266 
 186   0.0000       0.943849        25.6834 
 187   0.0000       0.947051        25.7706 
 188   0.0000       0.952510        25.9191 
 189   0.0000       0.956045        26.0153 
 190   0.0000       0.963633        26.2218 
 191   0.0000       0.971338        26.4314 
 192   0.0000       0.976408        26.5694 
 193   0.0000       0.986124        26.8338 
 194   0.0000       0.988506        26.8986 
 195   0.0000       0.993431        27.0326 
 196   0.0000       0.999296        27.1922 
 197   0.0000       1.000131        27.2149 
 198   0.0000       1.010601        27.4999 
 199   0.0000       1.016255        27.6537 
 200   0.0000       1.016988        27.6736 
 201   0.0000       1.033266        28.1166 
 202   0.0000       1.035063        28.1655 
 203   0.0000       1.043420        28.3929 
 204   0.0000       1.043976        28.4080 
 205   0.0000       1.053577        28.6693 
 206   0.0000       1.065435        28.9920 
 207   0.0000       1.077757        29.3273 
 208   0.0000       1.086574        29.5672 
 209   0.0000       1.092623        29.7318 
 210   0.0000       1.101572        29.9753 
 211   0.0000       1.109232        30.1837 
 212   0.0000       1.142719        31.0950 
 213   0.0000       1.153426        31.3863 
 214   0.0000       1.156307        31.4647 
 215   0.0000       1.184758        32.2389 
 216   0.0000       1.190528        32.3959 
 217   0.0000       1.194749        32.5108 
 218   0.0000       1.201836        32.7036 
 219   0.0000       1.213177        33.0122 
 220   0.0000       1.228273        33.4230 
 221   0.0000       1.254964        34.1493 
 222   0.0000       1.258757        34.2525 
 223   0.0000       1.268783        34.5253 
 224   0.0000       1.273609        34.6567 
 225   0.0000       1.274940        34.6929 
 226   0.0000       1.296678        35.2844 
 227   0.0000       1.304715        35.5031 
 228   0.0000       1.329135        36.1676 
 229   0.0000       1.346891        36.6508 
 230   0.0000       1.349624        36.7251 
 231   0.0000       1.357910        36.9506 
 232   0.0000       1.387056        37.7437 
 233   0.0000       1.399870        38.0924 
 234   0.0000       1.409236        38.3473 
 235   0.0000       1.441875        39.2354 
 236   0.0000       1.522129        41.4192 
 237   0.0000       1.526080        41.5267 
 238   0.0000       1.558281        42.4030 
 239   0.0000       1.572327        42.7852 
 240   0.0000       1.580177        42.9988 
 241   0.0000       1.597816        43.4788 
 242   0.0000       1.606321        43.7102 
 243   0.0000       1.609091        43.7856 
 244   0.0000       1.619458        44.0677 
 245   0.0000       1.632218        44.4149 
 246   0.0000       1.641455        44.6663 
 247   0.0000       1.648411        44.8555 
 248   0.0000       1.662407        45.2364 
 249   0.0000       1.688393        45.9435 
 250   0.0000       1.695142        46.1272 
 251   0.0000       1.702912        46.3386 
 252   0.0000       1.709601        46.5206 
 253   0.0000       1.751545        47.6620 
 254   0.0000       1.759121        47.8681 
 255   0.0000       1.781353        48.4731 
 256   0.0000       1.788303        48.6622 
 257   0.0000       1.828863        49.7659 
 258   0.0000       1.839566        50.0571 
 259   0.0000       1.850265        50.3483 
 260   0.0000       1.878292        51.1109 
 261   0.0000       1.885701        51.3125 
 262   0.0000       1.906948        51.8907 
 263   0.0000       1.907295        51.9001 
 264   0.0000       1.954706        53.1903 
 265   0.0000       1.958234        53.2863 
 266   0.0000       1.979897        53.8757 
 267   0.0000       2.003464        54.5170 
 268   0.0000       2.026712        55.1496 
 269   0.0000       2.044523        55.6343 
 270   0.0000       2.055045        55.9206 
 271   0.0000       2.113587        57.5136 
 272   0.0000       2.160934        58.8020 
 273   0.0000       2.178073        59.2684 
 274   0.0000       2.217086        60.3300 
 275   0.0000       2.221570        60.4520 
 276   0.0000       2.245495        61.1030 
 277   0.0000       2.300648        62.6038 
 278   0.0000       2.304819        62.7173 
 279   0.0000       2.326133        63.2973 
 280   0.0000       2.335121        63.5419 
 281   0.0000       2.366099        64.3848 
 282   0.0000       2.399918        65.3051 
 283   0.0000       2.414222        65.6943 
 284   0.0000       2.440632        66.4130 
 285   0.0000       2.458102        66.8883 
 286   0.0000       2.501757        68.0763 
 287   0.0000       2.516705        68.4830 
 288   0.0000       2.568403        69.8898 
 289   0.0000       2.628647        71.5291 
 290   0.0000       2.657252        72.3075 
 291   0.0000       2.673670        72.7542 
 292   0.0000       2.716421        73.9176 
 293   0.0000       2.727565        74.2208 
 294   0.0000       2.771946        75.4285 
 295   0.0000       2.772431        75.4417 
 296   0.0000       2.823876        76.8416 
 297   0.0000       2.868611        78.0589 
 298   0.0000       2.901514        78.9542 
 299   0.0000       2.967572        80.7517 
 300   0.0000       3.012412        81.9719 
 301   0.0000       3.105515        84.5054 
 302   0.0000       3.142412        85.5094 
 303   0.0000       3.178883        86.5018 
 304   0.0000       3.204688        87.2040 
 305   0.0000       3.239853        88.1609 
 306   0.0000       3.282416        89.3191 
 307   0.0000       3.317903        90.2847 
 308   0.0000       3.335463        90.7626 
 309   0.0000       3.343944        90.9933 
 310   0.0000       3.434646        93.4615 
 311   0.0000       3.436189        93.5035 
 312   0.0000       3.484294        94.8125 
 313   0.0000       3.525567        95.9355 
 314   0.0000       3.548816        96.5682 
 315   0.0000       3.582494        97.4846 
 316   0.0000       3.607643        98.1690 
 317   0.0000       3.650462        99.3341 
 318   0.0000       3.660467        99.6064 
 319   0.0000       3.676149       100.0331 
 320   0.0000       3.720502       101.2400 
 321   0.0000       3.758663       102.2784 
 322   0.0000       3.771887       102.6383 
 323   0.0000       3.780383       102.8694 
 324   0.0000       3.811357       103.7123 
 325   0.0000       3.835974       104.3822 
 326   0.0000       3.857082       104.9565 
 327   0.0000       3.884039       105.6901 
 328   0.0000       3.893329       105.9429 
 329   0.0000       3.921668       106.7140 
 330   0.0000       3.933402       107.0333 
 331   0.0000       3.979200       108.2795 
 332   0.0000       4.018831       109.3579 
 333   0.0000       4.063830       110.5824 
 334   0.0000       4.065175       110.6190 
 335   0.0000       4.118329       112.0654 
 336   0.0000       4.147150       112.8497 
 337   0.0000       4.181336       113.7799 
 338   0.0000       4.187639       113.9515 
 339   0.0000       4.211816       114.6093 
 340   0.0000       4.243604       115.4743 
 341   0.0000       4.276985       116.3827 
 342   0.0000       4.335080       117.9635 
 343   0.0000       4.341661       118.1426 
 344   0.0000       4.377963       119.1304 
 345   0.0000       4.380842       119.2088 
 346   0.0000       4.409932       120.0003 
 347   0.0000       4.458995       121.3354 
 348   0.0000       4.464458       121.4841 
 349   0.0000       4.487730       122.1173 
 350   0.0000       4.593179       124.9868 
 351   0.0000       4.615782       125.6018 
 352   0.0000       4.697702       127.8310 
 353   0.0000       4.699130       127.8698 
 354   0.0000       4.708350       128.1207 
 355   0.0000       4.738270       128.9349 
 356   0.0000       4.765204       129.6678 
 357   0.0000       4.810184       130.8918 
 358   0.0000       4.825965       131.3212 
 359   0.0000       4.854320       132.0928 
 360   0.0000       4.876324       132.6915 
 361   0.0000       4.914043       133.7179 
 362   0.0000       4.937402       134.3536 
 363   0.0000       4.990408       135.7959 
 364   0.0000       5.085565       138.3853 
 365   0.0000       5.111189       139.0825 
 366   0.0000       5.144864       139.9989 
 367   0.0000       5.225849       142.2026 
 368   0.0000       5.230524       142.3298 
 369   0.0000       5.259437       143.1165 
 370   0.0000       5.315208       144.6342 
 371   0.0000       5.319187       144.7424 
 372   0.0000       5.380348       146.4067 
 373   0.0000       5.381890       146.4487 
 374   0.0000       5.460329       148.5831 
 375   0.0000       5.481695       149.1645 
 376   0.0000       5.496903       149.5783 
 377   0.0000       5.530105       150.4818 
 378   0.0000       5.540959       150.7772 
 379   0.0000       5.661405       154.0547 
 380   0.0000       5.679849       154.5565 
 381   0.0000       5.740683       156.2119 
 382   0.0000       5.751771       156.5136 
 383   0.0000       5.783616       157.3802 
 384   0.0000       5.836088       158.8080 
 385   0.0000       5.895564       160.4265 
 386   0.0000       5.977779       162.6636 
 387   0.0000       5.986239       162.8939 
 388   0.0000       6.038771       164.3233 
 389   0.0000       6.136185       166.9741 
 390   0.0000       6.245092       169.9376 
 391   0.0000       6.272245       170.6765 
 392   0.0000       6.298378       171.3876 
 393   0.0000       6.327372       172.1765 
 394   0.0000       6.332847       172.3255 
 395   0.0000       6.443563       175.3383 
 396   0.0000       6.450593       175.5296 
 397   0.0000       6.612107       179.9246 
 398   0.0000       6.713573       182.6856 
 399   0.0000       6.768128       184.1701 
 400   0.0000       6.787082       184.6859 
 401   0.0000       6.845246       186.2686 
 402   0.0000       6.874869       187.0747 
 403   0.0000       6.900192       187.7638 
 404   0.0000       6.946456       189.0227 
 405   0.0000       6.957722       189.3292 
 406   0.0000       7.020972       191.0504 
 407   0.0000       7.041747       191.6157 
 408   0.0000       7.090002       192.9288 
 409   0.0000       7.470793       203.2906 
 410   0.0000       7.537317       205.1008 
 411   0.0000       7.617798       207.2908 
 412   0.0000       7.674049       208.8215 
 413   0.0000       7.686795       209.1683 
 414   0.0000       7.827498       212.9970 
 415   0.0000       7.851584       213.6525 
 416   0.0000       7.910778       215.2632 
 417   0.0000       7.987381       217.3477 
 418   0.0000       8.032018       218.5623 
 419   0.0000       8.093864       220.2452 
 420   0.0000       8.505778       231.4540 
 421   0.0000       8.517615       231.7761 
 422   0.0000       8.551862       232.7080 
 423   0.0000       8.764829       238.5031 
 424   0.0000       8.817941       239.9484 
 425   0.0000       8.994613       244.7559 
 426   0.0000       9.001438       244.9416 
 427   0.0000       9.020835       245.4694 
 428   0.0000       9.052641       246.3349 
 429   0.0000       9.086155       247.2469 
 430   0.0000       9.120207       248.1735 
 431   0.0000       9.131279       248.4747 
 432   0.0000       9.177842       249.7418 
 433   0.0000       9.182908       249.8796 
 434   0.0000       9.238611       251.3954 
 435   0.0000       9.276281       252.4204 
 436   0.0000       9.284758       252.6511 
 437   0.0000       9.296629       252.9741 
 438   0.0000       9.322289       253.6724 
 439   0.0000       9.426329       256.5034 
 440   0.0000       9.594162       261.0704 
 441   0.0000       9.597131       261.1512 
 442   0.0000       9.609860       261.4976 
 443   0.0000       9.697530       263.8832 
 444   0.0000       9.747516       265.2434 
 445   0.0000       9.777416       266.0570 
 446   0.0000       9.927401       270.1383 
 447   0.0000       9.939630       270.4711 
 448   0.0000       9.950499       270.7668 
 449   0.0000       9.996292       272.0129 
 450   0.0000      10.129956       275.6501 
 451   0.0000      10.547364       287.0084 
 452   0.0000      10.604516       288.5636 
 453   0.0000      10.748687       292.4866 
 454   0.0000      10.831538       294.7411 
 455   0.0000      10.836102       294.8653 
 456   0.0000      10.888357       296.2873 
 457   0.0000      10.966946       298.4258 
 458   0.0000      11.047475       300.6171 
 459   0.0000      11.060105       300.9608 
 460   0.0000      11.111280       302.3533 
 461   0.0000      11.157564       303.6128 
 462   0.0000      11.191411       304.5338 
 463   0.0000      11.244643       305.9823 
 464   0.0000      11.270739       306.6924 
 465   0.0000      11.391021       309.9654 
 466   0.0000      11.474390       312.2340 
 467   0.0000      11.510587       313.2190 
 468   0.0000      11.549500       314.2779 
 469   0.0000      11.606930       315.8406 
 470   0.0000      11.615883       316.0843 
 471   0.0000      11.750535       319.7483 
 472   0.0000      11.916956       324.2769 
 473   0.0000      11.944263       325.0199 
 474   0.0000      11.947132       325.0980 
 475   0.0000      11.959810       325.4430 
 476   0.0000      11.990742       326.2847 
 477   0.0000      12.082525       328.7822 
 478   0.0000      12.119292       329.7827 
 479   0.0000      12.138185       330.2968 
 480   0.0000      12.178074       331.3822 
 481   0.0000      12.190638       331.7241 
 482   0.0000      12.246685       333.2493 
 483   0.0000      12.255469       333.4883 
 484   0.0000      12.318120       335.1931 
 485   0.0000      12.392155       337.2077 
 486   0.0000      12.399257       337.4009 
 487   0.0000      12.458898       339.0238 
 488   0.0000      12.515144       340.5544 
 489   0.0000      12.565967       341.9373 
 490   0.0000      12.584639       342.4454 
 491   0.0000      12.634697       343.8076 
 492   0.0000      12.670206       344.7738 
 493   0.0000      12.704920       345.7185 
 494   0.0000      12.705150       345.7247 
 495   0.0000      12.732789       346.4768 
 496   0.0000      12.777867       347.7034 
 497   0.0000      12.809963       348.5768 
 498   0.0000      12.864133       350.0509 
 499   0.0000      12.900687       351.0455 
 500   0.0000      12.943533       352.2114 
 501   0.0000      12.964198       352.7738 
 502   0.0000      13.000304       353.7563 
 503   0.0000      13.025658       354.4462 
 504   0.0000      13.058417       355.3376 
 505   0.0000      13.058612       355.3429 
 506   0.0000      13.146630       357.7380 
 507   0.0000      13.189926       358.9161 
 508   0.0000      13.284092       361.4785 
 509   0.0000      13.294107       361.7511 
 510   0.0000      13.435012       365.5853 
 511   0.0000      13.486426       366.9843 
 512   0.0000      13.490330       367.0905 
 513   0.0000      13.539177       368.4197 
 514   0.0000      13.564310       369.1036 
 515   0.0000      13.650536       371.4500 
 516   0.0000      13.762053       374.4845 
 517   0.0000      13.890824       377.9885 
 518   0.0000      13.898840       378.2067 
 519   0.0000      14.088720       383.3736 
 520   0.0000      14.093328       383.4989 
 521   0.0000      14.145137       384.9087 
 522   0.0000      14.173592       385.6831 
 523   0.0000      14.511153       394.8685 
 524   0.0000      14.533159       395.4674 
 525   0.0000      14.591955       397.0673 
 526   0.0000      14.608268       397.5112 
 527   0.0000      14.658250       398.8713 
 528   0.0000      14.832499       403.6128 
 529   0.0000      14.846181       403.9851 
 530   0.0000      14.908800       405.6891 
 531   0.0000      15.321080       416.9078 
 532   0.0000      15.481155       421.2636 
 533   0.0000      15.512440       422.1150 
 534   0.0000      15.683056       426.7576 
 535   0.0000      15.890558       432.4041 
 536   0.0000      15.936470       433.6534 
 537   0.0000      15.945262       433.8926 
 538   0.0000      16.154077       439.5748 
 539   0.0000      16.217541       441.3017 
 540   0.0000      16.262829       442.5341 
 541   0.0000      16.739058       455.4929 
 542   0.0000      16.757925       456.0063 
 543   0.0000      16.765893       456.2232 
 544   0.0000      16.781602       456.6506 
 545   0.0000      16.792107       456.9365 
 546   0.0000      16.801452       457.1908 
 547   0.0000      16.806589       457.3305 
 548   0.0000      16.823144       457.7810 
 549   0.0000      16.842552       458.3091 
 550   0.0000      17.190631       467.7808 
 551   0.0000      17.208445       468.2656 
 552   0.0000      17.240416       469.1356 
 553   0.0000      17.263807       469.7721 
 554   0.0000      17.378412       472.8906 
 555   0.0000      17.387642       473.1418 
 556   0.0000      17.392802       473.2822 
 557   0.0000      17.426746       474.2059 
 558   0.0000      17.444994       474.7024 
 559   0.0000      17.548368       477.5154 
 560   0.0000      17.601892       478.9718 
 561   0.0000      17.829636       485.1691 
 562   0.0000      17.935023       488.0368 
 563   0.0000      17.940821       488.1946 
 564   0.0000      18.112168       492.8571 
 565   0.0000      18.328696       498.7492 
 566   0.0000      18.411784       501.0101 
 567   0.0000      18.545155       504.6393 
 568   0.0000      18.567016       505.2342 
 569   0.0000      18.604659       506.2585 
 570   0.0000      18.698156       508.8027 
 571   0.0000      18.784685       511.1573 
 572   0.0000      18.854391       513.0541 
 573   0.0000      18.925692       514.9943 
 574   0.0000      19.063389       518.7412 
 575   0.0000      19.453817       529.3653 
 576   0.0000      19.750050       537.4262 
 577   0.0000      19.841854       539.9243 
 578   0.0000      19.898735       541.4721 
 579   0.0000      19.909401       541.7624 
 580   0.0000      19.949180       542.8448 
 581   0.0000      20.108424       547.1780 
 582   0.0000      20.119638       547.4832 
 583   0.0000      20.153250       548.3978 
 584   0.0000      20.748499       564.5954 
 585   0.0000      20.750340       564.6455 
 586   0.0000      20.984340       571.0129 
 587   0.0000      21.093099       573.9724 
 588   0.0000      21.109808       574.4271 
 589   0.0000      21.327989       580.3641 
 590   0.0000      21.627461       588.5131 
 591   0.0000      21.694648       590.3414 
 592   0.0000      21.810517       593.4943 
 593   0.0000      23.423700       637.3913 
 594   0.0000      23.518891       639.9816 
 595   0.0000      23.632674       643.0778 
 596   0.0000      23.693209       644.7250 
 597   0.0000      23.708070       645.1294 
 598   0.0000      23.811274       647.9377 
 599   0.0000      23.965677       652.1392 
 600   0.0000      24.024185       653.7313 
 601   0.0000      24.060978       654.7325 
 602   0.0000      24.096896       655.7099 
 603   0.0000      24.108091       656.0145 
 604   0.0000      24.998420       680.2416 
 605   0.0000      25.607571       696.8174 
 606   0.0000      25.649757       697.9654 
 607   0.0000      25.653915       698.0785 
 608   0.0000      27.109598       737.6897 
 609   0.0000      27.297213       742.7949 
 610   0.0000      31.063871       845.2909 
 611   0.0000      32.337934       879.9599 
 612   0.0000      32.623402       887.7279 
 613   0.0000      32.655399       888.5986 
 614   0.0000      33.193315       903.2360 
 615   0.0000      33.964621       924.2243 
 616   0.0000      34.001559       925.2295 
 617   0.0000      34.237934       931.6615 
 618   0.0000      34.752100       945.6527 
 619   0.0000      41.235817      1122.0836 
 620   0.0000      41.255433      1122.6174 
 621   0.0000      41.647697      1133.2914 
 622   0.0000      41.744977      1135.9386 
 623   0.0000      66.908005      1820.6594 
 624   0.0000      67.047002      1824.4417 
 625   0.0000      67.056900      1824.7110 
 626   0.0000      67.683676      1841.7665 
 627   0.0000      68.963191      1876.5838 
 628   0.0000      78.511448      2136.4051 
 629   0.0000      91.012641      2476.5799 
 630   0.0000      91.076440      2478.3159 
 631   0.0000      91.151954      2480.3708 
 632   0.0000      91.194690      2481.5337 
 633   0.0000      91.306845      2484.5856 
 634   0.0000      91.370686      2486.3228 
 635   0.0000      91.455773      2488.6381 
 636   0.0000      91.468364      2488.9807 
 637   0.0000      92.433601      2515.2462 
 638   0.0000      92.488925      2516.7516 
 639   0.0000      92.496678      2516.9626 
 640   0.0000      93.620063      2547.5314 
 641   0.0000     144.419187      3929.8459 

                    ********************************
                    * MULLIKEN POPULATION ANALYSIS *
                    ********************************

--------------------------------------------
MULLIKEN ATOMIC CHARGES AND SPIN POPULATIONS
--------------------------------------------
   0 C :    0.315621   -0.000000
   1 O :   -0.395369   -0.000000
   2 H :   -0.108861    0.000000
   3 H :    0.020456   -0.000000
   4 H :    0.020478    0.000000
   5 H :    0.147675    0.000000
Sum of atomic charges         :   -0.0000000
Sum of atomic spin populations:   -0.0000000

-----------------------------------------------------
MULLIKEN REDUCED ORBITAL CHARGES AND SPIN POPULATIONS
-----------------------------------------------------
CHARGE
  0 C s       :     2.873639  s :     2.873639
      pz      :     1.036483  p :     2.673269
      px      :     0.974828
      py      :     0.661958
      dz2     :     0.011599  d :     0.118252
      dxz     :     0.018457
      dyz     :     0.034731
      dx2y2   :     0.020760
      dxy     :     0.032706
      f0      :     0.003118  f :     0.017030
      f+1     :     0.001741
      f-1     :     0.000512
      f+2     :     0.001441
      f-2     :     0.000203
      f+3     :     0.006339
      f-3     :     0.003676
      g0      :     0.000132  g :     0.001724
      g+1     :    -0.000016
      g-1     :     0.000452
      g+2     :    -0.000144
      g-2     :     0.000340
      g+3     :    -0.000049
[...]
      f+1     :     0.000000
      f-1     :     0.000000
      f+2     :    -0.000000
      f-2     :    -0.000000
      f+3     :    -0.000000
      f-3     :    -0.000000
      g0      :     0.000000  g :    -0.000000
      g+1     :    -0.000000
      g-1     :    -0.000000
      g+2     :     0.000000
      g-2     :     0.000000
      g+3     :    -0.000000
      g-3     :    -0.000000
      g+4     :     0.000000
      g-4     :    -0.000000


                     *******************************
                     * LOEWDIN POPULATION ANALYSIS *
                     *******************************

-------------------------------------------
LOEWDIN ATOMIC CHARGES AND SPIN POPULATIONS
-------------------------------------------
   0 C :    0.811695   -0.000000
   1 O :    0.972904   -0.000000
   2 H :   -0.321382   -0.000000
   3 H :   -0.333721   -0.000000
   4 H :   -0.333721    0.000000
   5 H :   -0.795776    0.000000

----------------------------------------------------
LOEWDIN REDUCED ORBITAL CHARGES AND SPIN POPULATIONS
----------------------------------------------------
CHARGE
  0 C s       :     2.416126  s :     2.416126
      pz      :     0.708054  p :     1.999558
      px      :     0.716567
      py      :     0.574937
      dz2     :     0.072868  d :     0.535439
      dxz     :     0.043477
      dyz     :     0.152463
      dx2y2   :     0.138536
      dxy     :     0.128095
      f0      :     0.021657  f :     0.185026
      f+1     :     0.011767
      f-1     :     0.025083
      f+2     :     0.035962
      f-2     :     0.007182
      f+3     :     0.050172
      f-3     :     0.033203
      g0      :     0.002179  g :     0.040173
      g+1     :     0.000441
      g-1     :     0.007213
      g+2     :     0.004214
      g-2     :     0.002752
      g+3     :     0.000098
      g-3     :     0.005212
      g+4     :     0.007045
      g-4     :     0.011017
      h0      :     0.000909  h :     0.011982
      h+1     :     0.000295
      h-1     :     0.001023
      h+2     :     0.001423
      h-2     :     0.000311
      h+3     :     0.001443
      h-3     :     0.001125
      h+4     :     0.000666
      h-4     :     0.000314
      h+5     :     0.003082
      h-5     :     0.001393
  1 O s       :     2.866765  s :     2.866765
      pz      :     1.311167  p :     3.600157
      px      :     1.192837
      py      :     1.096154
      dz2     :     0.027691  d :     0.296821
      dxz     :     0.002344
      dyz     :     0.083754
      dx2y2   :     0.083497
      dxy     :     0.099535
      f0      :     0.020574  f :     0.150170
      f+1     :     0.004526
      f-1     :     0.011412
      f+2     :     0.034566
      f-2     :     0.003576
      f+3     :     0.056536
      f-3     :     0.018980
      g0      :     0.003092  g :     0.079377
      g+1     :     0.000414
      g-1     :     0.017441
      g+2     :     0.002975
      g-2     :     0.005076
      g+3     :     0.004657
      g-3     :     0.013417
      g+4     :     0.005633
      g-4     :     0.026672
      h0      :     0.003138  h :     0.033805
      h+1     :     0.000457
      h-1     :     0.002945
      h+2     :     0.005781
      h-2     :     0.000184
      h+3     :     0.002759
      h-3     :     0.000616
      h+4     :     0.003475
      h-4     :     0.003256
      h+5     :     0.008770
      h-5     :     0.002425
  2 H s       :     0.600574  s :     0.600574
      pz      :     0.072560  p :     0.265793
      px      :     0.135642
      py      :     0.057590
      dz2     :     0.018599  d :     0.235017
      dxz     :     0.079355
      dyz     :     0.014572
      dx2y2   :     0.068307
      dxy     :     0.054184
      f0      :     0.014659  f :     0.131091
      f+1     :     0.006551
      f-1     :     0.009084
      f+2     :     0.024895
      f-2     :     0.013041
      f+3     :     0.034623
      f-3     :     0.028238
      g0      :     0.003826  g :     0.088907
      g+1     :     0.005471
      g-1     :     0.009683
      g+2     :     0.004408
      g-2     :     0.006825
      g+3     :     0.018308
      g-3     :     0.000687
      g+4     :     0.022070
      g-4     :     0.017629
  3 H s       :     0.599008  s :     0.599008
      pz      :     0.119812  p :     0.272407
      px      :     0.089092
      py      :     0.063503
      dz2     :     0.075269  d :     0.237548
      dxz     :     0.049341
      dyz     :     0.045555
      dx2y2   :     0.043343
      dxy     :     0.024040
      f0      :     0.030984  f :     0.134932
      f+1     :     0.007843
      f-1     :     0.021591
      f+2     :     0.026380
      f-2     :     0.015562
      f+3     :     0.020965
      f-3     :     0.011607
      g0      :     0.015561  g :     0.089826
      g+1     :     0.002306
      g-1     :     0.009688
      g+2     :     0.010939
      g-2     :     0.003692
      g+3     :     0.017354
      g-3     :     0.011027
      g+4     :     0.008561
      g-4     :     0.010698
  4 H s       :     0.599008  s :     0.599008
      pz      :     0.119812  p :     0.272407
      px      :     0.089092
      py      :     0.063503
      dz2     :     0.075269  d :     0.237548
      dxz     :     0.049341
      dyz     :     0.045555
      dx2y2   :     0.043343
      dxy     :     0.024040
      f0      :     0.030984  f :     0.134932
      f+1     :     0.007843
      f-1     :     0.021591
      f+2     :     0.026380
      f-2     :     0.015562
      f+3     :     0.020965
      f-3     :     0.011607
      g0      :     0.015561  g :     0.089826
      g+1     :     0.002306
      g-1     :     0.009688
      g+2     :     0.010939
      g-2     :     0.003692
      g+3     :     0.017354
      g-3     :     0.011027
      g+4     :     0.008561
      g-4     :     0.010698
  5 H s       :     0.564173  s :     0.564173
      pz      :     0.140602  p :     0.509063
      px      :     0.232690
      py      :     0.135771
      dz2     :     0.039703  d :     0.443014
      dxz     :     0.117148
      dyz     :     0.035811
      dx2y2   :     0.140713
      dxy     :     0.109640
      f0      :     0.027639  f :     0.195581
      f+1     :     0.011191
      f-1     :     0.010063
      f+2     :     0.036374
      f-2     :     0.017251
      f+3     :     0.049662
      f-3     :     0.043401
      g0      :     0.002920  g :     0.083946
      g+1     :     0.002689
      g-1     :     0.014729
      g+2     :     0.002079
      g-2     :     0.006691
      g+3     :     0.010613
      g-3     :     0.006907
      g+4     :     0.026429
      g-4     :     0.010890

SPIN
  0 C s       :     0.000000  s :     0.000000
      pz      :    -0.000000  p :    -0.000000
      px      :    -0.000000
      py      :    -0.000000
      dz2     :     0.000000  d :     0.000000
      dxz     :     0.000000
      dyz     :     0.000000
      dx2y2   :     0.000000
      dxy     :     0.000000
      f0      :    -0.000000  f :     0.000000
      f+1     :    -0.000000
      f-1     :     0.000000
      f+2     :     0.000000
      f-2     :     0.000000
      f+3     :    -0.000000
      f-3     :    -0.000000
      g0      :     0.000000  g :    -0.000000
      g+1     :     0.000000
      g-1     :     0.000000
      g+2     :    -0.000000
      g-2     :    -0.000000
      g+3     :     0.000000
      g-3     :     0.000000
      g+4     :    -0.000000
      g-4     :    -0.000000
      h0      :    -0.000000  h :    -0.000000
      h+1     :    -0.000000
      h-1     :    -0.000000
      h+2     :     0.000000
      h-2     :     0.000000
      h+3     :    -0.000000
      h-3     :    -0.000000
      h+4     :    -0.000000
      h-4     :     0.000000
      h+5     :     0.000000
      h-5     :     0.000000
  1 O s       :    -0.000000  s :    -0.000000
      pz      :     0.000000  p :    -0.000000
      px      :    -0.000000
      py      :    -0.000000
      dz2     :    -0.000000  d :     0.000000
      dxz     :    -0.000000
      dyz     :     0.000000
      dx2y2   :     0.000000
      dxy     :     0.000000
      f0      :     0.000000  f :    -0.000000
      f+1     :    -0.000000
      f-1     :     0.000000
      f+2     :    -0.000000
      f-2     :    -0.000000
      f+3     :    -0.000000
      f-3     :     0.000000
      g0      :    -0.000000  g :     0.000000
      g+1     :     0.000000
      g-1     :     0.000000
      g+2     :    -0.000000
      g-2     :    -0.000000
      g+3     :     0.000000
      g-3     :    -0.000000
      g+4     :     0.000000
      g-4     :     0.000000
      h0      :     0.000000  h :    -0.000000
      h+1     :    -0.000000
      h-1     :     0.000000
      h+2     :     0.000000
      h-2     :     0.000000
      h+3     :    -0.000000
      h-3     :     0.000000
      h+4     :    -0.000000
      h-4     :     0.000000
      h+5     :    -0.000000
      h-5     :     0.000000
  2 H s       :    -0.000000  s :    -0.000000
      pz      :     0.000000  p :     0.000000
      px      :    -0.000000
      py      :     0.000000
      dz2     :    -0.000000  d :    -0.000000
      dxz     :    -0.000000
      dyz     :    -0.000000
      dx2y2   :    -0.000000
      dxy     :     0.000000
      f0      :    -0.000000  f :    -0.000000
      f+1     :    -0.000000
      f-1     :     0.000000
      f+2     :    -0.000000
      f-2     :     0.000000
      f+3     :    -0.000000
      f-3     :     0.000000
      g0      :     0.000000  g :     0.000000
      g+1     :    -0.000000
      g-1     :     0.000000
      g+2     :     0.000000
      g-2     :     0.000000
      g+3     :     0.000000
      g-3     :    -0.000000
      g+4     :    -0.000000
      g-4     :     0.000000
  3 H s       :     0.000000  s :     0.000000
      pz      :    -0.000000  p :    -0.000000
      px      :     0.000000
      py      :    -0.000000
      dz2     :    -0.000000  d :    -0.000000
      dxz     :    -0.000000
      dyz     :    -0.000000
      dx2y2   :    -0.000000
      dxy     :     0.000000
      f0      :    -0.000000  f :     0.000000
      f+1     :    -0.000000
      f-1     :     0.000000
      f+2     :     0.000000
      f-2     :     0.000000
      f+3     :    -0.000000
      f-3     :     0.000000
      g0      :    -0.000000  g :    -0.000000
      g+1     :    -0.000000
      g-1     :     0.000000
      g+2     :     0.000000
      g-2     :     0.000000
      g+3     :    -0.000000
      g-3     :    -0.000000
      g+4     :    -0.000000
      g-4     :     0.000000
  4 H s       :     0.000000  s :     0.000000
      pz      :    -0.000000  p :     0.000000
      px      :     0.000000
      py      :    -0.000000
      dz2     :    -0.000000  d :    -0.000000
      dxz     :    -0.000000
      dyz     :     0.000000
      dx2y2   :    -0.000000
      dxy     :     0.000000
      f0      :     0.000000  f :     0.000000
      f+1     :     0.000000
      f-1     :     0.000000
      f+2     :     0.000000
      f-2     :     0.000000
      f+3     :    -0.000000
      f-3     :     0.000000
      g0      :    -0.000000  g :    -0.000000
      g+1     :    -0.000000
      g-1     :     0.000000
      g+2     :    -0.000000
      g-2     :     0.000000
      g+3     :    -0.000000
      g-3     :    -0.000000
      g+4     :    -0.000000
      g-4     :     0.000000
  5 H s       :     0.000000  s :     0.000000
      pz      :    -0.000000  p :    -0.000000
      px      :     0.000000
      py      :    -0.000000
      dz2     :     0.000000  d :     0.000000
      dxz     :    -0.000000
      dyz     :     0.000000
      dx2y2   :    -0.000000
      dxy     :    -0.000000
      f0      :     0.000000  f :     0.000000
      f+1     :    -0.000000
      f-1     :     0.000000
      f+2     :    -0.000000
      f-2     :     0.000000
      f+3     :     0.000000
      f-3     :     0.000000
      g0      :    -0.000000  g :    -0.000000
      g+1     :    -0.000000
      g-1     :     0.000000
      g+2     :    -0.000000
      g-2     :    -0.000000
      g+3     :     0.000000
      g-3     :     0.000000
      g+4     :    -0.000000
      g-4     :    -0.000000


                      *****************************
                      * MAYER POPULATION ANALYSIS *
                      *****************************

  NA   - Mulliken gross atomic population
  ZA   - Total nuclear charge
  QA   - Mulliken gross atomic charge
  VA   - Mayer's total valence
  BVA  - Mayer's bonded valence
  FA   - Mayer's free valence

  ATOM       NA         ZA         QA         VA         BVA        FA
  0 C      5.6844     6.0000     0.3156     3.9085     3.9085    -0.0000
  1 O      8.3954     8.0000    -0.3954     2.1432     2.1432     0.0000
  2 H      1.1089     1.0000    -0.1089     1.2282     1.2282    -0.0000
  3 H      0.9795     1.0000     0.0205     1.1631     1.1631    -0.0000
  4 H      0.9795     1.0000     0.0205     1.1632     1.1632    -0.0000
  5 H      0.8523     1.0000     0.1477     1.0478     1.0478    -0.0000

  Mayer bond orders larger than 0.1
B(  0-C ,  1-O ) :   0.9312 B(  0-C ,  2-H ) :   1.0158 B(  0-C ,  3-H ) :   0.9899 
B(  0-C ,  4-H ) :   0.9898 B(  1-O ,  5-H ) :   1.1038 

-------
TIMINGS
-------

Total SCF time: 0 days 1 hours 20 min 11 sec 

Total time                  ....    4811.601 sec
Sum of individual times     ....    4809.771 sec  (100.0%)

Fock matrix formation       ....    4797.350 sec  ( 99.7%)
  XC integration            ....      70.779 sec  (  1.5% of F)
    Basis function eval.    ....       3.351 sec  (  4.7% of XC)
    Density eval.           ....      22.040 sec  ( 31.1% of XC)
    XC-Functional eval.     ....       0.229 sec  (  0.3% of XC)
    XC-Potential eval.      ....      43.642 sec  ( 61.7% of XC)
Diagonalization             ....       5.740 sec  (  0.1%)
Density matrix formation    ....       0.080 sec  (  0.0%)
Population analysis         ....       0.555 sec  (  0.0%)
Initial guess               ....       2.751 sec  (  0.1%)
Orbital Transformation      ....       0.000 sec  (  0.0%)
Orbital Orthonormalization  ....       0.000 sec  (  0.0%)
DIIS solution               ....       2.674 sec  (  0.1%)
Grid generation             ....       0.621 sec  (  0.0%)

-------------------------   --------------------
FINAL SINGLE POINT ENERGY      -115.642178412228
-------------------------   --------------------


                            ***************************************
                            *     ORCA property calculations      *
                            ***************************************

                                    ---------------------
                                    Active property flags
                                    ---------------------
   (+) Dipole Moment
   (+) Polarizability


------------------------------------------------------------------------------
                       ORCA ELECTRIC PROPERTIES CALCULATION
------------------------------------------------------------------------------

Dipole Moment Calculation                       ... on
Quadrupole Moment Calculation                   ... off
Polarizability Calculation                      ... Analytic (CP-SCF)
GBWName                                         ... ch3oh_pbe.gbw
Electron density file                           ... ch3oh_pbe.scfp.tmp
The origin for moment calculation is the CENTER OF MASS  = (-0.041258, -0.119842  0.000000)

-------------
DIPOLE MOMENT
-------------
                                X             Y             Z
Electronic contribution:     -0.22460      -1.80234      -0.00000
Nuclear contribution   :      0.74171       2.15791       0.00000
                        -----------------------------------------
Total Dipole Moment    :      0.51711       0.35557      -0.00000
                        -----------------------------------------
Magnitude (a.u.)       :      0.62756
Magnitude (Debye)      :      1.59513



--------------------
Rotational spectrum 
--------------------
 
Rotational constants in cm-1:     4.257682     0.821117     0.792238 
Rotational constants in MHz : 127642.086878 24616.458466 23750.711082 

 Dipole components along the rotational axes: 
x,y,z [a.u.] :    -0.326411    -0.535992    -0.000000 
x,y,z [Debye]:    -0.829671    -1.362383    -0.000000 

 
Transforming and storing MO dipole integrals   ... done

                ... starting polarizability calculation

Opening the Dipole integral file               ... (ch3oh_pbe.dmo.tmp) done
Reading Dipole-MO integrals                    ... done
Solving CP-SCF equations                       ... 

           ************************************************************
           *        Program running with 4 parallel MPI-processes     *
           *              working on a common directory               *
           ************************************************************

------------------------------------------------------------------------------
                           ORCA CP-SCF CALCULATION
------------------------------------------------------------------------------

Input orbitals are from        ... ch3oh_pbe.gbw
Input Perturbation             ... ch3oh_pbe.cpv.tmp
Wavefunction output            ... ch3oh_pbe.cpu.tmp
Perturbation mode              ... Real perturbation (singlet)
Solver                         ... POPLE
Max. number of iterations      ... 200
Convergence tolerance          ... 1.000e-06
Integral handling              ... Direct
Number of perturbations        ... 3
Number of operators            ... 2
Orbital ranges used for CP-SCF:
 Operator 0:  Orbitals   0...  8  to   9...641
 Operator 1:  Orbitals   0...  8  to   9...641
DFT calculation                         ... on
Exchange functional (SCF)               ... PBE
Exchange functional (CP-SCF)            ... PBE
   PBE kappa parameter  XKappa (SCF)    ...  0.804000
   PBE kappa parameter  XKappa (CP-SCF) ...  0.804000
   PBE mue parameter   XMuePBE (SCF)    ...  0.219520
   PBE mue parameter   XMuePBE (CP-SCF) ...  0.219520
Correlation functional (SCF)            ... PBE
Correlation functional (CP-SCF)         ... PBE
   PBE beta parameter CBetaPBE (SCF)    ...  0.066725
   PBE beta parameter CBetaPBE (CP-SCF) ...  0.066725
 LDA part of GGA corr.  LDAOpt (SCF)    ... PW91-LDA
 LDA part of GGA corr.  LDAOpt (CP-SCF) ... PW91-LDA
Variables per vector in CP-SCF ... 11394
Number of vectors sought       ... 3
Recalculating density on grid  ... done
Calculating the xc-kernel      ... done
     CP-SCF ITERATION   0: 
     CP-SCF ITERATION   1:      0.347256220239
     CP-SCF ITERATION   2:      0.009082018592
     CP-SCF ITERATION   3:      0.001101018385
     CP-SCF ITERATION   4:      0.000016569136
     CP-SCF ITERATION   5:      0.000000477229
done
Reading CP-SCF coefficients                    ... done
Doing the polarizability tensor   ... done
Cleaning up                                    ... done

-------------------------
THE POLARIZABILITY TENSOR
-------------------------

The raw cartesian tensor (atomic units):
   21.60260     -0.58805      0.00000  
   -0.58805     24.84315      0.00000  
    0.00000      0.00000     21.35305  
diagonalized tensor: 
   21.35305     21.49919     24.94655  

   -0.00000      0.98489     -0.17320  
   -0.00000      0.17320      0.98489  
    1.00000      0.00000      0.00000  

Isotropic polarizability :  22.59960


Timings for individual modules:

Sum of individual times         ...     8627.690 sec (= 143.795 min)
GTO integral calculation        ...        3.877 sec (=   0.065 min)   0.0 %
SCF iterations                  ...     4812.889 sec (=  80.215 min)  55.8 %
Solution of CP-SCF eqns.        ...     3810.925 sec (=  63.515 min)  44.2 %
                             ****ORCA TERMINATED NORMALLY****
TOTAL RUN TIME: 0 days 2 hours 23 minutes 53 seconds 512 msec
