
                                 *****************
                                 * O   R   C   A *
                                 *****************

           --- An Ab Initio, DFT and Semiempirical electronic structure package ---

                  #######################################################
                  #                        -***-                        #
                  #          Department of theory and spectroscopy      #
                  #               Directorship: Frank Neese             #
                  #        Max Planck Institute fuer Kohlenforschung    #
                  #                Kaiser Wilhelm Platz 1               #
                  #                 D-45470 Muelheim/Ruhr               #
                  #                      Germany                        #
                  #                                                     #
                  #                  All rights reserved                #
                  #                        -***-                        #
                  #######################################################


                         Program Version 4.1.2  - RELEASE  -


 With contributions from (in alphabetic order):
   Daniel Aravena         : Magnetic Properties
   Michael Atanasov       : Ab Initio Ligand Field Theory
   Alexander A. Auer      : GIAO ZORA
   Ute Becker             : Parallelization
   Giovanni Bistoni       : ED, Open-shell LED
   Martin Brehm           : Molecular dynamics
   Dmytro Bykov           : SCF Hessian
   Vijay G. Chilkuri      : MRCI spin determinant printing
   Dipayan Datta          : RHF DLPNO-CCSD density
   Achintya Kumar Dutta   : EOM-CC, STEOM-CC
   Dmitry Ganyushin       : Spin-Orbit,Spin-Spin,Magnetic field MRCI
   Miquel Garcia          : C-PCM Hessian
   Yang Guo               : DLPNO-NEVPT2, CIM, IAO-localization
   Andreas Hansen         : Spin unrestricted coupled pair/coupled cluster methods
   Benjamin Helmich-Paris : CASSCF linear response (MC-RPA)
   Lee Huntington         : MR-EOM, pCC
   Robert Izsak           : Overlap fitted RIJCOSX, COSX-SCS-MP3, EOM
   Christian Kollmar      : KDIIS, OOCD, Brueckner-CCSD(T), CCSD density
   Simone Kossmann        : Meta GGA functionals, TD-DFT gradient, OOMP2, MP2 Hessian
   Martin Krupicka        : AUTO-CI
   Lucas Lang             : DCDCAS
   Dagmar Lenk            : GEPOL surface, SMD
   Dimitrios Liakos       : Extrapolation schemes; parallel MDCI
   Dimitrios Manganas     : ROCIS; embedding schemes
   Dimitrios Pantazis     : SARC Basis sets
   Taras Petrenko         : DFT Hessian,TD-DFT gradient, ASA, ECA, R-Raman, ABS, FL, XAS/XES, NRVS
   Peter Pinski           : DLPNO-MP2, DLPNO-MP2 Gradient
   Christoph Reimann      : Effective Core Potentials
   Marius Retegan         : Local ZFS, SOC
   Christoph Riplinger    : Optimizer, TS searches, QM/MM, DLPNO-CCSD(T), (RO)-DLPNO pert. Triples
   Tobias Risthaus        : Range-separated hybrids, TD-DFT gradient, RPA, STAB
   Michael Roemelt        : Restricted open shell CIS
   Masaaki Saitow         : Open-shell DLPNO
   Barbara Sandhoefer     : DKH picture change effects
   Avijit Sen             : IP-ROCIS
   Kantharuban Sivalingam : CASSCF convergence, NEVPT2, FIC-MRCI
   Bernardo de Souza      : ESD, SOC TD-DFT
   Georgi Stoychev        : AutoAux, RI-MP2 NMR
   Willem Van den Heuvel  : Paramagnetic NMR
   Boris Wezisla          : Elementary symmetry handling
   Frank Wennmohs         : Technical directorship


 We gratefully acknowledge several colleagues who have allowed us to
 interface, adapt or use parts of their codes:
   Stefan Grimme, W. Hujo, H. Kruse,             : VdW corrections, initial TS optimization,
                  C. Bannwarth                     DFT functionals, gCP, sTDA/sTD-DF
   Ed Valeev                                     : LibInt (2-el integral package), F12 methods
   Garnet Chan, S. Sharma, J. Yang, R. Olivares  : DMRG
   Ulf Ekstrom                                   : XCFun DFT Library
   Mihaly Kallay                                 : mrcc  (arbitrary order and MRCC methods)
   Andreas Klamt, Michael Diedenhofen            : otool_cosmo (COSMO solvation model)
   Jiri Pittner, Ondrej Demel                    : Mk-CCSD
   Frank Weinhold                                : gennbo (NPA and NBO analysis)
   Christopher J. Cramer and Donald G. Truhlar   : smd solvation model
   Lars Goerigk                                  : TD-DFT with DH, B97 family of functionals
   V. Asgeirsson, H. Jonsson                     : NEB implementation
   FAccTs GmbH                                   : IRC, NEB, NEB-TS, Multilevel


 Your calculation uses the libint2 library for the computation of 2-el integrals
 For citations please refer to: http://libint.valeyev.net

 This ORCA versions uses:
   CBLAS   interface :  Fast vector & matrix operations
   LAPACKE interface :  Fast linear algebra routines
   SCALAPACK package :  Parallel linear algebra routines


----- Orbital basis set information -----
Your calculation utilizes the basis: aug-pc-4
   H, C-F              : F. Jensen, J. Chem. Phys. 115, 9113 (2001).
                         F. Jensen, J. Chem. Phys. 116, 7372 (2002).
                         F. Jensen, J. Chem. Phys. 117, 9234 (2002).
   Si-Cl               : F. Jensen, T. Helgaker, J. Chem. Phys. 121, 3463 (2004).
   He-B, Ne-Mg, Al, Ar : F. Jensen, J. Phys. Chem. A 111, 11198 (2007).
   K, Ca, Ga-Kr        : F. Jensen, J. Chem. Phys. 136, 094110 (2012).
   Sc-Zn               : F. Jensen, J. Chem. Phys. 138, 014107 (2013).

================================================================================
                                        WARNINGS
                       Please study these warnings very carefully!
================================================================================


INFO   : the flag for use of LIBINT has been found!

================================================================================
                                       INPUT FILE
================================================================================
NAME = ch4_pbe.inp
|  1> !uks pbe nori aug-pc-4 grid5 nofinalgrid verytightscf
|  2> 
|  3> %maxcore 1500
|  4> 
|  5> %pal nprocs 4 end
|  6> 
|  7> %scf
|  8> 	maxiter 200
|  9> end
| 10> %elprop
| 11> 	dipole true
| 12> 	 polar 1
| 13> 	 maxiter 200
| 14> end
| 15> 
| 16> * xyz 0 1
| 17> C 0.0000 0.0000 0.0000
| 18> H 0.6276 0.6276 0.6276
| 19> H 0.6276 -0.6276 -0.6276
| 20> H -0.6276 0.6276 -0.6276
| 21> H -0.6276 -0.6276 0.6276
| 22> *
| 23> 
| 24>                          ****END OF INPUT****
================================================================================

                       ****************************
                       * Single Point Calculation *
                       ****************************

---------------------------------
CARTESIAN COORDINATES (ANGSTROEM)
---------------------------------
  C      0.000000    0.000000    0.000000
  H      0.627600    0.627600    0.627600
  H      0.627600   -0.627600   -0.627600
  H     -0.627600    0.627600   -0.627600
  H     -0.627600   -0.627600    0.627600

----------------------------
CARTESIAN COORDINATES (A.U.)
----------------------------
  NO LB      ZA    FRAG     MASS         X           Y           Z
   0 C     6.0000    0    12.011    0.000000    0.000000    0.000000
   1 H     1.0000    0     1.008    1.185992    1.185992    1.185992
   2 H     1.0000    0     1.008    1.185992   -1.185992   -1.185992
   3 H     1.0000    0     1.008   -1.185992    1.185992   -1.185992
   4 H     1.0000    0     1.008   -1.185992   -1.185992    1.185992

--------------------------------
INTERNAL COORDINATES (ANGSTROEM)
--------------------------------
 C      0   0   0     0.000000000000     0.00000000     0.00000000
 H      1   0   0     1.087035086830     0.00000000     0.00000000
 H      1   2   0     1.087035086830   109.47122063     0.00000000
 H      1   2   3     1.087035086830   109.47122063   240.00000000
 H      1   2   3     1.087035086830   109.47122063   120.00000000

---------------------------
INTERNAL COORDINATES (A.U.)
---------------------------
 C      0   0   0     0.000000000000     0.00000000     0.00000000
 H      1   0   0     2.054198612072     0.00000000     0.00000000
 H      1   2   0     2.054198612072   109.47122063     0.00000000
 H      1   2   3     2.054198612072   109.47122063   240.00000000
 H      1   2   3     2.054198612072   109.47122063   120.00000000

---------------------
BASIS SET INFORMATION
---------------------
There are 2 groups of distinct atoms

 Group   1 Type C   : 28s12p7d4f3g2h contracted to 9s8p7d4f3g2h pattern {11101111111/51111111/1111111/1111/111/11}
 Group   2 Type H   : 12s7p4d3f2g contracted to 8s7p4d3f2g pattern {51111111/1111111/1111/111/11}

Atom   0C    basis set group =>   1
Atom   1H    basis set group =>   2
Atom   2H    basis set group =>   2
Atom   3H    basis set group =>   2
Atom   4H    basis set group =>   2


           ************************************************************
           *        Program running with 4 parallel MPI-processes     *
           *              working on a common directory               *
           ************************************************************
------------------------------------------------------------------------------
                           ORCA GTO INTEGRAL CALCULATION
------------------------------------------------------------------------------

                         BASIS SET STATISTICS AND STARTUP INFO

 # of primitive gaussian shells          ...  168
 # of primitive gaussian functions       ...  544
 # of contracted shells                  ...  129
 # of contracted basis functions         ...  497
 Highest angular momentum                ...    5
 Maximum contraction depth               ...   11
 Integral package used                   ... LIBINT
 Integral threshhold            Thresh   ...  1.000e-12
 Primitive cut-off              TCut     ...  1.000e-14


------------------------------ INTEGRAL EVALUATION ----------------------------


 * One electron integrals 
 Pre-screening matrix                    ... done
 Shell pair data                         ... done (   0.003 sec)



           ************************************************************
           *        Program running with 4 parallel MPI-processes     *
           *              working on a common directory               *
           ************************************************************
-------------------------------------------------------------------------------
                                 ORCA SCF
-------------------------------------------------------------------------------

------------
SCF SETTINGS
------------
Hamiltonian:
 Density Functional     Method          .... DFT(GTOs)
 Exchange Functional    Exchange        .... PBE
   PBE kappa parameter   XKappa         ....  0.804000
   PBE mue parameter    XMuePBE         ....  0.219520
 Correlation Functional Correlation     .... PBE
   PBE beta parameter  CBetaPBE         ....  0.066725
 LDA part of GGA corr.  LDAOpt          .... PW91-LDA
 Gradients option       PostSCFGGA      .... off
   Density functional embedding theory  .... OFF
   NL short-range parameter             ....  6.400000


General Settings:
 Integral files         IntName         .... ch4_pbe
 Hartree-Fock type      HFTyp           .... UHF
 Total Charge           Charge          ....    0
 Multiplicity           Mult            ....    1
 Number of Electrons    NEL             ....   10
 Basis Dimension        Dim             ....  497
 Nuclear Repulsion      ENuc            ....     13.4720345207 Eh

Convergence Acceleration:
 DIIS                   CNVDIIS         .... on
   Start iteration      DIISMaxIt       ....    12
   Startup error        DIISStart       ....  0.200000
   # of expansion vecs  DIISMaxEq       ....     5
   Bias factor          DIISBfac        ....   1.050
   Max. coefficient     DIISMaxC        ....  10.000
 Newton-Raphson         CNVNR           .... off
 SOSCF                  CNVSOSCF        .... off
 Level Shifting         CNVShift        .... on
   Level shift para.    LevelShift      ....    0.2500
   Turn off err/grad.   ShiftErr        ....    0.0010
 Zerner damping         CNVZerner       .... off
 Static damping         CNVDamp         .... on
   Fraction old density DampFac         ....    0.7000
   Max. Damping (<1)    DampMax         ....    0.9800
   Min. Damping (>=0)   DampMin         ....    0.0000
   Turn off err/grad.   DampErr         ....    0.1000
 Fernandez-Rico         CNVRico         .... off

SCF Procedure:
 Maximum # iterations   MaxIter         ....   200
 SCF integral mode      SCFMode         .... Direct
   Integral package                     .... LIBINT
 Reset frequency        DirectResetFreq ....    20
 Integral Threshold     Thresh          ....  1.000e-12 Eh
 Primitive CutOff       TCut            ....  1.000e-14 Eh

Convergence Tolerance:
 Convergence Check Mode ConvCheckMode   .... Total+1el-Energy
 Convergence forced     ConvForced      .... 0
 Energy Change          TolE            ....  1.000e-09 Eh
 1-El. energy change                    ....  1.000e-06 Eh
 DIIS Error             TolErr          ....  1.000e-08


Diagonalization of the overlap matrix:
Smallest eigenvalue                        ... 1.730e-07
Time for diagonalization                   ...    0.045 sec
Threshold for overlap eigenvalues          ... 1.000e-08
Number of eigenvalues below threshold      ... 0
Time for construction of square roots      ...    0.040 sec
Total time needed                          ...    0.086 sec

-------------------
DFT GRID GENERATION
-------------------

General Integration Accuracy     IntAcc      ...  5.010
Radial Grid Type                 RadialGrid  ... Gauss-Chebyshev
Angular Grid (max. acc.)         AngularGrid ... Lebedev-434
Angular grid pruning method      GridPruning ... 3 (G Style)
Weight generation scheme         WeightScheme... Becke
Basis function cutoff            BFCut       ...    1.0000e-12
Integration weight cutoff        WCut        ...    1.0000e-14
Grids for H and He will be reduced by one unit

# of grid points (after initial pruning)     ...  37466 (   0.0 sec)
# of grid points (after weights+screening)   ...  36558 (   0.0 sec)
nearest neighbour list constructed           ...    0.0 sec
Grid point re-assignment to atoms done       ...    0.0 sec
Grid point division into batches done        ...    0.2 sec
Reduced shell lists constructed in    0.3 sec

Total number of grid points                  ...    36558
Total number of batches                      ...      574
Average number of points per batch           ...       63
Average number of grid points per atom       ...     7312
Average number of shells per batch           ...   103.61 (80.32%)
Average number of basis functions per batch  ...   407.55 (82.00%)
Average number of large shells per batch     ...    94.92 (91.61%)
Average number of large basis fcns per batch ...   376.28 (92.33%)
Maximum spatial batch extension              ...  16.91, 16.18, 16.91 au
Average spatial batch extension              ...   0.64,  0.61,  0.63 au

Time for grid setup =    0.365 sec

------------------------------
INITIAL GUESS: MODEL POTENTIAL
------------------------------
Loading Hartree-Fock densities                     ... done
Calculating cut-offs                               ... done
Setting up the integral package                    ... done
Initializing the effective Hamiltonian             ... done
Starting the Coulomb interaction                   ... done (   0.0 sec)
Reading the grid                                   ... done
Mapping shells                                     ... done
Starting the XC term evaluation                    ... done (   1.0 sec)
  promolecular density results
     # of electrons  =      9.998047838
     EX              =     -6.269270856
     EC              =     -0.294757413
     EX+EC           =     -6.564028270
Transforming the Hamiltonian                       ... done (   0.0 sec)
Diagonalizing the Hamiltonian                      ... done (   0.1 sec)
Back transforming the eigenvectors                 ... done (   0.0 sec)
Now organizing SCF variables                       ... done
                      ------------------
                      INITIAL GUESS DONE (   1.6 sec)
                      ------------------
--------------
SCF ITERATIONS
--------------
ITER       Energy         Delta-E        Max-DP      RMS-DP      [F,P]     Damp
               ***  Starting incremental Fock matrix formation  ***
  0    -40.3893807715   0.000000000000 0.01800753  0.00015059  0.2256702 0.7000
  1    -40.4291593511  -0.039778579561 0.01093853  0.00009040  0.0990233 0.7000
                               ***Turning on DIIS***
  2    -40.4425964296  -0.013437078538 0.01218998  0.00009815  0.0264661 0.0000
  3    -40.4603723378  -0.017775908192 0.00698176  0.00006174  0.0658455 0.0000
  4    -40.4675050148  -0.007132676964 0.00225431  0.00002120  0.0176672 0.0000
  5    -40.4680522943  -0.000547279557 0.00049093  0.00000480  0.0046958 0.0000
  6    -40.4680964001  -0.000044105746 0.00019224  0.00000198  0.0013270 0.0000
  7    -40.4681005221  -0.000004122030 0.00013312  0.00000129  0.0004196 0.0000
  8    -40.4681010682  -0.000000546151 0.00002469  0.00000024  0.0000140 0.0000
  9    -40.4681010686  -0.000000000401 0.00000583  0.00000006  0.0000004 0.0000
                 **** Energy Check signals convergence ****

               *****************************************************
               *                     SUCCESS                       *
               *           SCF CONVERGED AFTER  10 CYCLES          *
               *****************************************************


----------------
TOTAL SCF ENERGY
----------------

Total Energy       :          -40.46810107 Eh           -1101.19301 eV

Components:
Nuclear Repulsion  :           13.47203452 Eh             366.59270 eV
Electronic Energy  :          -53.94013559 Eh           -1467.78571 eV
One Electron Energy:          -79.92644906 Eh           -2174.90925 eV
Two Electron Energy:           25.98631347 Eh             707.12354 eV

Virial components:
Potential Energy   :          -80.74188785 Eh           -2197.09847 eV
Kinetic Energy     :           40.27378678 Eh            1095.90545 eV
Virial Ratio       :            2.00482483


DFT components:
N(Alpha)           :        5.000001322434 electrons
N(Beta)            :        5.000001322434 electrons
N(Total)           :       10.000002644869 electrons
E(X)               :       -6.535233155344 Eh       
E(C)               :       -0.299952040517 Eh       
E(XC)              :       -6.835185195861 Eh       
DFET-embed. en.    :        0.000000000000 Eh       

---------------
SCF CONVERGENCE
---------------

  Last Energy change         ...    3.5314e-12  Tolerance :   1.0000e-09
  Last MAX-Density change    ...    9.5820e-05  Tolerance :   1.0000e-08
  Last RMS-Density change    ...    1.0567e-06  Tolerance :   1.0000e-09
  Last DIIS Error            ...    1.2616e-07  Tolerance :   1.0000e-08

             **** THE GBW FILE WAS UPDATED (ch4_pbe.gbw) ****
             **** DENSITY FILE WAS UPDATED (ch4_pbe.scfp.tmp) ****
             **** ENERGY FILE WAS UPDATED (ch4_pbe.en.tmp) ****
----------------------
UHF SPIN CONTAMINATION
----------------------

Warning: in a DFT calculation there is little theoretical justification to 
         calculate <S**2> as in Hartree-Fock theory. We will do it anyways
         but you should keep in mind that the values have only limited relevance

Expectation value of <S**2>     :     0.000000
Ideal value S*(S+1) for S=0.0   :     0.000000
Deviation                       :     0.000000

----------------
ORBITAL ENERGIES
----------------
                 SPIN UP ORBITALS
  NO   OCC          E(Eh)            E(eV) 
   0   1.0000      -9.862636      -268.3760 
   1   1.0000      -0.627345       -17.0709 
   2   1.0000      -0.347519        -9.4565 
   3   1.0000      -0.347519        -9.4565 
   4   1.0000      -0.347519        -9.4565 
   5   0.0000      -0.014752        -0.4014 
   6   0.0000       0.017465         0.4752 
   7   0.0000       0.017465         0.4752 
   8   0.0000       0.017465         0.4752 
   9   0.0000       0.036611         0.9962 
  10   0.0000       0.037402         1.0178 
  11   0.0000       0.037403         1.0178 
  12   0.0000       0.037403         1.0178 
  13   0.0000       0.069787         1.8990 
  14   0.0000       0.069787         1.8990 
  15   0.0000       0.074956         2.0397 
  16   0.0000       0.074957         2.0397 
  17   0.0000       0.074957         2.0397 
  18   0.0000       0.081291         2.2120 
  19   0.0000       0.081292         2.2121 
  20   0.0000       0.081294         2.2121 
  21   0.0000       0.115727         3.1491 
  22   0.0000       0.123398         3.3578 
  23   0.0000       0.123399         3.3578 
  24   0.0000       0.123399         3.3578 
  25   0.0000       0.130205         3.5431 
  26   0.0000       0.130206         3.5431 
  27   0.0000       0.130206         3.5431 
  28   0.0000       0.132615         3.6086 
  29   0.0000       0.160383         4.3642 
  30   0.0000       0.160388         4.3644 
  31   0.0000       0.160393         4.3645 
  32   0.0000       0.174298         4.7429 
  33   0.0000       0.174298         4.7429 
  34   0.0000       0.193707         5.2710 
  35   0.0000       0.193707         5.2710 
  36   0.0000       0.193708         5.2710 
  37   0.0000       0.198562         5.4032 
  38   0.0000       0.198562         5.4032 
  39   0.0000       0.229602         6.2478 
  40   0.0000       0.229604         6.2478 
  41   0.0000       0.229605         6.2479 
  42   0.0000       0.234300         6.3756 
  43   0.0000       0.234300         6.3756 
  44   0.0000       0.234300         6.3756 
  45   0.0000       0.237151         6.4532 
  46   0.0000       0.256882         6.9901 
  47   0.0000       0.270283         7.3548 
  48   0.0000       0.270283         7.3548 
  49   0.0000       0.270283         7.3548 
  50   0.0000       0.289909         7.8888 
  51   0.0000       0.289912         7.8889 
  52   0.0000       0.289917         7.8890 
  53   0.0000       0.296574         8.0702 
  54   0.0000       0.296585         8.0705 
  55   0.0000       0.296597         8.0708 
  56   0.0000       0.302157         8.2221 
  57   0.0000       0.315110         8.5746 
  58   0.0000       0.315111         8.5746 
  59   0.0000       0.315111         8.5746 
  60   0.0000       0.319256         8.6874 
  61   0.0000       0.319256         8.6874 
  62   0.0000       0.319256         8.6874 
  63   0.0000       0.321525         8.7492 
  64   0.0000       0.321525         8.7492 
  65   0.0000       0.362276         9.8580 
  66   0.0000       0.362278         9.8581 
  67   0.0000       0.362279         9.8581 
  68   0.0000       0.367573        10.0022 
  69   0.0000       0.367573        10.0022 
  70   0.0000       0.429916        11.6986 
  71   0.0000       0.429917        11.6986 
  72   0.0000       0.429917        11.6986 
  73   0.0000       0.436995        11.8912 
  74   0.0000       0.436995        11.8913 
  75   0.0000       0.438956        11.9446 
  76   0.0000       0.450944        12.2708 
  77   0.0000       0.450946        12.2709 
  78   0.0000       0.450947        12.2709 
  79   0.0000       0.454208        12.3596 
  80   0.0000       0.454208        12.3596 
  81   0.0000       0.454208        12.3596 
  82   0.0000       0.462942        12.5973 
  83   0.0000       0.468447        12.7471 
  84   0.0000       0.472219        12.8497 
  85   0.0000       0.472221        12.8498 
  86   0.0000       0.472223        12.8498 
  87   0.0000       0.490408        13.3447 
  88   0.0000       0.490408        13.3447 
  89   0.0000       0.490408        13.3447 
  90   0.0000       0.499263        13.5856 
  91   0.0000       0.499263        13.5856 
  92   0.0000       0.499511        13.5924 
  93   0.0000       0.499515        13.5925 
  94   0.0000       0.499520        13.5926 
  95   0.0000       0.524332        14.2678 
  96   0.0000       0.529757        14.4154 
  97   0.0000       0.529757        14.4154 
  98   0.0000       0.529757        14.4154 
  99   0.0000       0.537395        14.6233 
 100   0.0000       0.537395        14.6233 
 101   0.0000       0.537396        14.6233 
 102   0.0000       0.570485        15.5237 
 103   0.0000       0.575874        15.6703 
 104   0.0000       0.575885        15.6706 
 105   0.0000       0.575898        15.6710 
 106   0.0000       0.606656        16.5080 
 107   0.0000       0.606656        16.5080 
 108   0.0000       0.606656        16.5080 
 109   0.0000       0.633643        17.2423 
 110   0.0000       0.633643        17.2423 
 111   0.0000       0.651123        17.7180 
 112   0.0000       0.651125        17.7180 
 113   0.0000       0.651128        17.7181 
 114   0.0000       0.674817        18.3627 
 115   0.0000       0.674824        18.3629 
 116   0.0000       0.674827        18.3630 
 117   0.0000       0.693332        18.8665 
 118   0.0000       0.693332        18.8665 
 119   0.0000       0.724482        19.7142 
 120   0.0000       0.746140        20.3035 
 121   0.0000       0.746140        20.3035 
 122   0.0000       0.749186        20.3864 
 123   0.0000       0.749186        20.3864 
 124   0.0000       0.749186        20.3864 
 125   0.0000       0.760376        20.6909 
 126   0.0000       0.760377        20.6909 
 127   0.0000       0.760377        20.6909 
 128   0.0000       0.788772        21.4636 
 129   0.0000       0.793673        21.5969 
 130   0.0000       0.793673        21.5969 
 131   0.0000       0.793673        21.5969 
 132   0.0000       0.813900        22.1474 
 133   0.0000       0.813900        22.1474 
 134   0.0000       0.813901        22.1474 
 135   0.0000       0.819775        22.3072 
 136   0.0000       0.819775        22.3072 
 137   0.0000       0.840292        22.8655 
 138   0.0000       0.840293        22.8655 
 139   0.0000       0.840295        22.8656 
 140   0.0000       0.861688        23.4477 
 141   0.0000       0.861688        23.4477 
 142   0.0000       0.861688        23.4477 
 143   0.0000       0.865213        23.5436 
 144   0.0000       0.865223        23.5439 
 145   0.0000       0.865229        23.5441 
 146   0.0000       0.890743        24.2383 
 147   0.0000       0.890743        24.2383 
 148   0.0000       0.890743        24.2383 
 149   0.0000       0.893891        24.3240 
 150   0.0000       0.893891        24.3240 
 151   0.0000       0.893892        24.3240 
 152   0.0000       0.899975        24.4896 
 153   0.0000       0.909186        24.7402 
 154   0.0000       0.909186        24.7402 
 155   0.0000       0.909186        24.7402 
 156   0.0000       0.917732        24.9728 
 157   0.0000       0.926670        25.2160 
 158   0.0000       0.926670        25.2160 
 159   0.0000       0.960983        26.1497 
 160   0.0000       0.960987        26.1498 
 161   0.0000       0.960989        26.1498 
 162   0.0000       0.962147        26.1814 
 163   0.0000       0.962147        26.1814 
 164   0.0000       0.962147        26.1814 
 165   0.0000       0.972935        26.4749 
 166   0.0000       0.977603        26.6019 
 167   0.0000       0.977604        26.6019 
 168   0.0000       0.977604        26.6019 
 169   0.0000       0.985413        26.8144 
 170   0.0000       0.985413        26.8144 
 171   0.0000       1.005477        27.3604 
 172   0.0000       1.005479        27.3605 
 173   0.0000       1.005481        27.3605 
 174   0.0000       1.058221        28.7957 
 175   0.0000       1.058236        28.7961 
 176   0.0000       1.058238        28.7961 
 177   0.0000       1.165253        31.7081 
 178   0.0000       1.165257        31.7083 
 179   0.0000       1.165260        31.7083 
 180   0.0000       1.187217        32.3058 
 181   0.0000       1.198273        32.6067 
 182   0.0000       1.198273        32.6067 
 183   0.0000       1.377584        37.4860 
 184   0.0000       1.377584        37.4860 
 185   0.0000       1.377584        37.4860 
 186   0.0000       1.400873        38.1197 
 187   0.0000       1.400873        38.1197 
 188   0.0000       1.416637        38.5487 
 189   0.0000       1.416637        38.5487 
 190   0.0000       1.416637        38.5487 
 191   0.0000       1.512879        41.1675 
 192   0.0000       1.550325        42.1865 
 193   0.0000       1.550328        42.1866 
 194   0.0000       1.550329        42.1866 
 195   0.0000       1.605071        43.6762 
 196   0.0000       1.605073        43.6763 
 197   0.0000       1.605074        43.6763 
 198   0.0000       1.609732        43.8030 
 199   0.0000       1.609732        43.8030 
 200   0.0000       1.650008        44.8990 
 201   0.0000       1.650008        44.8990 
 202   0.0000       1.650008        44.8990 
 203   0.0000       1.697249        46.1845 
 204   0.0000       1.713098        46.6158 
 205   0.0000       1.713106        46.6160 
 206   0.0000       1.713107        46.6160 
 207   0.0000       1.854445        50.4620 
 208   0.0000       1.854445        50.4620 
 209   0.0000       1.854445        50.4620 
 210   0.0000       1.937397        52.7192 
 211   0.0000       1.937397        52.7193 
 212   0.0000       1.937397        52.7193 
 213   0.0000       1.988280        54.1039 
 214   0.0000       1.988284        54.1040 
 215   0.0000       1.988287        54.1041 
 216   0.0000       2.215333        60.2823 
 217   0.0000       2.215333        60.2823 
 218   0.0000       2.215333        60.2823 
 219   0.0000       2.234326        60.7991 
 220   0.0000       2.275642        61.9234 
 221   0.0000       2.275642        61.9234 
 222   0.0000       2.340502        63.6883 
 223   0.0000       2.374536        64.6144 
 224   0.0000       2.374536        64.6144 
 225   0.0000       2.374536        64.6144 
 226   0.0000       2.511534        68.3423 
 227   0.0000       2.511534        68.3423 
 228   0.0000       2.560110        69.6641 
 229   0.0000       2.560113        69.6642 
 230   0.0000       2.560114        69.6642 
 231   0.0000       2.668601        72.6163 
 232   0.0000       2.732775        74.3626 
 233   0.0000       2.732777        74.3626 
 234   0.0000       2.732777        74.3627 
 235   0.0000       3.052432        83.0609 
 236   0.0000       3.052432        83.0609 
 237   0.0000       3.052432        83.0609 
 238   0.0000       3.094794        84.2136 
 239   0.0000       3.094794        84.2136 
 240   0.0000       3.094794        84.2136 
 241   0.0000       3.134621        85.2974 
 242   0.0000       3.134621        85.2974 
 243   0.0000       3.374936        91.8367 
 244   0.0000       3.374936        91.8367 
 245   0.0000       3.374936        91.8367 
 246   0.0000       3.467329        94.3508 
 247   0.0000       3.467329        94.3508 
 248   0.0000       3.467329        94.3508 
 249   0.0000       3.540131        96.3319 
 250   0.0000       3.650842        99.3445 
 251   0.0000       3.650843        99.3445 
 252   0.0000       3.650844        99.3445 
 253   0.0000       3.782686       102.9321 
 254   0.0000       3.782686       102.9321 
 255   0.0000       3.782686       102.9321 
 256   0.0000       3.814716       103.8037 
 257   0.0000       3.814718       103.8037 
 258   0.0000       3.814718       103.8038 
 259   0.0000       3.931496       106.9814 
 260   0.0000       3.943460       107.3070 
 261   0.0000       3.943460       107.3070 
 262   0.0000       3.943460       107.3070 
 263   0.0000       3.973462       108.1234 
 264   0.0000       3.973462       108.1234 
 265   0.0000       4.116575       112.0177 
 266   0.0000       4.207209       114.4840 
 267   0.0000       4.207209       114.4840 
 268   0.0000       4.250327       115.6573 
 269   0.0000       4.250328       115.6573 
 270   0.0000       4.250329       115.6573 
 271   0.0000       4.306902       117.1968 
 272   0.0000       4.306902       117.1968 
 273   0.0000       4.306902       117.1968 
 274   0.0000       4.346443       118.2727 
 275   0.0000       4.346443       118.2727 
 276   0.0000       4.458867       121.3319 
 277   0.0000       4.520458       123.0079 
 278   0.0000       4.520459       123.0079 
 279   0.0000       4.520459       123.0079 
 280   0.0000       4.663951       126.9126 
 281   0.0000       4.663951       126.9126 
 282   0.0000       4.663951       126.9126 
 283   0.0000       4.674283       127.1937 
 284   0.0000       4.674283       127.1937 
 285   0.0000       4.674283       127.1937 
 286   0.0000       4.976464       135.4165 
 287   0.0000       5.079762       138.2273 
 288   0.0000       5.079763       138.2274 
 289   0.0000       5.079763       138.2274 
 290   0.0000       5.183915       141.0615 
 291   0.0000       5.266972       143.3216 
 292   0.0000       5.266972       143.3216 
 293   0.0000       5.342867       145.3868 
 294   0.0000       5.342867       145.3868 
 295   0.0000       5.342867       145.3868 
 296   0.0000       5.446105       148.1960 
 297   0.0000       5.446105       148.1960 
 298   0.0000       5.446105       148.1961 
 299   0.0000       5.847729       159.1248 
 300   0.0000       5.847729       159.1248 
 301   0.0000       5.847729       159.1248 
 302   0.0000       5.859987       159.4583 
 303   0.0000       5.859987       159.4583 
 304   0.0000       5.859987       159.4583 
 305   0.0000       5.995511       163.1462 
 306   0.0000       5.995511       163.1462 
 307   0.0000       5.995511       163.1462 
 308   0.0000       6.057387       164.8299 
 309   0.0000       6.346384       172.6939 
 310   0.0000       6.346384       172.6939 
 311   0.0000       6.355088       172.9307 
 312   0.0000       6.551643       178.2793 
 313   0.0000       6.551643       178.2793 
 314   0.0000       6.796042       184.9297 
 315   0.0000       6.796042       184.9297 
 316   0.0000       6.796042       184.9297 
 317   0.0000       6.827598       185.7884 
 318   0.0000       6.827598       185.7884 
 319   0.0000       6.827598       185.7884 
 320   0.0000       6.900301       187.7667 
 321   0.0000       6.900302       187.7668 
 322   0.0000       6.900302       187.7668 
 323   0.0000       7.755674       211.0426 
 324   0.0000       7.755675       211.0426 
 325   0.0000       7.755675       211.0426 
 326   0.0000       7.815466       212.6697 
 327   0.0000       8.546017       232.5490 
 328   0.0000       8.546017       232.5490 
 329   0.0000       8.546017       232.5490 
 330   0.0000       8.966036       243.9782 
 331   0.0000       8.966036       243.9782 
 332   0.0000       8.976912       244.2742 
 333   0.0000       8.976912       244.2742 
 334   0.0000       8.976913       244.2742 
 335   0.0000       9.046215       246.1600 
 336   0.0000       9.046216       246.1600 
 337   0.0000       9.046216       246.1600 
 338   0.0000       9.047723       246.2010 
 339   0.0000       9.047723       246.2010 
 340   0.0000       9.047723       246.2010 
 341   0.0000       9.147841       248.9254 
 342   0.0000       9.147841       248.9254 
 343   0.0000       9.147841       248.9254 
 344   0.0000       9.354830       254.5579 
 345   0.0000       9.354830       254.5579 
 346   0.0000       9.577103       260.6062 
 347   0.0000       9.577104       260.6062 
 348   0.0000       9.577104       260.6062 
 349   0.0000       9.710365       264.2325 
 350   0.0000       9.710365       264.2325 
 351   0.0000       9.901181       269.4248 
 352   0.0000       9.970591       271.3136 
 353   0.0000       9.970591       271.3136 
 354   0.0000       9.970591       271.3136 
 355   0.0000      10.822845       294.5046 
 356   0.0000      10.822845       294.5046 
 357   0.0000      10.822845       294.5046 
 358   0.0000      11.047529       300.6185 
 359   0.0000      11.047529       300.6185 
 360   0.0000      11.047529       300.6185 
 361   0.0000      11.166397       303.8531 
 362   0.0000      11.265411       306.5474 
 363   0.0000      11.265411       306.5474 
 364   0.0000      11.265411       306.5474 
 365   0.0000      11.418137       310.7033 
 366   0.0000      11.418137       310.7033 
 367   0.0000      11.418137       310.7033 
 368   0.0000      11.532364       313.8116 
 369   0.0000      11.765519       320.1561 
 370   0.0000      11.765519       320.1561 
 371   0.0000      12.175289       331.3065 
 372   0.0000      12.179594       331.4236 
 373   0.0000      12.179594       331.4236 
 374   0.0000      12.179594       331.4236 
 375   0.0000      12.230917       332.8202 
 376   0.0000      12.230917       332.8202 
 377   0.0000      12.230917       332.8202 
 378   0.0000      12.247657       333.2757 
 379   0.0000      12.247657       333.2757 
 380   0.0000      12.414676       337.8205 
 381   0.0000      12.414676       337.8205 
 382   0.0000      12.414676       337.8205 
 383   0.0000      12.465460       339.2024 
 384   0.0000      12.537082       341.1513 
 385   0.0000      12.537082       341.1513 
 386   0.0000      12.537082       341.1513 
 387   0.0000      12.755280       347.0888 
 388   0.0000      12.755280       347.0888 
 389   0.0000      12.866301       350.1098 
 390   0.0000      12.890263       350.7619 
 391   0.0000      12.890263       350.7619 
 392   0.0000      12.890263       350.7619 
 393   0.0000      12.970747       352.9520 
 394   0.0000      12.970747       352.9520 
 395   0.0000      12.970747       352.9520 
 396   0.0000      13.223237       359.8226 
 397   0.0000      13.223237       359.8226 
 398   0.0000      13.223237       359.8226 
 399   0.0000      13.558585       368.9478 
 400   0.0000      13.558585       368.9478 
 401   0.0000      13.582101       369.5878 
 402   0.0000      13.583719       369.6318 
 403   0.0000      13.583720       369.6318 
 404   0.0000      13.583720       369.6318 
 405   0.0000      14.064038       382.7019 
 406   0.0000      14.064038       382.7019 
 407   0.0000      14.064038       382.7019 
 408   0.0000      14.636645       398.2834 
 409   0.0000      14.636645       398.2834 
 410   0.0000      14.636645       398.2834 
 411   0.0000      14.900178       405.4544 
 412   0.0000      14.900178       405.4545 
 413   0.0000      14.900178       405.4545 
 414   0.0000      15.598172       424.4478 
 415   0.0000      15.598172       424.4478 
 416   0.0000      15.598172       424.4478 
 417   0.0000      16.014667       435.7812 
 418   0.0000      16.148693       439.4283 
 419   0.0000      16.148693       439.4283 
 420   0.0000      16.286234       443.1710 
 421   0.0000      16.286234       443.1710 
 422   0.0000      16.286234       443.1710 
 423   0.0000      16.706017       454.5938 
 424   0.0000      16.755315       455.9353 
 425   0.0000      16.755315       455.9353 
 426   0.0000      16.755315       455.9353 
 427   0.0000      16.822722       457.7695 
 428   0.0000      16.822722       457.7695 
 429   0.0000      16.822722       457.7695 
 430   0.0000      16.828041       457.9143 
 431   0.0000      16.828041       457.9143 
 432   0.0000      17.326037       471.4654 
 433   0.0000      17.326037       471.4654 
 434   0.0000      17.326037       471.4654 
 435   0.0000      17.430232       474.3007 
 436   0.0000      17.446310       474.7382 
 437   0.0000      17.446310       474.7382 
 438   0.0000      17.446310       474.7382 
 439   0.0000      18.076023       491.8736 
 440   0.0000      18.531433       504.2659 
 441   0.0000      18.531433       504.2659 
 442   0.0000      18.531433       504.2659 
 443   0.0000      18.580738       505.6076 
 444   0.0000      18.580738       505.6076 
 445   0.0000      19.194266       522.3025 
 446   0.0000      19.194266       522.3025 
 447   0.0000      19.194266       522.3025 
 448   0.0000      19.818480       539.2883 
 449   0.0000      19.818480       539.2883 
 450   0.0000      19.818480       539.2883 
 451   0.0000      20.120199       547.4984 
 452   0.0000      20.120199       547.4984 
 453   0.0000      20.120199       547.4984 
 454   0.0000      20.363291       554.1133 
 455   0.0000      20.363291       554.1133 
 456   0.0000      20.363292       554.1133 
 457   0.0000      21.151884       575.5720 
 458   0.0000      21.151884       575.5720 
 459   0.0000      21.486861       584.6872 
 460   0.0000      21.784954       592.7987 
 461   0.0000      21.784954       592.7987 
 462   0.0000      21.784954       592.7987 
 463   0.0000      23.447201       638.0308 
 464   0.0000      23.447201       638.0308 
 465   0.0000      23.447201       638.0308 
 466   0.0000      23.881043       649.8362 
 467   0.0000      23.881043       649.8362 
 468   0.0000      23.881043       649.8362 
 469   0.0000      24.206545       658.6936 
 470   0.0000      24.206545       658.6936 
 471   0.0000      25.694521       699.1834 
 472   0.0000      25.766474       701.1414 
 473   0.0000      25.766474       701.1414 
 474   0.0000      25.766474       701.1414 
 475   0.0000      32.748008       891.1186 
 476   0.0000      32.748008       891.1186 
 477   0.0000      34.039179       926.2531 
 478   0.0000      34.039179       926.2531 
 479   0.0000      34.039179       926.2531 
 480   0.0000      41.209234      1121.3603 
 481   0.0000      41.209234      1121.3603 
 482   0.0000      41.209234      1121.3603 
 483   0.0000      41.864826      1139.1998 
 484   0.0000      78.870853      2146.1850 
 485   0.0000      91.032179      2477.1115 
 486   0.0000      91.032179      2477.1115 
 487   0.0000      91.032179      2477.1115 
 488   0.0000      91.286577      2484.0340 
 489   0.0000      91.286577      2484.0340 
 490   0.0000      91.286577      2484.0340 
 491   0.0000      91.549491      2491.1883 
 492   0.0000      91.549491      2491.1883 
 493   0.0000      92.485139      2516.6486 
 494   0.0000      92.516869      2517.5120 
 495   0.0000      92.516869      2517.5120 
 496   0.0000      92.516869      2517.5120 

                 SPIN DOWN ORBITALS
  NO   OCC          E(Eh)            E(eV) 
   0   1.0000      -9.862636      -268.3760 
   1   1.0000      -0.627345       -17.0709 
   2   1.0000      -0.347519        -9.4565 
   3   1.0000      -0.347519        -9.4565 
   4   1.0000      -0.347519        -9.4565 
   5   0.0000      -0.014752        -0.4014 
   6   0.0000       0.017465         0.4752 
   7   0.0000       0.017465         0.4752 
   8   0.0000       0.017465         0.4752 
   9   0.0000       0.036611         0.9962 
  10   0.0000       0.037402         1.0178 
  11   0.0000       0.037403         1.0178 
  12   0.0000       0.037403         1.0178 
  13   0.0000       0.069787         1.8990 
  14   0.0000       0.069787         1.8990 
  15   0.0000       0.074956         2.0397 
  16   0.0000       0.074957         2.0397 
  17   0.0000       0.074957         2.0397 
  18   0.0000       0.081291         2.2120 
  19   0.0000       0.081292         2.2121 
  20   0.0000       0.081294         2.2121 
  21   0.0000       0.115727         3.1491 
  22   0.0000       0.123398         3.3578 
  23   0.0000       0.123399         3.3578 
  24   0.0000       0.123399         3.3578 
  25   0.0000       0.130205         3.5431 
  26   0.0000       0.130206         3.5431 
  27   0.0000       0.130206         3.5431 
  28   0.0000       0.132615         3.6086 
  29   0.0000       0.160383         4.3642 
  30   0.0000       0.160388         4.3644 
  31   0.0000       0.160393         4.3645 
  32   0.0000       0.174298         4.7429 
  33   0.0000       0.174298         4.7429 
  34   0.0000       0.193707         5.2710 
  35   0.0000       0.193707         5.2710 
  36   0.0000       0.193708         5.2710 
  37   0.0000       0.198562         5.4032 
  38   0.0000       0.198562         5.4032 
  39   0.0000       0.229602         6.2478 
  40   0.0000       0.229604         6.2478 
  41   0.0000       0.229605         6.2479 
  42   0.0000       0.234300         6.3756 
  43   0.0000       0.234300         6.3756 
  44   0.0000       0.234300         6.3756 
  45   0.0000       0.237151         6.4532 
  46   0.0000       0.256882         6.9901 
  47   0.0000       0.270283         7.3548 
  48   0.0000       0.270283         7.3548 
  49   0.0000       0.270283         7.3548 
  50   0.0000       0.289909         7.8888 
  51   0.0000       0.289912         7.8889 
  52   0.0000       0.289917         7.8890 
  53   0.0000       0.296574         8.0702 
  54   0.0000       0.296585         8.0705 
  55   0.0000       0.296597         8.0708 
  56   0.0000       0.302157         8.2221 
  57   0.0000       0.315110         8.5746 
  58   0.0000       0.315111         8.5746 
  59   0.0000       0.315111         8.5746 
  60   0.0000       0.319256         8.6874 
  61   0.0000       0.319256         8.6874 
  62   0.0000       0.319256         8.6874 
  63   0.0000       0.321525         8.7492 
  64   0.0000       0.321525         8.7492 
  65   0.0000       0.362276         9.8580 
  66   0.0000       0.362278         9.8581 
  67   0.0000       0.362279         9.8581 
  68   0.0000       0.367573        10.0022 
  69   0.0000       0.367573        10.0022 
  70   0.0000       0.429916        11.6986 
  71   0.0000       0.429917        11.6986 
  72   0.0000       0.429917        11.6986 
  73   0.0000       0.436995        11.8912 
  74   0.0000       0.436995        11.8913 
  75   0.0000       0.438956        11.9446 
  76   0.0000       0.450944        12.2708 
  77   0.0000       0.450946        12.2709 
  78   0.0000       0.450947        12.2709 
  79   0.0000       0.454208        12.3596 
  80   0.0000       0.454208        12.3596 
  81   0.0000       0.454208        12.3596 
  82   0.0000       0.462942        12.5973 
  83   0.0000       0.468447        12.7471 
  84   0.0000       0.472219        12.8497 
  85   0.0000       0.472221        12.8498 
  86   0.0000       0.472223        12.8498 
  87   0.0000       0.490408        13.3447 
  88   0.0000       0.490408        13.3447 
  89   0.0000       0.490408        13.3447 
  90   0.0000       0.499263        13.5856 
  91   0.0000       0.499263        13.5856 
  92   0.0000       0.499511        13.5924 
  93   0.0000       0.499515        13.5925 
  94   0.0000       0.499520        13.5926 
  95   0.0000       0.524332        14.2678 
  96   0.0000       0.529757        14.4154 
  97   0.0000       0.529757        14.4154 
  98   0.0000       0.529757        14.4154 
  99   0.0000       0.537395        14.6233 
 100   0.0000       0.537395        14.6233 
 101   0.0000       0.537396        14.6233 
 102   0.0000       0.570485        15.5237 
 103   0.0000       0.575874        15.6703 
 104   0.0000       0.575885        15.6706 
 105   0.0000       0.575898        15.6710 
 106   0.0000       0.606656        16.5080 
 107   0.0000       0.606656        16.5080 
 108   0.0000       0.606656        16.5080 
 109   0.0000       0.633643        17.2423 
 110   0.0000       0.633643        17.2423 
 111   0.0000       0.651123        17.7180 
 112   0.0000       0.651125        17.7180 
 113   0.0000       0.651128        17.7181 
 114   0.0000       0.674817        18.3627 
 115   0.0000       0.674824        18.3629 
 116   0.0000       0.674827        18.3630 
 117   0.0000       0.693332        18.8665 
 118   0.0000       0.693332        18.8665 
 119   0.0000       0.724482        19.7142 
 120   0.0000       0.746140        20.3035 
 121   0.0000       0.746140        20.3035 
 122   0.0000       0.749186        20.3864 
 123   0.0000       0.749186        20.3864 
 124   0.0000       0.749186        20.3864 
 125   0.0000       0.760376        20.6909 
 126   0.0000       0.760377        20.6909 
 127   0.0000       0.760377        20.6909 
 128   0.0000       0.788772        21.4636 
 129   0.0000       0.793673        21.5969 
 130   0.0000       0.793673        21.5969 
 131   0.0000       0.793673        21.5969 
 132   0.0000       0.813900        22.1474 
 133   0.0000       0.813900        22.1474 
 134   0.0000       0.813901        22.1474 
 135   0.0000       0.819775        22.3072 
 136   0.0000       0.819775        22.3072 
 137   0.0000       0.840292        22.8655 
 138   0.0000       0.840293        22.8655 
 139   0.0000       0.840295        22.8656 
 140   0.0000       0.861688        23.4477 
 141   0.0000       0.861688        23.4477 
 142   0.0000       0.861688        23.4477 
 143   0.0000       0.865213        23.5436 
 144   0.0000       0.865223        23.5439 
 145   0.0000       0.865229        23.5441 
 146   0.0000       0.890743        24.2383 
 147   0.0000       0.890743        24.2383 
 148   0.0000       0.890743        24.2383 
 149   0.0000       0.893891        24.3240 
 150   0.0000       0.893891        24.3240 
 151   0.0000       0.893892        24.3240 
 152   0.0000       0.899975        24.4896 
 153   0.0000       0.909186        24.7402 
 154   0.0000       0.909186        24.7402 
 155   0.0000       0.909186        24.7402 
 156   0.0000       0.917732        24.9728 
 157   0.0000       0.926670        25.2160 
 158   0.0000       0.926670        25.2160 
 159   0.0000       0.960983        26.1497 
 160   0.0000       0.960987        26.1498 
 161   0.0000       0.960989        26.1498 
 162   0.0000       0.962147        26.1814 
 163   0.0000       0.962147        26.1814 
 164   0.0000       0.962147        26.1814 
 165   0.0000       0.972935        26.4749 
 166   0.0000       0.977603        26.6019 
 167   0.0000       0.977604        26.6019 
 168   0.0000       0.977604        26.6019 
 169   0.0000       0.985413        26.8144 
 170   0.0000       0.985413        26.8144 
 171   0.0000       1.005477        27.3604 
 172   0.0000       1.005479        27.3605 
 173   0.0000       1.005481        27.3605 
 174   0.0000       1.058221        28.7957 
 175   0.0000       1.058236        28.7961 
 176   0.0000       1.058238        28.7961 
 177   0.0000       1.165253        31.7081 
 178   0.0000       1.165257        31.7083 
 179   0.0000       1.165260        31.7083 
 180   0.0000       1.187217        32.3058 
 181   0.0000       1.198273        32.6067 
 182   0.0000       1.198273        32.6067 
 183   0.0000       1.377584        37.4860 
 184   0.0000       1.377584        37.4860 
 185   0.0000       1.377584        37.4860 
 186   0.0000       1.400873        38.1197 
 187   0.0000       1.400873        38.1197 
 188   0.0000       1.416637        38.5487 
 189   0.0000       1.416637        38.5487 
 190   0.0000       1.416637        38.5487 
 191   0.0000       1.512879        41.1675 
 192   0.0000       1.550325        42.1865 
 193   0.0000       1.550328        42.1866 
 194   0.0000       1.550329        42.1866 
 195   0.0000       1.605071        43.6762 
 196   0.0000       1.605073        43.6763 
 197   0.0000       1.605074        43.6763 
 198   0.0000       1.609732        43.8030 
 199   0.0000       1.609732        43.8030 
 200   0.0000       1.650008        44.8990 
 201   0.0000       1.650008        44.8990 
 202   0.0000       1.650008        44.8990 
 203   0.0000       1.697249        46.1845 
 204   0.0000       1.713098        46.6158 
 205   0.0000       1.713106        46.6160 
 206   0.0000       1.713107        46.6160 
 207   0.0000       1.854445        50.4620 
 208   0.0000       1.854445        50.4620 
 209   0.0000       1.854445        50.4620 
 210   0.0000       1.937397        52.7192 
 211   0.0000       1.937397        52.7193 
 212   0.0000       1.937397        52.7193 
 213   0.0000       1.988280        54.1039 
 214   0.0000       1.988284        54.1040 
 215   0.0000       1.988287        54.1041 
 216   0.0000       2.215333        60.2823 
 217   0.0000       2.215333        60.2823 
 218   0.0000       2.215333        60.2823 
 219   0.0000       2.234326        60.7991 
 220   0.0000       2.275642        61.9234 
 221   0.0000       2.275642        61.9234 
 222   0.0000       2.340502        63.6883 
 223   0.0000       2.374536        64.6144 
 224   0.0000       2.374536        64.6144 
 225   0.0000       2.374536        64.6144 
 226   0.0000       2.511534        68.3423 
 227   0.0000       2.511534        68.3423 
 228   0.0000       2.560110        69.6641 
 229   0.0000       2.560113        69.6642 
 230   0.0000       2.560114        69.6642 
 231   0.0000       2.668601        72.6163 
 232   0.0000       2.732775        74.3626 
 233   0.0000       2.732777        74.3626 
 234   0.0000       2.732777        74.3627 
 235   0.0000       3.052432        83.0609 
 236   0.0000       3.052432        83.0609 
 237   0.0000       3.052432        83.0609 
 238   0.0000       3.094794        84.2136 
 239   0.0000       3.094794        84.2136 
 240   0.0000       3.094794        84.2136 
 241   0.0000       3.134621        85.2974 
 242   0.0000       3.134621        85.2974 
 243   0.0000       3.374936        91.8367 
 244   0.0000       3.374936        91.8367 
 245   0.0000       3.374936        91.8367 
 246   0.0000       3.467329        94.3508 
 247   0.0000       3.467329        94.3508 
 248   0.0000       3.467329        94.3508 
 249   0.0000       3.540131        96.3319 
 250   0.0000       3.650842        99.3445 
 251   0.0000       3.650843        99.3445 
 252   0.0000       3.650844        99.3445 
 253   0.0000       3.782686       102.9321 
 254   0.0000       3.782686       102.9321 
 255   0.0000       3.782686       102.9321 
 256   0.0000       3.814716       103.8037 
 257   0.0000       3.814718       103.8037 
 258   0.0000       3.814718       103.8038 
 259   0.0000       3.931496       106.9814 
 260   0.0000       3.943460       107.3070 
 261   0.0000       3.943460       107.3070 
 262   0.0000       3.943460       107.3070 
 263   0.0000       3.973462       108.1234 
 264   0.0000       3.973462       108.1234 
 265   0.0000       4.116575       112.0177 
 266   0.0000       4.207209       114.4840 
 267   0.0000       4.207209       114.4840 
 268   0.0000       4.250327       115.6573 
 269   0.0000       4.250328       115.6573 
 270   0.0000       4.250329       115.6573 
 271   0.0000       4.306902       117.1968 
 272   0.0000       4.306902       117.1968 
 273   0.0000       4.306902       117.1968 
 274   0.0000       4.346443       118.2727 
 275   0.0000       4.346443       118.2727 
 276   0.0000       4.458867       121.3319 
 277   0.0000       4.520458       123.0079 
 278   0.0000       4.520459       123.0079 
 279   0.0000       4.520459       123.0079 
 280   0.0000       4.663951       126.9126 
 281   0.0000       4.663951       126.9126 
 282   0.0000       4.663951       126.9126 
 283   0.0000       4.674283       127.1937 
 284   0.0000       4.674283       127.1937 
 285   0.0000       4.674283       127.1937 
 286   0.0000       4.976464       135.4165 
 287   0.0000       5.079762       138.2273 
 288   0.0000       5.079763       138.2274 
 289   0.0000       5.079763       138.2274 
 290   0.0000       5.183915       141.0615 
 291   0.0000       5.266972       143.3216 
 292   0.0000       5.266972       143.3216 
 293   0.0000       5.342867       145.3868 
 294   0.0000       5.342867       145.3868 
 295   0.0000       5.342867       145.3868 
 296   0.0000       5.446105       148.1960 
 297   0.0000       5.446105       148.1960 
 298   0.0000       5.446105       148.1961 
 299   0.0000       5.847729       159.1248 
 300   0.0000       5.847729       159.1248 
 301   0.0000       5.847729       159.1248 
 302   0.0000       5.859987       159.4583 
 303   0.0000       5.859987       159.4583 
 304   0.0000       5.859987       159.4583 
 305   0.0000       5.995511       163.1462 
 306   0.0000       5.995511       163.1462 
 307   0.0000       5.995511       163.1462 
 308   0.0000       6.057387       164.8299 
 309   0.0000       6.346384       172.6939 
 310   0.0000       6.346384       172.6939 
 311   0.0000       6.355088       172.9307 
 312   0.0000       6.551643       178.2793 
 313   0.0000       6.551643       178.2793 
 314   0.0000       6.796042       184.9297 
 315   0.0000       6.796042       184.9297 
 316   0.0000       6.796042       184.9297 
 317   0.0000       6.827598       185.7884 
 318   0.0000       6.827598       185.7884 
 319   0.0000       6.827598       185.7884 
 320   0.0000       6.900301       187.7667 
 321   0.0000       6.900302       187.7668 
 322   0.0000       6.900302       187.7668 
 323   0.0000       7.755674       211.0426 
 324   0.0000       7.755675       211.0426 
 325   0.0000       7.755675       211.0426 
 326   0.0000       7.815466       212.6697 
 327   0.0000       8.546017       232.5490 
 328   0.0000       8.546017       232.5490 
 329   0.0000       8.546017       232.5490 
 330   0.0000       8.966036       243.9782 
 331   0.0000       8.966036       243.9782 
 332   0.0000       8.976912       244.2742 
 333   0.0000       8.976912       244.2742 
 334   0.0000       8.976913       244.2742 
 335   0.0000       9.046215       246.1600 
 336   0.0000       9.046216       246.1600 
 337   0.0000       9.046216       246.1600 
 338   0.0000       9.047723       246.2010 
 339   0.0000       9.047723       246.2010 
 340   0.0000       9.047723       246.2010 
 341   0.0000       9.147841       248.9254 
 342   0.0000       9.147841       248.9254 
 343   0.0000       9.147841       248.9254 
 344   0.0000       9.354830       254.5579 
 345   0.0000       9.354830       254.5579 
 346   0.0000       9.577103       260.6062 
 347   0.0000       9.577104       260.6062 
 348   0.0000       9.577104       260.6062 
 349   0.0000       9.710365       264.2325 
 350   0.0000       9.710365       264.2325 
 351   0.0000       9.901181       269.4248 
 352   0.0000       9.970591       271.3136 
 353   0.0000       9.970591       271.3136 
 354   0.0000       9.970591       271.3136 
 355   0.0000      10.822845       294.5046 
 356   0.0000      10.822845       294.5046 
 357   0.0000      10.822845       294.5046 
 358   0.0000      11.047529       300.6185 
 359   0.0000      11.047529       300.6185 
 360   0.0000      11.047529       300.6185 
 361   0.0000      11.166397       303.8531 
 362   0.0000      11.265411       306.5474 
 363   0.0000      11.265411       306.5474 
 364   0.0000      11.265411       306.5474 
 365   0.0000      11.418137       310.7033 
 366   0.0000      11.418137       310.7033 
 367   0.0000      11.418137       310.7033 
 368   0.0000      11.532364       313.8116 
 369   0.0000      11.765519       320.1561 
 370   0.0000      11.765519       320.1561 
 371   0.0000      12.175289       331.3065 
 372   0.0000      12.179594       331.4236 
 373   0.0000      12.179594       331.4236 
 374   0.0000      12.179594       331.4236 
 375   0.0000      12.230917       332.8202 
 376   0.0000      12.230917       332.8202 
 377   0.0000      12.230917       332.8202 
 378   0.0000      12.247657       333.2757 
 379   0.0000      12.247657       333.2757 
 380   0.0000      12.414676       337.8205 
 381   0.0000      12.414676       337.8205 
 382   0.0000      12.414676       337.8205 
 383   0.0000      12.465460       339.2024 
 384   0.0000      12.537082       341.1513 
 385   0.0000      12.537082       341.1513 
 386   0.0000      12.537082       341.1513 
 387   0.0000      12.755280       347.0888 
 388   0.0000      12.755280       347.0888 
 389   0.0000      12.866301       350.1098 
 390   0.0000      12.890263       350.7619 
 391   0.0000      12.890263       350.7619 
 392   0.0000      12.890263       350.7619 
 393   0.0000      12.970747       352.9520 
 394   0.0000      12.970747       352.9520 
 395   0.0000      12.970747       352.9520 
 396   0.0000      13.223237       359.8226 
 397   0.0000      13.223237       359.8226 
 398   0.0000      13.223237       359.8226 
 399   0.0000      13.558585       368.9478 
 400   0.0000      13.558585       368.9478 
 401   0.0000      13.582101       369.5878 
 402   0.0000      13.583719       369.6318 
 403   0.0000      13.583720       369.6318 
 404   0.0000      13.583720       369.6318 
 405   0.0000      14.064038       382.7019 
 406   0.0000      14.064038       382.7019 
 407   0.0000      14.064038       382.7019 
 408   0.0000      14.636645       398.2834 
 409   0.0000      14.636645       398.2834 
 410   0.0000      14.636645       398.2834 
 411   0.0000      14.900178       405.4544 
 412   0.0000      14.900178       405.4545 
 413   0.0000      14.900178       405.4545 
 414   0.0000      15.598172       424.4478 
 415   0.0000      15.598172       424.4478 
 416   0.0000      15.598172       424.4478 
 417   0.0000      16.014667       435.7812 
 418   0.0000      16.148693       439.4283 
 419   0.0000      16.148693       439.4283 
 420   0.0000      16.286234       443.1710 
 421   0.0000      16.286234       443.1710 
 422   0.0000      16.286234       443.1710 
 423   0.0000      16.706017       454.5938 
 424   0.0000      16.755315       455.9353 
 425   0.0000      16.755315       455.9353 
 426   0.0000      16.755315       455.9353 
 427   0.0000      16.822722       457.7695 
 428   0.0000      16.822722       457.7695 
 429   0.0000      16.822722       457.7695 
 430   0.0000      16.828041       457.9143 
 431   0.0000      16.828041       457.9143 
 432   0.0000      17.326037       471.4654 
 433   0.0000      17.326037       471.4654 
 434   0.0000      17.326037       471.4654 
 435   0.0000      17.430232       474.3007 
 436   0.0000      17.446310       474.7382 
 437   0.0000      17.446310       474.7382 
 438   0.0000      17.446310       474.7382 
 439   0.0000      18.076023       491.8736 
 440   0.0000      18.531433       504.2659 
 441   0.0000      18.531433       504.2659 
 442   0.0000      18.531433       504.2659 
 443   0.0000      18.580738       505.6076 
 444   0.0000      18.580738       505.6076 
 445   0.0000      19.194266       522.3025 
 446   0.0000      19.194266       522.3025 
 447   0.0000      19.194266       522.3025 
 448   0.0000      19.818480       539.2883 
 449   0.0000      19.818480       539.2883 
 450   0.0000      19.818480       539.2883 
 451   0.0000      20.120199       547.4984 
 452   0.0000      20.120199       547.4984 
 453   0.0000      20.120199       547.4984 
 454   0.0000      20.363291       554.1133 
 455   0.0000      20.363291       554.1133 
 456   0.0000      20.363292       554.1133 
 457   0.0000      21.151884       575.5720 
 458   0.0000      21.151884       575.5720 
 459   0.0000      21.486861       584.6872 
 460   0.0000      21.784954       592.7987 
 461   0.0000      21.784954       592.7987 
 462   0.0000      21.784954       592.7987 
 463   0.0000      23.447201       638.0308 
 464   0.0000      23.447201       638.0308 
 465   0.0000      23.447201       638.0308 
 466   0.0000      23.881043       649.8362 
 467   0.0000      23.881043       649.8362 
 468   0.0000      23.881043       649.8362 
 469   0.0000      24.206545       658.6936 
 470   0.0000      24.206545       658.6936 
 471   0.0000      25.694521       699.1834 
 472   0.0000      25.766474       701.1414 
 473   0.0000      25.766474       701.1414 
 474   0.0000      25.766474       701.1414 
 475   0.0000      32.748008       891.1186 
 476   0.0000      32.748008       891.1186 
 477   0.0000      34.039179       926.2531 
 478   0.0000      34.039179       926.2531 
 479   0.0000      34.039179       926.2531 
 480   0.0000      41.209234      1121.3603 
 481   0.0000      41.209234      1121.3603 
 482   0.0000      41.209234      1121.3603 
 483   0.0000      41.864826      1139.1998 
 484   0.0000      78.870853      2146.1850 
 485   0.0000      91.032179      2477.1115 
 486   0.0000      91.032179      2477.1115 
 487   0.0000      91.032179      2477.1115 
 488   0.0000      91.286577      2484.0340 
 489   0.0000      91.286577      2484.0340 
 490   0.0000      91.286577      2484.0340 
 491   0.0000      91.549491      2491.1883 
 492   0.0000      91.549491      2491.1883 
 493   0.0000      92.485139      2516.6486 
 494   0.0000      92.516869      2517.5120 
 495   0.0000      92.516869      2517.5120 
 496   0.0000      92.516869      2517.5120 

                    ********************************
                    * MULLIKEN POPULATION ANALYSIS *
                    ********************************

--------------------------------------------
MULLIKEN ATOMIC CHARGES AND SPIN POPULATIONS
--------------------------------------------
   0 C :   -0.039573   -0.000000
   1 H :    0.009903   -0.000000
   2 H :    0.009894   -0.000000
   3 H :    0.009893    0.000000
   4 H :    0.009882    0.000000
Sum of atomic charges         :    0.0000000
Sum of atomic spin populations:    0.0000000

-----------------------------------------------------
MULLIKEN REDUCED ORBITAL CHARGES AND SPIN POPULATIONS
-----------------------------------------------------
CHARGE
  0 C s       :     3.118995  s :     3.118995
      pz      :     0.961118  p :     2.883359
      px      :     0.961118
      py      :     0.961123
      dz2     :    -0.000000  d :     0.035211
      dxz     :     0.011737
      dyz     :     0.011737
      dx2y2   :    -0.000000
      dxy     :     0.011737
      f0      :    -0.000005  f :     0.001688
      f+1     :    -0.000002
      f-1     :    -0.000002
      f+2     :     0.000000
      f-2     :     0.001703
      f+3     :    -0.000003
      f-3     :    -0.000003
      g0      :     0.000060  g :     0.000327
      g+1     :     0.000009
      g-1     :     0.000009
      g+2     :     0.000000
      g-2     :     0.000074
      g+3     :     0.000065
      g-3     :     0.000065
      g+4     :     0.000043
      g-4     :     0.000000
      h0      :    -0.000002  h :    -0.000007
      h+1     :    -0.000002
      h-1     :    -0.000002
      h+2     :     0.000000
      h-2     :     0.000000
      h+3     :     0.000002
      h-3     :     0.000002
      h+4     :    -0.000000
      h-4     :     0.000000
      h+5     :    -0.000002
      h-5     :    -0.000002
  1 H s       :     0.929911  s :     0.929911
      pz      :     0.019377  p :     0.058131
      px      :     0.019377
      py      :     0.019377
      dz2     :     0.003294  d :     0.001348
      dxz     :    -0.001747
      dyz     :    -0.001747
      dx2y2   :     0.003294
      dxy     :    -0.001747
      f0      :     0.000015  f :     0.000591
      f+1     :     0.000138
      f-1     :     0.000138
      f+2     :     0.000212
      f-2     :    -0.000091
      f+3     :     0.000089
      f-3     :     0.000089
      g0      :    -0.000021  g :     0.000116
      g+1     :     0.000012
      g-1     :     0.000012
      g+2     :    -0.000017
      g-2     :     0.000051
      g+3     :     0.000046
      g-3     :     0.000046
      g+4     :    -0.000020
      g-4     :     0.000006
  2 H s       :     0.929915  s :     0.929915
      pz      :     0.019378  p :     0.058135
      px      :     0.019379
      py      :     0.019378
      dz2     :     0.003294  d :     0.001349
      dxz     :    -0.001746
      dyz     :    -0.001746
      dx2y2   :     0.003294
      dxy     :    -0.001746
      f0      :     0.000016  f :     0.000591
      f+1     :     0.000138
      f-1     :     0.000138
      f+2     :     0.000212
      f-2     :    -0.000091
      f+3     :     0.000089
      f-3     :     0.000089
      g0      :    -0.000021  g :     0.000116
      g+1     :     0.000012
      g-1     :     0.000012
      g+2     :    -0.000017
      g-2     :     0.000051
      g+3     :     0.000046
      g-3     :     0.000046
      g+4     :    -0.000020
      g-4     :     0.000006
  3 H s       :     0.929914  s :     0.929914
      pz      :     0.019378  p :     0.058136
      px      :     0.019378
      py      :     0.019380
      dz2     :     0.003294  d :     0.001350
      dxz     :    -0.001746
      dyz     :    -0.001746
      dx2y2   :     0.003294
      dxy     :    -0.001746
      f0      :     0.000016  f :     0.000591
      f+1     :     0.000138
      f-1     :     0.000138
      f+2     :     0.000212
      f-2     :    -0.000091
      f+3     :     0.000089
      f-3     :     0.000089
      g0      :    -0.000021  g :     0.000116
      g+1     :     0.000012
      g-1     :     0.000012
      g+2     :    -0.000016
      g-2     :     0.000051
      g+3     :     0.000046
      g-3     :     0.000046
      g+4     :    -0.000020
      g-4     :     0.000006
  4 H s       :     0.929923  s :     0.929923
      pz      :     0.019380  p :     0.058138
      px      :     0.019379
      py      :     0.019379
      dz2     :     0.003294  d :     0.001350
      dxz     :    -0.001746
      dyz     :    -0.001746
      dx2y2   :     0.003294
      dxy     :    -0.001746
      f0      :     0.000016  f :     0.000591
      f+1     :     0.000138
      f-1     :     0.000138
      f+2     :     0.000212
      f-2     :    -0.000091
      f+3     :     0.000089
      f-3     :     0.000089
      g0      :    -0.000021  g :     0.000116
      g+1     :     0.000012
      g-1     :     0.000012
      g+2     :    -0.000017
      g-2     :     0.000051
      g+3     :     0.000046
      g-3     :     0.000046
      g+4     :    -0.000020
      g-4     :     0.000006

SPIN
  0 C s       :    -0.000000  s :    -0.000000
      pz      :     0.000000  p :     0.000000
      px      :    -0.000000
      py      :     0.000000
      dz2     :     0.000000  d :     0.000000
      dxz     :    -0.000000
      dyz     :    -0.000000
      dx2y2   :     0.000000
      dxy     :     0.000000
      f0      :     0.000000  f :     0.000000
      f+1     :     0.000000
      f-1     :     0.000000
      f+2     :    -0.000000
      f-2     :    -0.000000
      f+3     :     0.000000
      f-3     :     0.000000
      g0      :    -0.000000  g :    -0.000000
      g+1     :     0.000000
      g-1     :    -0.000000
      g+2     :    -0.000000
      g-2     :    -0.000000
      g+3     :     0.000000
      g-3     :    -0.000000
      g+4     :     0.000000
      g-4     :     0.000000
      h0      :     0.000000  h :    -0.000000
      h+1     :    -0.000000
      h-1     :     0.000000
      h+2     :    -0.000000
      h-2     :    -0.000000
      h+3     :    -0.000000
      h-3     :     0.000000
      h+4     :    -0.000000
      h-4     :    -0.000000
      h+5     :    -0.000000
      h-5     :     0.000000
  1 H s       :    -0.000000  s :    -0.000000
      pz      :     0.000000  p :    -0.000000
      px      :    -0.000000
      py      :    -0.000000
      dz2     :    -0.000000  d :     0.000000
      dxz     :     0.000000
      dyz     :     0.000000
      dx2y2   :     0.000000
      dxy     :    -0.000000
      f0      :     0.000000  f :     0.000000
      f+1     :     0.000000
      f-1     :    -0.000000
      f+2     :     0.000000
      f-2     :     0.000000
      f+3     :     0.000000
      f-3     :    -0.000000
      g0      :     0.000000  g :     0.000000
      g+1     :    -0.000000
      g-1     :    -0.000000
      g+2     :     0.000000
      g-2     :     0.000000
      g+3     :     0.000000
      g-3     :    -0.000000
      g+4     :    -0.000000
      g-4     :     0.000000
  2 H s       :    -0.000000  s :    -0.000000
      pz      :     0.000000  p :     0.000000
      px      :     0.000000
      py      :    -0.000000
      dz2     :    -0.000000  d :     0.000000
      dxz     :     0.000000
      dyz     :     0.000000
      dx2y2   :    -0.000000
      dxy     :     0.000000
      f0      :    -0.000000  f :     0.000000
      f+1     :     0.000000
      f-1     :     0.000000
      f+2     :    -0.000000
      f-2     :     0.000000
      f+3     :     0.000000
      f-3     :    -0.000000
      g0      :     0.000000  g :     0.000000
      g+1     :    -0.000000
      g-1     :    -0.000000
      g+2     :     0.000000
      g-2     :     0.000000
      g+3     :    -0.000000
      g-3     :     0.000000
      g+4     :     0.000000
      g-4     :    -0.000000
  3 H s       :     0.000000  s :     0.000000
      pz      :     0.000000  p :    -0.000000
      px      :    -0.000000
      py      :    -0.000000
      dz2     :    -0.000000  d :    -0.000000
      dxz     :     0.000000
      dyz     :    -0.000000
      dx2y2   :    -0.000000
      dxy     :    -0.000000
      f0      :    -0.000000  f :    -0.000000
      f+1     :     0.000000
      f-1     :    -0.000000
      f+2     :    -0.000000
      f-2     :    -0.000000
      f+3     :    -0.000000
      f-3     :    -0.000000
      g0      :     0.000000  g :    -0.000000
      g+1     :    -0.000000
      g-1     :    -0.000000
      g+2     :     0.000000
      g-2     :     0.000000
      g+3     :    -0.000000
      g-3     :    -0.000000
      g+4     :    -0.000000
      g-4     :    -0.000000
  4 H s       :     0.000000  s :     0.000000
      pz      :     0.000000  p :     0.000000
      px      :     0.000000
      py      :     0.000000
      dz2     :    -0.000000  d :     0.000000
      dxz     :     0.000000
      dyz     :     0.000000
      dx2y2   :     0.000000
      dxy     :     0.000000
      f0      :     0.000000  f :     0.000000
      f+1     :    -0.000000
      f-1     :     0.000000
      f+2     :     0.000000
      f-2     :     0.000000
      f+3     :     0.000000
      f-3     :     0.000000
      g0      :     0.000000  g :     0.000000
      g+1     :    -0.000000
      g-1     :    -0.000000
      g+2     :     0.000000
      g-2     :    -0.000000
      g+3     :     0.000000
      g-3     :     0.000000
      g+4     :     0.000000
      g-4     :     0.000000


                     *******************************
                     * LOEWDIN POPULATION ANALYSIS *
                     *******************************

-------------------------------------------
LOEWDIN ATOMIC CHARGES AND SPIN POPULATIONS
-------------------------------------------
   0 C :    1.155819   -0.000000
   1 H :   -0.288955   -0.000000
   2 H :   -0.288955    0.000000
   3 H :   -0.288955    0.000000
   4 H :   -0.288955    0.000000

----------------------------------------------------
LOEWDIN REDUCED ORBITAL CHARGES AND SPIN POPULATIONS
----------------------------------------------------
CHARGE
  0 C s       :     2.432564  s :     2.432564
      pz      :     0.727319  p :     2.181957
      px      :     0.727319
      py      :     0.727319
      dz2     :    -0.000000  d :     0.191306
      dxz     :     0.063769
      dyz     :     0.063769
      dx2y2   :     0.000000
      dxy     :     0.063769
      f0      :     0.007779  f :     0.034632
      f+1     :     0.002917
      f-1     :     0.002917
      f+2     :     0.000000
      f-2     :     0.011296
      f+3     :     0.004862
      f-3     :     0.004862
      g0      :     0.000375  g :     0.002520
      g+1     :     0.000078
      g-1     :     0.000078
      g+2     :     0.000000
      g-2     :     0.000626
      g+3     :     0.000547
      g-3     :     0.000547
      g+4     :     0.000268
      g-4     :     0.000000
      h0      :     0.000375  h :     0.001202
      h+1     :     0.000089
      h-1     :     0.000089
      h+2     :     0.000000
      h-2     :     0.000000
      h+3     :     0.000130
      h-3     :     0.000130
      h+4     :     0.000026
      h-4     :     0.000000
      h+5     :     0.000182
      h-5     :     0.000182
  1 H s       :     0.632163  s :     0.632163
      pz      :     0.106264  p :     0.318792
      px      :     0.106264
      py      :     0.106264
      dz2     :     0.047487  d :     0.239297
      dxz     :     0.048108
      dyz     :     0.048108
      dx2y2   :     0.047487
      dxy     :     0.048108
      f0      :     0.003250  f :     0.078229
      f+1     :     0.014015
      f-1     :     0.014015
      f+2     :     0.020474
      f-2     :     0.007057
      f+3     :     0.009709
      f-3     :     0.009709
      g0      :     0.002865  g :     0.020473
      g+1     :     0.000708
      g-1     :     0.000708
      g+2     :     0.005106
      g-2     :     0.002555
      g+3     :     0.002291
      g-3     :     0.002291
      g+4     :     0.003505
      g-4     :     0.000444
  2 H s       :     0.632163  s :     0.632163
      pz      :     0.106264  p :     0.318792
      px      :     0.106264
      py      :     0.106264
      dz2     :     0.047487  d :     0.239297
      dxz     :     0.048108
      dyz     :     0.048108
      dx2y2   :     0.047487
      dxy     :     0.048108
      f0      :     0.003250  f :     0.078229
      f+1     :     0.014015
      f-1     :     0.014015
      f+2     :     0.020474
      f-2     :     0.007057
      f+3     :     0.009709
      f-3     :     0.009709
      g0      :     0.002865  g :     0.020473
      g+1     :     0.000708
      g-1     :     0.000708
      g+2     :     0.005106
      g-2     :     0.002555
      g+3     :     0.002291
      g-3     :     0.002291
      g+4     :     0.003505
      g-4     :     0.000444
  3 H s       :     0.632163  s :     0.632163
      pz      :     0.106264  p :     0.318792
      px      :     0.106264
      py      :     0.106264
      dz2     :     0.047487  d :     0.239297
      dxz     :     0.048108
      dyz     :     0.048108
      dx2y2   :     0.047487
      dxy     :     0.048108
      f0      :     0.003250  f :     0.078229
      f+1     :     0.014015
      f-1     :     0.014015
      f+2     :     0.020474
      f-2     :     0.007057
      f+3     :     0.009709
      f-3     :     0.009709
      g0      :     0.002865  g :     0.020473
      g+1     :     0.000708
      g-1     :     0.000708
      g+2     :     0.005106
      g-2     :     0.002555
      g+3     :     0.002291
      g-3     :     0.002291
      g+4     :     0.003505
      g-4     :     0.000444
  4 H s       :     0.632163  s :     0.632163
      pz      :     0.106264  p :     0.318792
      px      :     0.106264
      py      :     0.106264
      dz2     :     0.047487  d :     0.239297
      dxz     :     0.048108
      dyz     :     0.048108
      dx2y2   :     0.047487
      dxy     :     0.048108
      f0      :     0.003250  f :     0.078229
      f+1     :     0.014015
      f-1     :     0.014015
      f+2     :     0.020474
      f-2     :     0.007057
      f+3     :     0.009709
      f-3     :     0.009709
      g0      :     0.002865  g :     0.020473
      g+1     :     0.000708
      g-1     :     0.000708
      g+2     :     0.005106
      g-2     :     0.002555
      g+3     :     0.002291
      g-3     :     0.002291
      g+4     :     0.003505
      g-4     :     0.000444

SPIN
  0 C s       :    -0.000000  s :    -0.000000
      pz      :     0.000000  p :     0.000000
      px      :    -0.000000
      py      :    -0.000000
      dz2     :     0.000000  d :     0.000000
      dxz     :     0.000000
      dyz     :     0.000000
      dx2y2   :     0.000000
      dxy     :     0.000000
      f0      :     0.000000  f :     0.000000
      f+1     :     0.000000
      f-1     :     0.000000
      f+2     :    -0.000000
      f-2     :    -0.000000
      f+3     :     0.000000
      f-3     :     0.000000
      g0      :     0.000000  g :     0.000000
      g+1     :     0.000000
      g-1     :     0.000000
      g+2     :     0.000000
      g-2     :    -0.000000
      g+3     :     0.000000
      g-3     :     0.000000
      g+4     :     0.000000
      g-4     :    -0.000000
      h0      :    -0.000000  h :    -0.000000
      h+1     :     0.000000
      h-1     :     0.000000
      h+2     :    -0.000000
      h-2     :     0.000000
      h+3     :    -0.000000
      h-3     :    -0.000000
      h+4     :     0.000000
      h-4     :     0.000000
      h+5     :    -0.000000
      h-5     :    -0.000000
  1 H s       :    -0.000000  s :    -0.000000
      pz      :    -0.000000  p :     0.000000
      px      :     0.000000
      py      :     0.000000
      dz2     :     0.000000  d :    -0.000000
      dxz     :    -0.000000
      dyz     :    -0.000000
      dx2y2   :    -0.000000
      dxy     :    -0.000000
      f0      :    -0.000000  f :     0.000000
      f+1     :     0.000000
      f-1     :    -0.000000
      f+2     :     0.000000
      f-2     :     0.000000
      f+3     :     0.000000
      f-3     :    -0.000000
      g0      :     0.000000  g :     0.000000
      g+1     :     0.000000
      g-1     :     0.000000
      g+2     :     0.000000
      g-2     :    -0.000000
      g+3     :     0.000000
      g-3     :    -0.000000
      g+4     :     0.000000
      g-4     :    -0.000000
  2 H s       :     0.000000  s :     0.000000
      pz      :     0.000000  p :    -0.000000
      px      :    -0.000000
      py      :    -0.000000
      dz2     :    -0.000000  d :    -0.000000
      dxz     :    -0.000000
      dyz     :     0.000000
      dx2y2   :    -0.000000
      dxy     :    -0.000000
      f0      :    -0.000000  f :     0.000000
      f+1     :     0.000000
      f-1     :     0.000000
      f+2     :     0.000000
      f-2     :     0.000000
      f+3     :     0.000000
      f-3     :     0.000000
      g0      :     0.000000  g :     0.000000
      g+1     :    -0.000000
      g-1     :    -0.000000
      g+2     :     0.000000
      g-2     :     0.000000
      g+3     :     0.000000
      g-3     :    -0.000000
      g+4     :     0.000000
      g-4     :     0.000000
  3 H s       :     0.000000  s :     0.000000
      pz      :     0.000000  p :     0.000000
      px      :     0.000000
      py      :    -0.000000
      dz2     :     0.000000  d :     0.000000
      dxz     :     0.000000
      dyz     :    -0.000000
      dx2y2   :    -0.000000
      dxy     :     0.000000
      f0      :     0.000000  f :     0.000000
      f+1     :    -0.000000
      f-1     :     0.000000
      f+2     :    -0.000000
      f-2     :     0.000000
      f+3     :     0.000000
      f-3     :     0.000000
      g0      :    -0.000000  g :    -0.000000
      g+1     :     0.000000
      g-1     :     0.000000
      g+2     :     0.000000
      g-2     :    -0.000000
      g+3     :    -0.000000
      g-3     :     0.000000
      g+4     :     0.000000
      g-4     :     0.000000
  4 H s       :     0.000000  s :     0.000000
      pz      :    -0.000000  p :     0.000000
      px      :     0.000000
      py      :     0.000000
      dz2     :    -0.000000  d :    -0.000000
      dxz     :    -0.000000
      dyz     :    -0.000000
      dx2y2   :    -0.000000
      dxy     :     0.000000
      f0      :    -0.000000  f :    -0.000000
      f+1     :     0.000000
      f-1     :     0.000000
      f+2     :    -0.000000
      f-2     :    -0.000000
      f+3     :    -0.000000
      f-3     :    -0.000000
      g0      :     0.000000  g :    -0.000000
      g+1     :     0.000000
      g-1     :     0.000000
      g+2     :     0.000000
      g-2     :    -0.000000
      g+3     :    -0.000000
      g-3     :     0.000000
      g+4     :    -0.000000
      g-4     :    -0.000000


                      *****************************
                      * MAYER POPULATION ANALYSIS *
                      *****************************

  NA   - Mulliken gross atomic population
  ZA   - Total nuclear charge
  QA   - Mulliken gross atomic charge
  VA   - Mayer's total valence
  BVA  - Mayer's bonded valence
  FA   - Mayer's free valence

  ATOM       NA         ZA         QA         VA         BVA        FA
  0 C      6.0396     6.0000    -0.0396     3.9870     3.9870     0.0000
  1 H      0.9901     1.0000     0.0099     1.0605     1.0605     0.0000
  2 H      0.9901     1.0000     0.0099     1.0605     1.0605     0.0000
  3 H      0.9901     1.0000     0.0099     1.0605     1.0605     0.0000
  4 H      0.9901     1.0000     0.0099     1.0605     1.0605     0.0000

  Mayer bond orders larger than 0.1
B(  0-C ,  1-H ) :   0.9967 B(  0-C ,  2-H ) :   0.9968 B(  0-C ,  3-H ) :   0.9968 
B(  0-C ,  4-H ) :   0.9968 

-------
TIMINGS
-------

Total SCF time: 0 days 0 hours 20 min 29 sec 

Total time                  ....    1229.555 sec
Sum of individual times     ....    1228.518 sec  ( 99.9%)

Fock matrix formation       ....    1223.452 sec  ( 99.5%)
  XC integration            ....      26.186 sec  (  2.1% of F)
    Basis function eval.    ....       1.335 sec  (  5.1% of XC)
    Density eval.           ....       6.712 sec  ( 25.6% of XC)
    XC-Functional eval.     ....       0.502 sec  (  1.9% of XC)
    XC-Potential eval.      ....      16.972 sec  ( 64.8% of XC)
Diagonalization             ....       2.202 sec  (  0.2%)
Density matrix formation    ....       0.028 sec  (  0.0%)
Population analysis         ....       0.195 sec  (  0.0%)
Initial guess               ....       1.228 sec  (  0.1%)
Orbital Transformation      ....       0.000 sec  (  0.0%)
Orbital Orthonormalization  ....       0.000 sec  (  0.0%)
DIIS solution               ....       1.048 sec  (  0.1%)
Grid generation             ....       0.365 sec  (  0.0%)

-------------------------   --------------------
FINAL SINGLE POINT ENERGY       -40.468101068639
-------------------------   --------------------


                            ***************************************
                            *     ORCA property calculations      *
                            ***************************************

                                    ---------------------
                                    Active property flags
                                    ---------------------
   (+) Dipole Moment
   (+) Polarizability


------------------------------------------------------------------------------
                       ORCA ELECTRIC PROPERTIES CALCULATION
------------------------------------------------------------------------------

Dipole Moment Calculation                       ... on
Quadrupole Moment Calculation                   ... off
Polarizability Calculation                      ... Analytic (CP-SCF)
GBWName                                         ... ch4_pbe.gbw
Electron density file                           ... ch4_pbe.scfp.tmp
The origin for moment calculation is the CENTER OF MASS  = ( 0.000000,  0.000000  0.000000)

-------------
DIPOLE MOMENT
-------------
                                X             Y             Z
Electronic contribution:     -0.00000      -0.00000       0.00000
Nuclear contribution   :      0.00000       0.00000       0.00000
                        -----------------------------------------
Total Dipole Moment    :     -0.00000      -0.00000       0.00000
                        -----------------------------------------
Magnitude (a.u.)       :      0.00000
Magnitude (Debye)      :      0.00000



--------------------
Rotational spectrum 
--------------------
 
Rotational constants in cm-1:     5.307384     5.307384     5.307384 
Rotational constants in MHz : 159111.369944 159111.369944 159111.369944 

 Dipole components along the rotational axes: 
x,y,z [a.u.] :    -0.000000    -0.000000     0.000000 
x,y,z [Debye]:    -0.000000    -0.000000     0.000000 

 
Transforming and storing MO dipole integrals   ... done

                ... starting polarizability calculation

Opening the Dipole integral file               ... (ch4_pbe.dmo.tmp) done
Reading Dipole-MO integrals                    ... done
Solving CP-SCF equations                       ... 

           ************************************************************
           *        Program running with 4 parallel MPI-processes     *
           *              working on a common directory               *
           ************************************************************

------------------------------------------------------------------------------
                           ORCA CP-SCF CALCULATION
------------------------------------------------------------------------------

Input orbitals are from        ... ch4_pbe.gbw
Input Perturbation             ... ch4_pbe.cpv.tmp
Wavefunction output            ... ch4_pbe.cpu.tmp
Perturbation mode              ... Real perturbation (singlet)
Solver                         ... POPLE
Max. number of iterations      ... 200
Convergence tolerance          ... 1.000e-06
Integral handling              ... Direct
Number of perturbations        ... 3
Number of operators            ... 2
Orbital ranges used for CP-SCF:
 Operator 0:  Orbitals   0...  4  to   5...496
 Operator 1:  Orbitals   0...  4  to   5...496
DFT calculation                         ... on
Exchange functional (SCF)               ... PBE
Exchange functional (CP-SCF)            ... PBE
   PBE kappa parameter  XKappa (SCF)    ...  0.804000
   PBE kappa parameter  XKappa (CP-SCF) ...  0.804000
   PBE mue parameter   XMuePBE (SCF)    ...  0.219520
   PBE mue parameter   XMuePBE (CP-SCF) ...  0.219520
Correlation functional (SCF)            ... PBE
Correlation functional (CP-SCF)         ... PBE
   PBE beta parameter CBetaPBE (SCF)    ...  0.066725
   PBE beta parameter CBetaPBE (CP-SCF) ...  0.066725
 LDA part of GGA corr.  LDAOpt (SCF)    ... PW91-LDA
 LDA part of GGA corr.  LDAOpt (CP-SCF) ... PW91-LDA
Variables per vector in CP-SCF ... 4920
Number of vectors sought       ... 3
Recalculating density on grid  ... done
Calculating the xc-kernel      ... done
     CP-SCF ITERATION   0: 
     CP-SCF ITERATION   1:      0.006852406904
     CP-SCF ITERATION   2:      0.000052821630
     CP-SCF ITERATION   3:      0.000000304642
done
Reading CP-SCF coefficients                    ... done
Doing the polarizability tensor   ... done
Cleaning up                                    ... done

-------------------------
THE POLARIZABILITY TENSOR
-------------------------

The raw cartesian tensor (atomic units):
   17.44547     -0.00000      0.00000  
   -0.00000     17.44547      0.00000  
    0.00000      0.00000     17.44547  
diagonalized tensor: 
   17.44547     17.44547     17.44547  

   -0.83946      0.54321     -0.01548  
   -0.37001     -0.59221     -0.71581  
    0.39800      0.59516     -0.69812  

Isotropic polarizability :  17.44547


Timings for individual modules:

Sum of individual times         ...     1989.825 sec (=  33.164 min)
GTO integral calculation        ...        1.510 sec (=   0.025 min)   0.1 %
SCF iterations                  ...     1229.839 sec (=  20.497 min)  61.8 %
Solution of CP-SCF eqns.        ...      758.476 sec (=  12.641 min)  38.1 %
                             ****ORCA TERMINATED NORMALLY****
TOTAL RUN TIME: 0 days 0 hours 33 minutes 11 seconds 164 msec
