
                                 *****************
                                 * O   R   C   A *
                                 *****************

           --- An Ab Initio, DFT and Semiempirical electronic structure package ---

                  #######################################################
                  #                        -***-                        #
                  #          Department of theory and spectroscopy      #
                  #               Directorship: Frank Neese             #
                  #        Max Planck Institute fuer Kohlenforschung    #
                  #                Kaiser Wilhelm Platz 1               #
                  #                 D-45470 Muelheim/Ruhr               #
                  #                      Germany                        #
                  #                                                     #
                  #                  All rights reserved                #
                  #                        -***-                        #
                  #######################################################


                         Program Version 4.1.2  - RELEASE  -


 With contributions from (in alphabetic order):
   Daniel Aravena         : Magnetic Properties
   Michael Atanasov       : Ab Initio Ligand Field Theory
   Alexander A. Auer      : GIAO ZORA
   Ute Becker             : Parallelization
   Giovanni Bistoni       : ED, Open-shell LED
   Martin Brehm           : Molecular dynamics
   Dmytro Bykov           : SCF Hessian
   Vijay G. Chilkuri      : MRCI spin determinant printing
   Dipayan Datta          : RHF DLPNO-CCSD density
   Achintya Kumar Dutta   : EOM-CC, STEOM-CC
   Dmitry Ganyushin       : Spin-Orbit,Spin-Spin,Magnetic field MRCI
   Miquel Garcia          : C-PCM Hessian
   Yang Guo               : DLPNO-NEVPT2, CIM, IAO-localization
   Andreas Hansen         : Spin unrestricted coupled pair/coupled cluster methods
   Benjamin Helmich-Paris : CASSCF linear response (MC-RPA)
   Lee Huntington         : MR-EOM, pCC
   Robert Izsak           : Overlap fitted RIJCOSX, COSX-SCS-MP3, EOM
   Christian Kollmar      : KDIIS, OOCD, Brueckner-CCSD(T), CCSD density
   Simone Kossmann        : Meta GGA functionals, TD-DFT gradient, OOMP2, MP2 Hessian
   Martin Krupicka        : AUTO-CI
   Lucas Lang             : DCDCAS
   Dagmar Lenk            : GEPOL surface, SMD
   Dimitrios Liakos       : Extrapolation schemes; parallel MDCI
   Dimitrios Manganas     : ROCIS; embedding schemes
   Dimitrios Pantazis     : SARC Basis sets
   Taras Petrenko         : DFT Hessian,TD-DFT gradient, ASA, ECA, R-Raman, ABS, FL, XAS/XES, NRVS
   Peter Pinski           : DLPNO-MP2, DLPNO-MP2 Gradient
   Christoph Reimann      : Effective Core Potentials
   Marius Retegan         : Local ZFS, SOC
   Christoph Riplinger    : Optimizer, TS searches, QM/MM, DLPNO-CCSD(T), (RO)-DLPNO pert. Triples
   Tobias Risthaus        : Range-separated hybrids, TD-DFT gradient, RPA, STAB
   Michael Roemelt        : Restricted open shell CIS
   Masaaki Saitow         : Open-shell DLPNO
   Barbara Sandhoefer     : DKH picture change effects
   Avijit Sen             : IP-ROCIS
   Kantharuban Sivalingam : CASSCF convergence, NEVPT2, FIC-MRCI
   Bernardo de Souza      : ESD, SOC TD-DFT
   Georgi Stoychev        : AutoAux, RI-MP2 NMR
   Willem Van den Heuvel  : Paramagnetic NMR
   Boris Wezisla          : Elementary symmetry handling
   Frank Wennmohs         : Technical directorship


 We gratefully acknowledge several colleagues who have allowed us to
 interface, adapt or use parts of their codes:
   Stefan Grimme, W. Hujo, H. Kruse,             : VdW corrections, initial TS optimization,
                  C. Bannwarth                     DFT functionals, gCP, sTDA/sTD-DF
   Ed Valeev                                     : LibInt (2-el integral package), F12 methods
   Garnet Chan, S. Sharma, J. Yang, R. Olivares  : DMRG
   Ulf Ekstrom                                   : XCFun DFT Library
   Mihaly Kallay                                 : mrcc  (arbitrary order and MRCC methods)
   Andreas Klamt, Michael Diedenhofen            : otool_cosmo (COSMO solvation model)
   Jiri Pittner, Ondrej Demel                    : Mk-CCSD
   Frank Weinhold                                : gennbo (NPA and NBO analysis)
   Christopher J. Cramer and Donald G. Truhlar   : smd solvation model
   Lars Goerigk                                  : TD-DFT with DH, B97 family of functionals
   V. Asgeirsson, H. Jonsson                     : NEB implementation
   FAccTs GmbH                                   : IRC, NEB, NEB-TS, Multilevel


 Your calculation uses the libint2 library for the computation of 2-el integrals
 For citations please refer to: http://libint.valeyev.net

 This ORCA versions uses:
   CBLAS   interface :  Fast vector & matrix operations
   LAPACKE interface :  Fast linear algebra routines
   SCALAPACK package :  Parallel linear algebra routines


----- Orbital basis set information -----
Your calculation utilizes the basis: aug-pc-4
   H, C-F              : F. Jensen, J. Chem. Phys. 115, 9113 (2001).
                         F. Jensen, J. Chem. Phys. 116, 7372 (2002).
                         F. Jensen, J. Chem. Phys. 117, 9234 (2002).
   Si-Cl               : F. Jensen, T. Helgaker, J. Chem. Phys. 121, 3463 (2004).
   He-B, Ne-Mg, Al, Ar : F. Jensen, J. Phys. Chem. A 111, 11198 (2007).
   K, Ca, Ga-Kr        : F. Jensen, J. Chem. Phys. 136, 094110 (2012).
   Sc-Zn               : F. Jensen, J. Chem. Phys. 138, 014107 (2013).

================================================================================
                                        WARNINGS
                       Please study these warnings very carefully!
================================================================================


INFO   : the flag for use of LIBINT has been found!

================================================================================
                                       INPUT FILE
================================================================================
NAME = clcn_pbe.inp
|  1> !uks pbe nori aug-pc-4 grid5 nofinalgrid verytightscf
|  2> 
|  3> %maxcore 1500
|  4> 
|  5> %pal nprocs 4 end
|  6> 
|  7> %scf
|  8> 	maxiter 200
|  9> end
| 10> %elprop
| 11> 	dipole true
| 12> 	 polar 1
| 13> 	 maxiter 200
| 14> end
| 15> 
| 16> * xyz 0 1
| 17> Cl 0.0000 0.0000 1.6290
| 18> C 0.0000 0.0000 0.0000
| 19> N 0.0000 0.0000 -1.1606
| 20> *
| 21> 
| 22>                          ****END OF INPUT****
================================================================================

                       ****************************
                       * Single Point Calculation *
                       ****************************

---------------------------------
CARTESIAN COORDINATES (ANGSTROEM)
---------------------------------
  Cl     0.000000    0.000000    1.629000
  C      0.000000    0.000000    0.000000
  N      0.000000    0.000000   -1.160600

----------------------------
CARTESIAN COORDINATES (A.U.)
----------------------------
  NO LB      ZA    FRAG     MASS         X           Y           Z
   0 Cl   17.0000    0    35.453    0.000000    0.000000    3.078364
   1 C     6.0000    0    12.011    0.000000    0.000000    0.000000
   2 N     7.0000    0    14.007    0.000000    0.000000   -2.193216

--------------------------------
INTERNAL COORDINATES (ANGSTROEM)
--------------------------------
 Cl     0   0   0     0.000000000000     0.00000000     0.00000000
 C      1   0   0     1.629000000000     0.00000000     0.00000000
 N      2   1   0     1.160600000000   179.99999915     0.00000000

---------------------------
INTERNAL COORDINATES (A.U.)
---------------------------
 Cl     0   0   0     0.000000000000     0.00000000     0.00000000
 C      1   0   0     3.078363872158     0.00000000     0.00000000
 N      2   1   0     2.193216151029   179.99999915     0.00000000

---------------------
BASIS SET INFORMATION
---------------------
There are 3 groups of distinct atoms

 Group   1 Type Cl  : 44s27p7d4f3g2h contracted to 8s7p7d4f3g2h pattern {15121211111/111111111/1111111/1111/111/11}
 Group   2 Type C   : 28s12p7d4f3g2h contracted to 9s8p7d4f3g2h pattern {11101111111/51111111/1111111/1111/111/11}
 Group   3 Type N   : 27s12p7d4f3g2h contracted to 9s8p7d4f3g2h pattern {1191111111/51111111/1111111/1111/111/11}

Atom   0Cl   basis set group =>   1
Atom   1C    basis set group =>   2
Atom   2N    basis set group =>   3


           ************************************************************
           *        Program running with 4 parallel MPI-processes     *
           *              working on a common directory               *
           ************************************************************
------------------------------------------------------------------------------
                           ORCA GTO INTEGRAL CALCULATION
------------------------------------------------------------------------------

                         BASIS SET STATISTICS AND STARTUP INFO

 # of primitive gaussian shells          ...  198
 # of primitive gaussian functions       ...  588
 # of contracted shells                  ...   97
 # of contracted basis functions         ...  431
 Highest angular momentum                ...    5
 Maximum contraction depth               ...   15
 Integral package used                   ... LIBINT
 Integral threshhold            Thresh   ...  1.000e-12
 Primitive cut-off              TCut     ...  1.000e-14


------------------------------ INTEGRAL EVALUATION ----------------------------


 * One electron integrals 
 Pre-screening matrix                    ... done
 Shell pair data                         ... done (   0.002 sec)



           ************************************************************
           *        Program running with 4 parallel MPI-processes     *
           *              working on a common directory               *
           ************************************************************
-------------------------------------------------------------------------------
                                 ORCA SCF
-------------------------------------------------------------------------------

------------
SCF SETTINGS
------------
Hamiltonian:
 Density Functional     Method          .... DFT(GTOs)
 Exchange Functional    Exchange        .... PBE
   PBE kappa parameter   XKappa         ....  0.804000
   PBE mue parameter    XMuePBE         ....  0.219520
 Correlation Functional Correlation     .... PBE
   PBE beta parameter  CBetaPBE         ....  0.066725
 LDA part of GGA corr.  LDAOpt          .... PW91-LDA
 Gradients option       PostSCFGGA      .... off
   Density functional embedding theory  .... OFF
   NL short-range parameter             ....  6.400000


General Settings:
 Integral files         IntName         .... clcn_pbe
 Hartree-Fock type      HFTyp           .... UHF
 Total Charge           Charge          ....    0
 Multiplicity           Mult            ....    1
 Number of Electrons    NEL             ....   30
 Basis Dimension        Dim             ....  431
 Nuclear Repulsion      ENuc            ....     74.8583209670 Eh

Convergence Acceleration:
 DIIS                   CNVDIIS         .... on
   Start iteration      DIISMaxIt       ....    12
   Startup error        DIISStart       ....  0.200000
   # of expansion vecs  DIISMaxEq       ....     5
   Bias factor          DIISBfac        ....   1.050
   Max. coefficient     DIISMaxC        ....  10.000
 Newton-Raphson         CNVNR           .... off
 SOSCF                  CNVSOSCF        .... off
 Level Shifting         CNVShift        .... on
   Level shift para.    LevelShift      ....    0.2500
   Turn off err/grad.   ShiftErr        ....    0.0010
 Zerner damping         CNVZerner       .... off
 Static damping         CNVDamp         .... on
   Fraction old density DampFac         ....    0.7000
   Max. Damping (<1)    DampMax         ....    0.9800
   Min. Damping (>=0)   DampMin         ....    0.0000
   Turn off err/grad.   DampErr         ....    0.1000
 Fernandez-Rico         CNVRico         .... off

SCF Procedure:
 Maximum # iterations   MaxIter         ....   200
 SCF integral mode      SCFMode         .... Direct
   Integral package                     .... LIBINT
 Reset frequency        DirectResetFreq ....    20
 Integral Threshold     Thresh          ....  1.000e-12 Eh
 Primitive CutOff       TCut            ....  1.000e-14 Eh

Convergence Tolerance:
 Convergence Check Mode ConvCheckMode   .... Total+1el-Energy
 Convergence forced     ConvForced      .... 0
 Energy Change          TolE            ....  1.000e-09 Eh
 1-El. energy change                    ....  1.000e-06 Eh
 DIIS Error             TolErr          ....  1.000e-08


Diagonalization of the overlap matrix:
Smallest eigenvalue                        ... 3.682e-07
Time for diagonalization                   ...    0.037 sec
Threshold for overlap eigenvalues          ... 1.000e-08
Number of eigenvalues below threshold      ... 0
Time for construction of square roots      ...    0.038 sec
Total time needed                          ...    0.076 sec

-------------------
DFT GRID GENERATION
-------------------

General Integration Accuracy     IntAcc      ...  5.010
Radial Grid Type                 RadialGrid  ... Gauss-Chebyshev
Angular Grid (max. acc.)         AngularGrid ... Lebedev-434
Angular grid pruning method      GridPruning ... 3 (G Style)
Weight generation scheme         WeightScheme... Becke
Basis function cutoff            BFCut       ...    1.0000e-12
Integration weight cutoff        WCut        ...    1.0000e-14
Grids for H and He will be reduced by one unit

# of grid points (after initial pruning)     ...  33172 (   0.0 sec)
# of grid points (after weights+screening)   ...  32807 (   0.0 sec)
nearest neighbour list constructed           ...    0.0 sec
Grid point re-assignment to atoms done       ...    0.0 sec
Grid point division into batches done        ...    0.3 sec
Reduced shell lists constructed in    0.4 sec

Total number of grid points                  ...    32807
Total number of batches                      ...      514
Average number of points per batch           ...       63
Average number of grid points per atom       ...    10936
Average number of shells per batch           ...    58.15 (59.94%)
Average number of basis functions per batch  ...   266.44 (61.82%)
Average number of large shells per batch     ...    49.35 (84.87%)
Average number of large basis fcns per batch ...   226.85 (85.14%)
Maximum spatial batch extension              ...  19.88, 19.88, 14.30 au
Average spatial batch extension              ...   1.37,  1.31,  1.12 au

Time for grid setup =    0.441 sec

------------------------------
INITIAL GUESS: MODEL POTENTIAL
------------------------------
Loading Hartree-Fock densities                     ... done
Calculating cut-offs                               ... done
Setting up the integral package                    ... done
Initializing the effective Hamiltonian             ... done
Starting the Coulomb interaction                   ... done (   0.0 sec)
Reading the grid                                   ... done
Mapping shells                                     ... done
Starting the XC term evaluation                    ... done (   0.7 sec)
  promolecular density results
     # of electrons  =     29.999997480
     EX              =    -38.969579779
     EC              =     -1.083922103
     EX+EC           =    -40.053501881
Transforming the Hamiltonian                       ... done (   0.0 sec)
Diagonalizing the Hamiltonian                      ... done (   0.0 sec)
Back transforming the eigenvectors                 ... done (   0.0 sec)
Now organizing SCF variables                       ... done
                      ------------------
                      INITIAL GUESS DONE (   1.4 sec)
                      ------------------
--------------
SCF ITERATIONS
--------------
ITER       Energy         Delta-E        Max-DP      RMS-DP      [F,P]     Damp
               ***  Starting incremental Fock matrix formation  ***
  0   -552.6420725972   0.000000000000 0.01832673  0.00025258  0.3094598 0.7000
  1   -552.7337987380  -0.091726140716 0.01032292  0.00012297  0.0593231 0.7000
                               ***Turning on DIIS***
  2   -552.7425066286  -0.008707890673 0.02966249  0.00020773  0.0635899 0.0000
  3   -552.7922869484  -0.049780319801 0.02317432  0.00013076  0.0465000 0.0000
  4   -552.7957513772  -0.003464428732 0.01041432  0.00005850  0.0415001 0.0000
  5   -552.7979552175  -0.002203840309 0.00364643  0.00002374  0.0151637 0.0000
  6   -552.7983312298  -0.000376012299 0.00093364  0.00000822  0.0042090 0.0000
  7   -552.7983634250  -0.000032195191 0.00046336  0.00000285  0.0012292 0.0000
  8   -552.7983675962  -0.000004171268 0.00024363  0.00000139  0.0005289 0.0000
  9   -552.7983682432  -0.000000647014 0.00006505  0.00000036  0.0000828 0.0000
 10   -552.7983682587  -0.000000015456 0.00000609  0.00000006  0.0000299 0.0000
 11   -552.7983682597  -0.000000001042 0.00001051  0.00000007  0.0000205 0.0000
 12   -552.7983682604  -0.000000000684 0.00003702  0.00000021  0.0000036 0.0000
 13   -552.7983682604  -0.000000000014 0.00005624  0.00000033  0.0000007 0.0000
 14   -552.7983682605  -0.000000000020 0.00004170  0.00000037  0.0000001 0.0000
 15   -552.7983682605   0.000000000010 0.00003665  0.00000025  0.0000000 0.0000
                 **** Energy Check signals convergence ****

               *****************************************************
               *                     SUCCESS                       *
               *           SCF CONVERGED AFTER  16 CYCLES          *
               *****************************************************


----------------
TOTAL SCF ENERGY
----------------

Total Energy       :         -552.79836826 Eh          -15042.40834 eV

Components:
Nuclear Repulsion  :           74.85832097 Eh            2036.99847 eV
Electronic Energy  :         -627.65668923 Eh          -17079.40681 eV
One Electron Energy:         -908.30341576 Eh          -24716.19249 eV
Two Electron Energy:          280.64672654 Eh            7636.78568 eV

Virial components:
Potential Energy   :        -1104.89449778 Eh          -30065.70780 eV
Kinetic Energy     :          552.09612952 Eh           15023.29945 eV
Virial Ratio       :            2.00127195


DFT components:
N(Alpha)           :       15.000000054890 electrons
N(Beta)            :       15.000000054890 electrons
N(Total)           :       30.000000109780 electrons
E(X)               :      -39.116183698347 Eh       
E(C)               :       -1.087184585288 Eh       
E(XC)              :      -40.203368283635 Eh       
DFET-embed. en.    :        0.000000000000 Eh       

---------------
SCF CONVERGENCE
---------------

  Last Energy change         ...    1.1369e-13  Tolerance :   1.0000e-09
  Last MAX-Density change    ...    2.6386e-05  Tolerance :   1.0000e-08
  Last RMS-Density change    ...    2.0131e-07  Tolerance :   1.0000e-09
  Last DIIS Error            ...    5.7259e-09  Tolerance :   1.0000e-08

             **** THE GBW FILE WAS UPDATED (clcn_pbe.gbw) ****
             **** DENSITY FILE WAS UPDATED (clcn_pbe.scfp.tmp) ****
             **** ENERGY FILE WAS UPDATED (clcn_pbe.en.tmp) ****
----------------------
UHF SPIN CONTAMINATION
----------------------

Warning: in a DFT calculation there is little theoretical justification to 
         calculate <S**2> as in Hartree-Fock theory. We will do it anyways
         but you should keep in mind that the values have only limited relevance

Expectation value of <S**2>     :    -0.000000
Ideal value S*(S+1) for S=0.0   :     0.000000
Deviation                       :    -0.000000

----------------
ORBITAL ENERGIES
----------------
                 SPIN UP ORBITALS
  NO   OCC          E(Eh)            E(eV) 
   0   1.0000    -100.739801     -2741.2694 
   1   1.0000     -14.010375      -381.2417 
   2   1.0000      -9.984453      -271.6908 
   3   1.0000      -9.262233      -252.0382 
   4   1.0000      -7.085886      -192.8168 
   5   1.0000      -7.074402      -192.5043 
   6   1.0000      -7.074402      -192.5043 
   7   1.0000      -0.888215       -24.1696 
   8   1.0000      -0.831390       -22.6233 
   9   1.0000      -0.535938       -14.5836 
  10   1.0000      -0.402030       -10.9398 
  11   1.0000      -0.402030       -10.9398 
  12   1.0000      -0.341608        -9.2956 
  13   1.0000      -0.303414        -8.2563 
  14   1.0000      -0.303414        -8.2563 
  15   0.0000      -0.063595        -1.7305 
  16   0.0000      -0.038392        -1.0447 
  17   0.0000      -0.038392        -1.0447 
  18   0.0000      -0.012812        -0.3486 
  19   0.0000       0.012638         0.3439 
  20   0.0000       0.014358         0.3907 
  21   0.0000       0.014358         0.3907 
  22   0.0000       0.035844         0.9754 
  23   0.0000       0.044070         1.1992 
  24   0.0000       0.044070         1.1992 
  25   0.0000       0.059698         1.6245 
  26   0.0000       0.062895         1.7115 
  27   0.0000       0.062895         1.7115 
  28   0.0000       0.066397         1.8067 
  29   0.0000       0.066397         1.8067 
  30   0.0000       0.071379         1.9423 
  31   0.0000       0.076334         2.0772 
  32   0.0000       0.096870         2.6360 
  33   0.0000       0.096870         2.6360 
  34   0.0000       0.112382         3.0581 
  35   0.0000       0.133458         3.6316 
  36   0.0000       0.133458         3.6316 
  37   0.0000       0.134600         3.6627 
  38   0.0000       0.134600         3.6627 
  39   0.0000       0.153981         4.1900 
  40   0.0000       0.167700         4.5634 
  41   0.0000       0.167700         4.5634 
  42   0.0000       0.183232         4.9860 
  43   0.0000       0.183232         4.9860 
  44   0.0000       0.184279         5.0145 
  45   0.0000       0.184279         5.0145 
  46   0.0000       0.190747         5.1905 
  47   0.0000       0.196815         5.3556 
  48   0.0000       0.196815         5.3556 
  49   0.0000       0.198523         5.4021 
  50   0.0000       0.212081         5.7710 
  51   0.0000       0.236969         6.4482 
  52   0.0000       0.236969         6.4482 
  53   0.0000       0.248454         6.7608 
  54   0.0000       0.248454         6.7608 
  55   0.0000       0.265904         7.2356 
  56   0.0000       0.275281         7.4908 
  57   0.0000       0.286077         7.7845 
  58   0.0000       0.286077         7.7845 
  59   0.0000       0.288983         7.8636 
  60   0.0000       0.288983         7.8636 
  61   0.0000       0.304825         8.2947 
  62   0.0000       0.304825         8.2947 
  63   0.0000       0.315523         8.5858 
  64   0.0000       0.318790         8.6747 
  65   0.0000       0.318790         8.6747 
  66   0.0000       0.327911         8.9229 
  67   0.0000       0.327911         8.9229 
  68   0.0000       0.342324         9.3151 
  69   0.0000       0.342325         9.3151 
  70   0.0000       0.347463         9.4549 
  71   0.0000       0.347463         9.4549 
  72   0.0000       0.381050        10.3689 
  73   0.0000       0.399121        10.8606 
  74   0.0000       0.399121        10.8606 
  75   0.0000       0.415180        11.2976 
  76   0.0000       0.415181        11.2976 
  77   0.0000       0.416199        11.3254 
  78   0.0000       0.435019        11.8375 
  79   0.0000       0.435019        11.8375 
  80   0.0000       0.451349        12.2818 
  81   0.0000       0.451349        12.2818 
  82   0.0000       0.451946        12.2981 
  83   0.0000       0.481240        13.0952 
  84   0.0000       0.481240        13.0952 
  85   0.0000       0.485732        13.2174 
  86   0.0000       0.485732        13.2174 
  87   0.0000       0.495096        13.4722 
  88   0.0000       0.495096        13.4722 
  89   0.0000       0.496471        13.5097 
  90   0.0000       0.499521        13.5927 
  91   0.0000       0.500224        13.6118 
  92   0.0000       0.500224        13.6118 
  93   0.0000       0.522261        14.2114 
  94   0.0000       0.522261        14.2114 
  95   0.0000       0.527818        14.3627 
  96   0.0000       0.527819        14.3627 
  97   0.0000       0.558329        15.1929 
  98   0.0000       0.558329        15.1929 
  99   0.0000       0.562417        15.3042 
 100   0.0000       0.568866        15.4796 
 101   0.0000       0.568866        15.4796 
 102   0.0000       0.584432        15.9032 
 103   0.0000       0.594281        16.1712 
 104   0.0000       0.594281        16.1712 
 105   0.0000       0.598137        16.2761 
 106   0.0000       0.598137        16.2761 
 107   0.0000       0.604532        16.4501 
 108   0.0000       0.651507        17.7284 
 109   0.0000       0.651507        17.7284 
 110   0.0000       0.673371        18.3234 
 111   0.0000       0.673372        18.3234 
 112   0.0000       0.675537        18.3823 
 113   0.0000       0.675538        18.3823 
 114   0.0000       0.698102        18.9963 
 115   0.0000       0.720056        19.5937 
 116   0.0000       0.720056        19.5937 
 117   0.0000       0.746391        20.3103 
 118   0.0000       0.746392        20.3104 
 119   0.0000       0.752605        20.4794 
 120   0.0000       0.752605        20.4794 
 121   0.0000       0.759236        20.6599 
 122   0.0000       0.784619        21.3506 
 123   0.0000       0.786408        21.3993 
 124   0.0000       0.786409        21.3993 
 125   0.0000       0.791113        21.5273 
 126   0.0000       0.791113        21.5273 
 127   0.0000       0.808388        21.9974 
 128   0.0000       0.808390        21.9974 
 129   0.0000       0.830669        22.6036 
 130   0.0000       0.830669        22.6036 
 131   0.0000       0.835085        22.7238 
 132   0.0000       0.835085        22.7238 
 133   0.0000       0.866810        23.5871 
 134   0.0000       0.880536        23.9606 
 135   0.0000       0.880536        23.9606 
 136   0.0000       0.891800        24.2671 
 137   0.0000       0.891802        24.2672 
 138   0.0000       0.903819        24.5942 
 139   0.0000       0.903819        24.5942 
 140   0.0000       0.907837        24.7035 
 141   0.0000       0.941762        25.6267 
 142   0.0000       0.941762        25.6267 
 143   0.0000       0.972951        26.4754 
 144   0.0000       0.972951        26.4754 
 145   0.0000       0.973172        26.4814 
 146   0.0000       0.978499        26.6263 
 147   0.0000       0.978500        26.6263 
 148   0.0000       0.979822        26.6623 
 149   0.0000       0.979822        26.6623 
 150   0.0000       0.992741        27.0138 
 151   0.0000       0.992742        27.0139 
 152   0.0000       1.014693        27.6112 
 153   0.0000       1.054841        28.7037 
 154   0.0000       1.055479        28.7210 
 155   0.0000       1.055480        28.7211 
 156   0.0000       1.080087        29.3907 
 157   0.0000       1.080087        29.3907 
 158   0.0000       1.085779        29.5455 
 159   0.0000       1.085779        29.5456 
 160   0.0000       1.106399        30.1066 
 161   0.0000       1.110820        30.2270 
 162   0.0000       1.110820        30.2270 
 163   0.0000       1.123275        30.5659 
 164   0.0000       1.123275        30.5659 
 165   0.0000       1.181010        32.1369 
 166   0.0000       1.181010        32.1369 
 167   0.0000       1.181273        32.1441 
 168   0.0000       1.210647        32.9434 
 169   0.0000       1.210647        32.9434 
 170   0.0000       1.223549        33.2945 
 171   0.0000       1.245319        33.8869 
 172   0.0000       1.245319        33.8869 
 173   0.0000       1.332845        36.2686 
 174   0.0000       1.332845        36.2686 
 175   0.0000       1.352821        36.8121 
 176   0.0000       1.352821        36.8121 
 177   0.0000       1.372507        37.3478 
 178   0.0000       1.421264        38.6746 
 179   0.0000       1.421266        38.6746 
 180   0.0000       1.484052        40.3831 
 181   0.0000       1.528377        41.5892 
 182   0.0000       1.538063        41.8528 
 183   0.0000       1.538063        41.8528 
 184   0.0000       1.654180        45.0125 
 185   0.0000       1.654180        45.0125 
 186   0.0000       1.710595        46.5476 
 187   0.0000       1.710595        46.5476 
 188   0.0000       1.728086        47.0236 
 189   0.0000       1.859871        50.6097 
 190   0.0000       1.868626        50.8479 
 191   0.0000       1.868626        50.8479 
 192   0.0000       1.872124        50.9431 
 193   0.0000       1.872124        50.9431 
 194   0.0000       1.899482        51.6875 
 195   0.0000       1.899483        51.6876 
 196   0.0000       1.933175        52.6044 
 197   0.0000       1.933175        52.6044 
 198   0.0000       1.934938        52.6523 
 199   0.0000       2.033832        55.3434 
 200   0.0000       2.033832        55.3434 
 201   0.0000       2.150590        58.5205 
 202   0.0000       2.173281        59.1380 
 203   0.0000       2.173286        59.1381 
 204   0.0000       2.195606        59.7455 
 205   0.0000       2.195606        59.7455 
 206   0.0000       2.204184        59.9789 
 207   0.0000       2.306080        62.7516 
 208   0.0000       2.306081        62.7517 
 209   0.0000       2.379182        64.7408 
 210   0.0000       2.379182        64.7408 
 211   0.0000       2.410417        65.5908 
 212   0.0000       2.410417        65.5908 
 213   0.0000       2.439800        66.3903 
 214   0.0000       2.465388        67.0866 
 215   0.0000       2.508922        68.2712 
 216   0.0000       2.508922        68.2712 
 217   0.0000       2.694625        73.3245 
 218   0.0000       2.723841        74.1195 
 219   0.0000       2.723841        74.1195 
 220   0.0000       2.838703        77.2450 
 221   0.0000       2.838703        77.2450 
 222   0.0000       2.853212        77.6398 
 223   0.0000       2.853212        77.6398 
 224   0.0000       2.921903        79.5090 
 225   0.0000       3.092415        84.1489 
 226   0.0000       3.092418        84.1490 
 227   0.0000       3.129253        85.1513 
 228   0.0000       3.129253        85.1513 
 229   0.0000       3.230023        87.8934 
 230   0.0000       3.245648        88.3186 
 231   0.0000       3.245649        88.3186 
 232   0.0000       3.450726        93.8990 
 233   0.0000       3.473932        94.5305 
 234   0.0000       3.473932        94.5305 
 235   0.0000       3.495711        95.1231 
 236   0.0000       3.495711        95.1231 
 237   0.0000       3.685046       100.2752 
 238   0.0000       3.685047       100.2752 
 239   0.0000       3.769419       102.5711 
 240   0.0000       3.869137       105.2846 
 241   0.0000       3.869137       105.2846 
 242   0.0000       3.988553       108.5340 
 243   0.0000       4.008824       109.0856 
 244   0.0000       4.008830       109.0858 
 245   0.0000       4.012371       109.1822 
 246   0.0000       4.046179       110.1021 
 247   0.0000       4.046179       110.1021 
 248   0.0000       4.073805       110.8539 
 249   0.0000       4.073805       110.8539 
 250   0.0000       4.083933       111.1295 
 251   0.0000       4.083934       111.1295 
 252   0.0000       4.187139       113.9379 
 253   0.0000       4.193480       114.1104 
 254   0.0000       4.193480       114.1104 
 255   0.0000       4.321649       117.5981 
 256   0.0000       4.321649       117.5981 
 257   0.0000       4.591324       124.9363 
 258   0.0000       4.606422       125.3471 
 259   0.0000       4.606422       125.3471 
 260   0.0000       4.669498       127.0635 
 261   0.0000       4.669500       127.0636 
 262   0.0000       4.679812       127.3442 
 263   0.0000       4.702546       127.9628 
 264   0.0000       4.702546       127.9628 
 265   0.0000       4.753639       129.3531 
 266   0.0000       4.753640       129.3531 
 267   0.0000       4.866218       132.4165 
 268   0.0000       4.866218       132.4165 
 269   0.0000       4.881894       132.8431 
 270   0.0000       4.977692       135.4499 
 271   0.0000       4.977692       135.4499 
 272   0.0000       5.045217       137.2873 
 273   0.0000       5.045217       137.2873 
 274   0.0000       5.103790       138.8812 
 275   0.0000       5.419483       147.4716 
 276   0.0000       5.419483       147.4716 
 277   0.0000       5.455253       148.4450 
 278   0.0000       5.455253       148.4450 
 279   0.0000       5.562943       151.3754 
 280   0.0000       5.562943       151.3754 
 281   0.0000       5.584382       151.9588 
 282   0.0000       5.617991       152.8733 
 283   0.0000       5.617992       152.8733 
 284   0.0000       5.618053       152.8750 
 285   0.0000       5.618053       152.8750 
 286   0.0000       5.837757       158.8535 
 287   0.0000       5.837758       158.8535 
 288   0.0000       5.908425       160.7764 
 289   0.0000       5.908425       160.7764 
 290   0.0000       5.984631       162.8501 
 291   0.0000       5.984631       162.8501 
 292   0.0000       6.087246       165.6424 
 293   0.0000       6.312245       171.7649 
 294   0.0000       6.312246       171.7649 
 295   0.0000       6.328266       172.2009 
 296   0.0000       6.354209       172.9068 
 297   0.0000       6.354209       172.9068 
 298   0.0000       6.405101       174.2917 
 299   0.0000       6.753788       183.7799 
 300   0.0000       6.753788       183.7799 
 301   0.0000       6.851012       186.4255 
 302   0.0000       6.851014       186.4256 
 303   0.0000       7.069459       192.3698 
 304   0.0000       7.069459       192.3698 
 305   0.0000       7.257728       197.4928 
 306   0.0000       7.509808       204.3523 
 307   0.0000       7.509808       204.3523 
 308   0.0000       7.645203       208.0366 
 309   0.0000       7.645203       208.0366 
 310   0.0000       7.722328       210.1352 
 311   0.0000       7.851960       213.6627 
 312   0.0000       8.477820       230.6932 
 313   0.0000       8.555243       232.8000 
 314   0.0000       8.644918       235.2402 
 315   0.0000       8.644918       235.2402 
 316   0.0000       9.043815       246.0947 
 317   0.0000       9.043825       246.0950 
 318   0.0000       9.068191       246.7580 
 319   0.0000       9.068191       246.7580 
 320   0.0000       9.328533       253.8423 
 321   0.0000       9.328533       253.8423 
 322   0.0000       9.351460       254.4662 
 323   0.0000       9.351461       254.4662 
 324   0.0000      10.001103       272.1438 
 325   0.0000      10.019375       272.6410 
 326   0.0000      10.060232       273.7528 
 327   0.0000      10.060232       273.7528 
 328   0.0000      10.196967       277.4736 
 329   0.0000      10.196969       277.4736 
 330   0.0000      10.320072       280.8234 
 331   0.0000      10.320072       280.8234 
 332   0.0000      10.455842       284.5179 
 333   0.0000      10.455842       284.5179 
 334   0.0000      10.462979       284.7121 
 335   0.0000      10.462989       284.7124 
 336   0.0000      10.506825       285.9053 
 337   0.0000      10.506825       285.9053 
 338   0.0000      10.705847       291.3209 
 339   0.0000      10.705847       291.3209 
 340   0.0000      10.921606       297.1920 
 341   0.0000      10.969986       298.5085 
 342   0.0000      11.148277       303.3600 
 343   0.0000      11.148278       303.3601 
 344   0.0000      11.197566       304.7013 
 345   0.0000      11.197566       304.7013 
 346   0.0000      11.398770       310.1763 
 347   0.0000      11.398770       310.1763 
 348   0.0000      11.549764       314.2851 
 349   0.0000      11.549764       314.2851 
 350   0.0000      11.570892       314.8600 
 351   0.0000      11.570929       314.8610 
 352   0.0000      11.666418       317.4594 
 353   0.0000      11.666442       317.4600 
 354   0.0000      11.785916       320.7111 
 355   0.0000      11.785920       320.7112 
 356   0.0000      11.840802       322.2046 
 357   0.0000      11.840803       322.2046 
 358   0.0000      11.885793       323.4289 
 359   0.0000      11.885793       323.4289 
 360   0.0000      12.204751       332.1082 
 361   0.0000      12.204751       332.1082 
 362   0.0000      12.389208       337.1275 
 363   0.0000      12.645393       344.0986 
 364   0.0000      12.645404       344.0989 
 365   0.0000      12.707469       345.7878 
 366   0.0000      12.707469       345.7878 
 367   0.0000      12.790438       348.0455 
 368   0.0000      12.790438       348.0455 
 369   0.0000      12.874492       350.3327 
 370   0.0000      12.898854       350.9957 
 371   0.0000      12.898860       350.9958 
 372   0.0000      13.077082       355.8455 
 373   0.0000      13.077082       355.8455 
 374   0.0000      13.565967       369.1487 
 375   0.0000      13.565967       369.1487 
 376   0.0000      13.861047       377.1783 
 377   0.0000      13.940988       379.3536 
 378   0.0000      13.940988       379.3536 
 379   0.0000      14.247914       387.7054 
 380   0.0000      14.269829       388.3018 
 381   0.0000      14.269830       388.3018 
 382   0.0000      14.539381       395.6367 
 383   0.0000      14.539381       395.6367 
 384   0.0000      15.164709       412.6527 
 385   0.0000      15.164715       412.6529 
 386   0.0000      15.168145       412.7462 
 387   0.0000      15.467019       420.8790 
 388   0.0000      15.467023       420.8791 
 389   0.0000      15.916825       433.1188 
 390   0.0000      15.916825       433.1188 
 391   0.0000      15.919869       433.2016 
 392   0.0000      16.762095       456.1198 
 393   0.0000      16.952033       461.2883 
 394   0.0000      16.952041       461.2885 
 395   0.0000      16.993412       462.4142 
 396   0.0000      16.993412       462.4142 
 397   0.0000      17.631021       479.7645 
 398   0.0000      17.631023       479.7645 
 399   0.0000      17.739899       482.7272 
 400   0.0000      17.739899       482.7272 
 401   0.0000      17.918049       487.5749 
 402   0.0000      18.143411       493.7073 
 403   0.0000      18.143411       493.7073 
 404   0.0000      18.905843       514.4541 
 405   0.0000      19.524507       531.2889 
 406   0.0000      19.524507       531.2889 
 407   0.0000      19.591056       533.0997 
 408   0.0000      22.293251       606.6302 
 409   0.0000      24.325172       661.9216 
 410   0.0000      26.340144       716.7518 
 411   0.0000      26.340144       716.7518 
 412   0.0000      28.299222       770.0610 
 413   0.0000      31.899605       868.0324 
 414   0.0000      31.899669       868.0341 
 415   0.0000      33.008417       898.2047 
 416   0.0000      33.008417       898.2047 
 417   0.0000      34.802711       947.0299 
 418   0.0000      41.805127      1137.5753 
 419   0.0000      47.712506      1298.3233 
 420   0.0000      47.712547      1298.3244 
 421   0.0000      48.104660      1308.9944 
 422   0.0000      48.104660      1308.9944 
 423   0.0000      49.024846      1334.0339 
 424   0.0000      65.775150      1789.8328 
 425   0.0000      65.775152      1789.8329 
 426   0.0000      65.925759      1793.9311 
 427   0.0000      65.925759      1793.9311 
 428   0.0000      66.416507      1807.2850 
 429   0.0000      75.803643      2062.7220 
 430   0.0000     105.018123      2857.6884 

                 SPIN DOWN ORBITALS
  NO   OCC          E(Eh)            E(eV) 
   0   1.0000    -100.739801     -2741.2694 
   1   1.0000     -14.010375      -381.2417 
   2   1.0000      -9.984453      -271.6908 
   3   1.0000      -9.262233      -252.0382 
   4   1.0000      -7.085886      -192.8168 
   5   1.0000      -7.074402      -192.5043 
   6   1.0000      -7.074402      -192.5043 
   7   1.0000      -0.888215       -24.1696 
   8   1.0000      -0.831390       -22.6233 
   9   1.0000      -0.535938       -14.5836 
  10   1.0000      -0.402030       -10.9398 
  11   1.0000      -0.402030       -10.9398 
  12   1.0000      -0.341608        -9.2956 
  13   1.0000      -0.303414        -8.2563 
  14   1.0000      -0.303414        -8.2563 
  15   0.0000      -0.063595        -1.7305 
  16   0.0000      -0.038392        -1.0447 
  17   0.0000      -0.038392        -1.0447 
  18   0.0000      -0.012812        -0.3486 
  19   0.0000       0.012638         0.3439 
  20   0.0000       0.014358         0.3907 
  21   0.0000       0.014358         0.3907 
  22   0.0000       0.035844         0.9754 
  23   0.0000       0.044070         1.1992 
  24   0.0000       0.044070         1.1992 
  25   0.0000       0.059698         1.6245 
  26   0.0000       0.062895         1.7115 
  27   0.0000       0.062895         1.7115 
  28   0.0000       0.066397         1.8067 
  29   0.0000       0.066397         1.8067 
  30   0.0000       0.071379         1.9423 
  31   0.0000       0.076334         2.0772 
  32   0.0000       0.096870         2.6360 
  33   0.0000       0.096870         2.6360 
  34   0.0000       0.112382         3.0581 
  35   0.0000       0.133458         3.6316 
  36   0.0000       0.133458         3.6316 
  37   0.0000       0.134600         3.6627 
  38   0.0000       0.134600         3.6627 
  39   0.0000       0.153981         4.1900 
  40   0.0000       0.167700         4.5634 
  41   0.0000       0.167700         4.5634 
  42   0.0000       0.183232         4.9860 
  43   0.0000       0.183232         4.9860 
  44   0.0000       0.184279         5.0145 
  45   0.0000       0.184279         5.0145 
  46   0.0000       0.190747         5.1905 
  47   0.0000       0.196815         5.3556 
  48   0.0000       0.196815         5.3556 
  49   0.0000       0.198523         5.4021 
  50   0.0000       0.212081         5.7710 
  51   0.0000       0.236969         6.4482 
  52   0.0000       0.236969         6.4482 
  53   0.0000       0.248454         6.7608 
  54   0.0000       0.248454         6.7608 
  55   0.0000       0.265904         7.2356 
  56   0.0000       0.275281         7.4908 
  57   0.0000       0.286077         7.7845 
  58   0.0000       0.286077         7.7845 
  59   0.0000       0.288983         7.8636 
  60   0.0000       0.288983         7.8636 
  61   0.0000       0.304825         8.2947 
  62   0.0000       0.304825         8.2947 
  63   0.0000       0.315523         8.5858 
  64   0.0000       0.318790         8.6747 
  65   0.0000       0.318790         8.6747 
  66   0.0000       0.327911         8.9229 
  67   0.0000       0.327911         8.9229 
  68   0.0000       0.342324         9.3151 
  69   0.0000       0.342325         9.3151 
  70   0.0000       0.347463         9.4549 
  71   0.0000       0.347463         9.4549 
  72   0.0000       0.381050        10.3689 
  73   0.0000       0.399121        10.8606 
  74   0.0000       0.399121        10.8606 
  75   0.0000       0.415180        11.2976 
  76   0.0000       0.415181        11.2976 
  77   0.0000       0.416199        11.3254 
  78   0.0000       0.435019        11.8375 
  79   0.0000       0.435019        11.8375 
  80   0.0000       0.451349        12.2818 
  81   0.0000       0.451349        12.2818 
  82   0.0000       0.451946        12.2981 
  83   0.0000       0.481240        13.0952 
  84   0.0000       0.481240        13.0952 
  85   0.0000       0.485732        13.2174 
  86   0.0000       0.485732        13.2174 
  87   0.0000       0.495096        13.4722 
  88   0.0000       0.495096        13.4722 
  89   0.0000       0.496471        13.5097 
  90   0.0000       0.499521        13.5927 
  91   0.0000       0.500224        13.6118 
  92   0.0000       0.500224        13.6118 
  93   0.0000       0.522261        14.2114 
  94   0.0000       0.522261        14.2114 
  95   0.0000       0.527818        14.3627 
  96   0.0000       0.527819        14.3627 
  97   0.0000       0.558329        15.1929 
  98   0.0000       0.558329        15.1929 
  99   0.0000       0.562417        15.3042 
 100   0.0000       0.568866        15.4796 
 101   0.0000       0.568866        15.4796 
 102   0.0000       0.584432        15.9032 
 103   0.0000       0.594281        16.1712 
 104   0.0000       0.594281        16.1712 
 105   0.0000       0.598137        16.2761 
 106   0.0000       0.598137        16.2761 
 107   0.0000       0.604532        16.4501 
 108   0.0000       0.651507        17.7284 
 109   0.0000       0.651507        17.7284 
 110   0.0000       0.673371        18.3234 
 111   0.0000       0.673372        18.3234 
 112   0.0000       0.675537        18.3823 
 113   0.0000       0.675538        18.3823 
 114   0.0000       0.698102        18.9963 
 115   0.0000       0.720056        19.5937 
 116   0.0000       0.720056        19.5937 
 117   0.0000       0.746391        20.3103 
 118   0.0000       0.746392        20.3104 
 119   0.0000       0.752605        20.4794 
 120   0.0000       0.752605        20.4794 
 121   0.0000       0.759236        20.6599 
 122   0.0000       0.784619        21.3506 
 123   0.0000       0.786408        21.3993 
 124   0.0000       0.786409        21.3993 
 125   0.0000       0.791113        21.5273 
 126   0.0000       0.791113        21.5273 
 127   0.0000       0.808388        21.9974 
 128   0.0000       0.808390        21.9974 
 129   0.0000       0.830669        22.6036 
 130   0.0000       0.830669        22.6036 
 131   0.0000       0.835085        22.7238 
 132   0.0000       0.835085        22.7238 
 133   0.0000       0.866810        23.5871 
 134   0.0000       0.880536        23.9606 
 135   0.0000       0.880536        23.9606 
 136   0.0000       0.891800        24.2671 
 137   0.0000       0.891802        24.2672 
 138   0.0000       0.903819        24.5942 
 139   0.0000       0.903819        24.5942 
 140   0.0000       0.907837        24.7035 
 141   0.0000       0.941762        25.6267 
 142   0.0000       0.941762        25.6267 
 143   0.0000       0.972951        26.4754 
 144   0.0000       0.972951        26.4754 
 145   0.0000       0.973172        26.4814 
 146   0.0000       0.978499        26.6263 
 147   0.0000       0.978500        26.6263 
 148   0.0000       0.979822        26.6623 
 149   0.0000       0.979822        26.6623 
 150   0.0000       0.992741        27.0138 
 151   0.0000       0.992742        27.0139 
 152   0.0000       1.014693        27.6112 
 153   0.0000       1.054841        28.7037 
 154   0.0000       1.055479        28.7210 
 155   0.0000       1.055480        28.7211 
 156   0.0000       1.080087        29.3907 
 157   0.0000       1.080087        29.3907 
 158   0.0000       1.085779        29.5455 
 159   0.0000       1.085779        29.5456 
 160   0.0000       1.106399        30.1066 
 161   0.0000       1.110820        30.2270 
 162   0.0000       1.110820        30.2270 
 163   0.0000       1.123275        30.5659 
 164   0.0000       1.123275        30.5659 
 165   0.0000       1.181010        32.1369 
 166   0.0000       1.181010        32.1369 
 167   0.0000       1.181273        32.1441 
 168   0.0000       1.210647        32.9434 
 169   0.0000       1.210647        32.9434 
 170   0.0000       1.223549        33.2945 
 171   0.0000       1.245319        33.8869 
 172   0.0000       1.245319        33.8869 
 173   0.0000       1.332845        36.2686 
 174   0.0000       1.332845        36.2686 
 175   0.0000       1.352821        36.8121 
 176   0.0000       1.352821        36.8121 
 177   0.0000       1.372507        37.3478 
 178   0.0000       1.421264        38.6746 
 179   0.0000       1.421266        38.6746 
 180   0.0000       1.484052        40.3831 
 181   0.0000       1.528377        41.5892 
 182   0.0000       1.538063        41.8528 
 183   0.0000       1.538063        41.8528 
 184   0.0000       1.654180        45.0125 
 185   0.0000       1.654180        45.0125 
 186   0.0000       1.710595        46.5476 
 187   0.0000       1.710595        46.5476 
 188   0.0000       1.728086        47.0236 
 189   0.0000       1.859871        50.6097 
 190   0.0000       1.868626        50.8479 
 191   0.0000       1.868626        50.8479 
 192   0.0000       1.872124        50.9431 
 193   0.0000       1.872124        50.9431 
 194   0.0000       1.899482        51.6875 
 195   0.0000       1.899483        51.6876 
 196   0.0000       1.933175        52.6044 
 197   0.0000       1.933175        52.6044 
 198   0.0000       1.934938        52.6523 
 199   0.0000       2.033832        55.3434 
 200   0.0000       2.033832        55.3434 
 201   0.0000       2.150590        58.5205 
 202   0.0000       2.173281        59.1380 
 203   0.0000       2.173286        59.1381 
 204   0.0000       2.195606        59.7455 
 205   0.0000       2.195606        59.7455 
 206   0.0000       2.204184        59.9789 
 207   0.0000       2.306080        62.7516 
 208   0.0000       2.306081        62.7517 
 209   0.0000       2.379182        64.7408 
 210   0.0000       2.379182        64.7408 
 211   0.0000       2.410417        65.5908 
 212   0.0000       2.410417        65.5908 
 213   0.0000       2.439800        66.3903 
 214   0.0000       2.465388        67.0866 
 215   0.0000       2.508922        68.2712 
 216   0.0000       2.508922        68.2712 
 217   0.0000       2.694625        73.3245 
 218   0.0000       2.723841        74.1195 
 219   0.0000       2.723841        74.1195 
 220   0.0000       2.838703        77.2450 
 221   0.0000       2.838703        77.2450 
 222   0.0000       2.853212        77.6398 
 223   0.0000       2.853212        77.6398 
 224   0.0000       2.921903        79.5090 
 225   0.0000       3.092415        84.1489 
 226   0.0000       3.092418        84.1490 
 227   0.0000       3.129253        85.1513 
 228   0.0000       3.129253        85.1513 
 229   0.0000       3.230023        87.8934 
 230   0.0000       3.245648        88.3186 
 231   0.0000       3.245649        88.3186 
 232   0.0000       3.450726        93.8990 
 233   0.0000       3.473932        94.5305 
 234   0.0000       3.473932        94.5305 
 235   0.0000       3.495711        95.1231 
 236   0.0000       3.495711        95.1231 
 237   0.0000       3.685046       100.2752 
 238   0.0000       3.685047       100.2752 
 239   0.0000       3.769419       102.5711 
 240   0.0000       3.869137       105.2846 
 241   0.0000       3.869137       105.2846 
 242   0.0000       3.988553       108.5340 
 243   0.0000       4.008824       109.0856 
 244   0.0000       4.008830       109.0858 
 245   0.0000       4.012371       109.1822 
 246   0.0000       4.046179       110.1021 
 247   0.0000       4.046179       110.1021 
 248   0.0000       4.073805       110.8539 
 249   0.0000       4.073805       110.8539 
 250   0.0000       4.083933       111.1295 
 251   0.0000       4.083934       111.1295 
 252   0.0000       4.187139       113.9379 
 253   0.0000       4.193480       114.1104 
 254   0.0000       4.193480       114.1104 
 255   0.0000       4.321649       117.5981 
 256   0.0000       4.321649       117.5981 
 257   0.0000       4.591324       124.9363 
 258   0.0000       4.606422       125.3471 
 259   0.0000       4.606422       125.3471 
 260   0.0000       4.669498       127.0635 
 261   0.0000       4.669500       127.0636 
 262   0.0000       4.679812       127.3442 
 263   0.0000       4.702546       127.9628 
 264   0.0000       4.702546       127.9628 
 265   0.0000       4.753639       129.3531 
 266   0.0000       4.753640       129.3531 
 267   0.0000       4.866218       132.4165 
 268   0.0000       4.866218       132.4165 
 269   0.0000       4.881894       132.8431 
 270   0.0000       4.977692       135.4499 
 271   0.0000       4.977692       135.4499 
 272   0.0000       5.045217       137.2873 
 273   0.0000       5.045217       137.2873 
 274   0.0000       5.103790       138.8812 
 275   0.0000       5.419483       147.4716 
 276   0.0000       5.419483       147.4716 
 277   0.0000       5.455253       148.4450 
 278   0.0000       5.455253       148.4450 
 279   0.0000       5.562943       151.3754 
 280   0.0000       5.562943       151.3754 
 281   0.0000       5.584382       151.9588 
 282   0.0000       5.617991       152.8733 
 283   0.0000       5.617992       152.8733 
 284   0.0000       5.618053       152.8750 
 285   0.0000       5.618053       152.8750 
 286   0.0000       5.837757       158.8535 
 287   0.0000       5.837758       158.8535 
 288   0.0000       5.908425       160.7764 
 289   0.0000       5.908425       160.7764 
 290   0.0000       5.984631       162.8501 
 291   0.0000       5.984631       162.8501 
 292   0.0000       6.087246       165.6424 
 293   0.0000       6.312245       171.7649 
 294   0.0000       6.312246       171.7649 
 295   0.0000       6.328266       172.2009 
 296   0.0000       6.354209       172.9068 
 297   0.0000       6.354209       172.9068 
 298   0.0000       6.405101       174.2917 
 299   0.0000       6.753788       183.7799 
 300   0.0000       6.753788       183.7799 
 301   0.0000       6.851012       186.4255 
 302   0.0000       6.851014       186.4256 
 303   0.0000       7.069459       192.3698 
 304   0.0000       7.069459       192.3698 
 305   0.0000       7.257728       197.4928 
 306   0.0000       7.509808       204.3523 
 307   0.0000       7.509808       204.3523 
 308   0.0000       7.645203       208.0366 
 309   0.0000       7.645203       208.0366 
 310   0.0000       7.722328       210.1352 
 311   0.0000       7.851960       213.6627 
 312   0.0000       8.477820       230.6932 
 313   0.0000       8.555243       232.8000 
 314   0.0000       8.644918       235.2402 
 315   0.0000       8.644918       235.2402 
 316   0.0000       9.043815       246.0947 
 317   0.0000       9.043825       246.0950 
 318   0.0000       9.068191       246.7580 
 319   0.0000       9.068191       246.7580 
 320   0.0000       9.328533       253.8423 
 321   0.0000       9.328533       253.8423 
 322   0.0000       9.351460       254.4662 
 323   0.0000       9.351461       254.4662 
 324   0.0000      10.001103       272.1438 
 325   0.0000      10.019375       272.6410 
 326   0.0000      10.060232       273.7528 
 327   0.0000      10.060232       273.7528 
 328   0.0000      10.196967       277.4736 
 329   0.0000      10.196969       277.4736 
 330   0.0000      10.320072       280.8234 
 331   0.0000      10.320072       280.8234 
 332   0.0000      10.455842       284.5179 
 333   0.0000      10.455842       284.5179 
 334   0.0000      10.462979       284.7121 
 335   0.0000      10.462989       284.7124 
 336   0.0000      10.506825       285.9053 
 337   0.0000      10.506825       285.9053 
 338   0.0000      10.705847       291.3209 
 339   0.0000      10.705847       291.3209 
 340   0.0000      10.921606       297.1920 
 341   0.0000      10.969986       298.5085 
 342   0.0000      11.148277       303.3600 
 343   0.0000      11.148278       303.3601 
 344   0.0000      11.197566       304.7013 
 345   0.0000      11.197566       304.7013 
 346   0.0000      11.398770       310.1763 
 347   0.0000      11.398770       310.1763 
 348   0.0000      11.549764       314.2851 
 349   0.0000      11.549764       314.2851 
 350   0.0000      11.570892       314.8600 
 351   0.0000      11.570929       314.8610 
 352   0.0000      11.666418       317.4594 
 353   0.0000      11.666442       317.4600 
 354   0.0000      11.785916       320.7111 
 355   0.0000      11.785920       320.7112 
 356   0.0000      11.840802       322.2046 
 357   0.0000      11.840803       322.2046 
 358   0.0000      11.885793       323.4289 
 359   0.0000      11.885793       323.4289 
 360   0.0000      12.204751       332.1082 
 361   0.0000      12.204751       332.1082 
 362   0.0000      12.389208       337.1275 
 363   0.0000      12.645393       344.0986 
 364   0.0000      12.645404       344.0989 
 365   0.0000      12.707469       345.7878 
 366   0.0000      12.707469       345.7878 
 367   0.0000      12.790438       348.0455 
 368   0.0000      12.790438       348.0455 
 369   0.0000      12.874492       350.3327 
 370   0.0000      12.898854       350.9957 
 371   0.0000      12.898860       350.9958 
 372   0.0000      13.077082       355.8455 
 373   0.0000      13.077082       355.8455 
 374   0.0000      13.565967       369.1487 
 375   0.0000      13.565967       369.1487 
 376   0.0000      13.861047       377.1783 
 377   0.0000      13.940988       379.3536 
 378   0.0000      13.940988       379.3536 
 379   0.0000      14.247914       387.7054 
 380   0.0000      14.269829       388.3018 
 381   0.0000      14.269830       388.3018 
 382   0.0000      14.539381       395.6367 
 383   0.0000      14.539381       395.6367 
 384   0.0000      15.164709       412.6527 
 385   0.0000      15.164715       412.6529 
 386   0.0000      15.168145       412.7462 
 387   0.0000      15.467019       420.8790 
 388   0.0000      15.467023       420.8791 
 389   0.0000      15.916825       433.1188 
 390   0.0000      15.916825       433.1188 
 391   0.0000      15.919869       433.2016 
 392   0.0000      16.762095       456.1198 
 393   0.0000      16.952033       461.2883 
 394   0.0000      16.952041       461.2885 
 395   0.0000      16.993412       462.4142 
 396   0.0000      16.993412       462.4142 
 397   0.0000      17.631021       479.7645 
 398   0.0000      17.631023       479.7645 
 399   0.0000      17.739899       482.7272 
 400   0.0000      17.739899       482.7272 
 401   0.0000      17.918049       487.5749 
 402   0.0000      18.143411       493.7073 
 403   0.0000      18.143411       493.7073 
 404   0.0000      18.905843       514.4541 
 405   0.0000      19.524507       531.2889 
 406   0.0000      19.524507       531.2889 
 407   0.0000      19.591056       533.0997 
 408   0.0000      22.293251       606.6302 
 409   0.0000      24.325172       661.9216 
 410   0.0000      26.340144       716.7518 
 411   0.0000      26.340144       716.7518 
 412   0.0000      28.299222       770.0610 
 413   0.0000      31.899605       868.0324 
 414   0.0000      31.899669       868.0341 
 415   0.0000      33.008417       898.2047 
 416   0.0000      33.008417       898.2047 
 417   0.0000      34.802711       947.0299 
 418   0.0000      41.805127      1137.5753 
 419   0.0000      47.712506      1298.3233 
 420   0.0000      47.712547      1298.3244 
 421   0.0000      48.104660      1308.9944 
 422   0.0000      48.104660      1308.9944 
 423   0.0000      49.024846      1334.0339 
 424   0.0000      65.775150      1789.8328 
 425   0.0000      65.775152      1789.8329 
 426   0.0000      65.925759      1793.9311 
 427   0.0000      65.925759      1793.9311 
 428   0.0000      66.416507      1807.2850 
 429   0.0000      75.803643      2062.7220 
 430   0.0000     105.018123      2857.6884 

                    ********************************
                    * MULLIKEN POPULATION ANALYSIS *
                    ********************************

--------------------------------------------
MULLIKEN ATOMIC CHARGES AND SPIN POPULATIONS
--------------------------------------------
   0 Cl:   -0.145052   -0.000000
   1 C :    0.090330    0.000000
   2 N :    0.054722    0.000000
Sum of atomic charges         :   -0.0000000
Sum of atomic spin populations:    0.0000000

-----------------------------------------------------
MULLIKEN REDUCED ORBITAL CHARGES AND SPIN POPULATIONS
-----------------------------------------------------
CHARGE
  0 Cls       :     6.045446  s :     6.045446
      pz      :     3.140257  p :    10.961060
      px      :     3.910401
      py      :     3.910402
      dz2     :     0.037929  d :     0.124003
      dxz     :     0.043037
      dyz     :     0.043037
      dx2y2   :     0.000000
      dxy     :     0.000000
      f0      :     0.002208  f :     0.015018
      f+1     :     0.006405
      f-1     :     0.006405
      f+2     :    -0.000000
      f-2     :    -0.000000
      f+3     :     0.000000
      f-3     :     0.000000
      g0      :    -0.000133  g :     0.000034
      g+1     :     0.000083
      g-1     :     0.000083
      g+2     :     0.000000
      g-2     :     0.000000
      g+3     :     0.000000
      g-3     :     0.000000
      g+4     :     0.000000
      g-4     :    -0.000000
      h0      :    -0.000064  h :    -0.000510
      h+1     :    -0.000223
      h-1     :    -0.000223
      h+2     :     0.000000
      h-2     :     0.000000
      h+3     :     0.000000
      h-3     :     0.000000
      h+4     :     0.000000
      h-4     :    -0.000000
      h+5     :     0.000000
      h-5     :     0.000000
  1 C s       :     3.075800  s :     3.075800
      pz      :     0.871660  p :     2.682657
      px      :     0.905499
      py      :     0.905499
      dz2     :     0.008490  d :     0.125672
      dxz     :     0.058591
      dyz     :     0.058591
      dx2y2   :     0.000000
      dxy     :     0.000000
      f0      :     0.005540  f :     0.021132
      f+1     :     0.007796
      f-1     :     0.007796
      f+2     :    -0.000000
      f-2     :    -0.000000
      f+3     :     0.000000
      f-3     :     0.000000
      g0      :     0.000645  g :     0.005161
      g+1     :     0.002258
      g-1     :     0.002258
      g+2     :     0.000000
      g-2     :     0.000000
      g+3     :     0.000000
      g-3     :     0.000000
      g+4     :     0.000000
      g-4     :     0.000000
      h0      :    -0.000144  h :    -0.000751
      h+1     :    -0.000304
      h-1     :    -0.000304
      h+2     :    -0.000000
      h-2     :    -0.000000
      h+3     :    -0.000000
      h-3     :    -0.000000
      h+4     :     0.000000
      h-4     :     0.000000
      h+5     :     0.000000
      h-5     :     0.000000
  2 N s       :     3.627468  s :     3.627468
      pz      :     1.174390  p :     3.247364
      px      :     1.036487
      py      :     1.036487
      dz2     :     0.012853  d :     0.055326
      dxz     :     0.021236
      dyz     :     0.021236
      dx2y2   :     0.000000
      dxy     :     0.000000
      f0      :    -0.001386  f :     0.012290
      f+1     :     0.006838
      f-1     :     0.006838
      f+2     :    -0.000000
      f-2     :    -0.000000
      f+3     :     0.000000
      f-3     :     0.000000
      g0      :    -0.000806  g :     0.002539
      g+1     :     0.001673
      g-1     :     0.001673
      g+2     :     0.000000
      g-2     :     0.000000
      g+3     :     0.000000
      g-3     :     0.000000
      g+4     :     0.000000
      g-4     :    -0.000000
      h0      :    -0.000152  h :     0.000292
      h+1     :     0.000222
      h-1     :     0.000222
      h+2     :    -0.000000
      h-2     :    -0.000000
      h+3     :     0.000000
      h-3     :     0.000000
      h+4     :    -0.000000
      h-4     :     0.000000
      h+5     :     0.000000
      h-5     :     0.000000

SPIN
  0 Cls       :    -0.000000  s :    -0.000000
      pz      :    -0.000000  p :    -0.000000
      px      :    -0.000000
      py      :    -0.000000
      dz2     :    -0.000000  d :    -0.000000
      dxz     :    -0.000000
      dyz     :     0.000000
      dx2y2   :     0.000000
      dxy     :    -0.000000
      f0      :    -0.000000  f :    -0.000000
      f+1     :    -0.000000
      f-1     :    -0.000000
      f+2     :    -0.000000
      f-2     :    -0.000000
      f+3     :    -0.000000
      f-3     :     0.000000
      g0      :     0.000000  g :     0.000000
      g+1     :    -0.000000
      g-1     :    -0.000000
      g+2     :     0.000000
      g-2     :     0.000000
      g+3     :    -0.000000
      g-3     :     0.000000
      g+4     :     0.000000
      g-4     :    -0.000000
      h0      :     0.000000  h :     0.000000
      h+1     :    -0.000000
      h-1     :    -0.000000
      h+2     :    -0.000000
      h-2     :    -0.000000
      h+3     :    -0.000000
      h-3     :    -0.000000
      h+4     :     0.000000
      h-4     :    -0.000000
      h+5     :     0.000000
      h-5     :    -0.000000
  1 C s       :     0.000000  s :     0.000000
      pz      :     0.000000  p :     0.000000
      px      :     0.000000
      py      :     0.000000
      dz2     :     0.000000  d :     0.000000
      dxz     :     0.000000
      dyz     :     0.000000
      dx2y2   :    -0.000000
      dxy     :    -0.000000
      f0      :     0.000000  f :     0.000000
      f+1     :    -0.000000
      f-1     :     0.000000
      f+2     :    -0.000000
      f-2     :     0.000000
      f+3     :     0.000000
      f-3     :    -0.000000
      g0      :     0.000000  g :     0.000000
      g+1     :    -0.000000
      g-1     :     0.000000
      g+2     :     0.000000
      g-2     :     0.000000
      g+3     :     0.000000
      g-3     :     0.000000
      g+4     :     0.000000
      g-4     :    -0.000000
      h0      :    -0.000000  h :    -0.000000
      h+1     :    -0.000000
      h-1     :     0.000000
      h+2     :    -0.000000
      h-2     :     0.000000
      h+3     :     0.000000
      h-3     :     0.000000
      h+4     :     0.000000
      h-4     :     0.000000
      h+5     :     0.000000
      h-5     :     0.000000
  2 N s       :    -0.000000  s :    -0.000000
      pz      :     0.000000  p :     0.000000
      px      :     0.000000
      py      :    -0.000000
      dz2     :     0.000000  d :     0.000000
      dxz     :     0.000000
      dyz     :    -0.000000
      dx2y2   :     0.000000
      dxy     :     0.000000
      f0      :     0.000000  f :     0.000000
      f+1     :    -0.000000
      f-1     :     0.000000
      f+2     :    -0.000000
      f-2     :     0.000000
      f+3     :     0.000000
      f-3     :    -0.000000
      g0      :     0.000000  g :     0.000000
      g+1     :    -0.000000
      g-1     :     0.000000
      g+2     :     0.000000
      g-2     :     0.000000
      g+3     :     0.000000
      g-3     :     0.000000
      g+4     :     0.000000
      g-4     :     0.000000
      h0      :     0.000000  h :     0.000000
      h+1     :    -0.000000
      h-1     :     0.000000
      h+2     :    -0.000000
      h-2     :     0.000000
      h+3     :    -0.000000
      h-3     :     0.000000
      h+4     :     0.000000
      h-4     :     0.000000
      h+5     :     0.000000
      h-5     :     0.000000


                     *******************************
                     * LOEWDIN POPULATION ANALYSIS *
                     *******************************

-------------------------------------------
LOEWDIN ATOMIC CHARGES AND SPIN POPULATIONS
-------------------------------------------
   0 Cl:    1.060858   -0.000000
   1 C :   -0.922604    0.000000
   2 N :   -0.138253    0.000000

----------------------------------------------------
LOEWDIN REDUCED ORBITAL CHARGES AND SPIN POPULATIONS
----------------------------------------------------
CHARGE
  0 Cls       :     5.204214  s :     5.204214
      pz      :     3.176605  p :    10.058171
      px      :     3.440783
      py      :     3.440783
      dz2     :     0.135699  d :     0.300889
      dxz     :     0.082595
      dyz     :     0.082595
      dx2y2   :     0.000000
      dxy     :     0.000000
      f0      :     0.061994  f :     0.170251
      f+1     :     0.054129
      f-1     :     0.054129
      f+2     :     0.000000
      f-2     :     0.000000
      f+3     :     0.000000
      f-3     :     0.000000
      g0      :     0.041296  g :     0.123416
      g+1     :     0.041060
      g-1     :     0.041060
      g+2     :     0.000000
      g-2     :     0.000000
      g+3     :     0.000000
      g-3     :     0.000000
      g+4     :     0.000000
      g-4     :     0.000000
      h0      :     0.026150  h :     0.082201
      h+1     :     0.028025
      h-1     :     0.028025
      h+2     :     0.000000
      h-2     :     0.000000
      h+3     :     0.000000
      h-3     :     0.000000
      h+4     :     0.000000
      h-4     :     0.000000
      h+5     :     0.000000
      h-5     :     0.000000
  1 C s       :     2.715639  s :     2.715639
      pz      :     1.195163  p :     2.725759
      px      :     0.765298
      py      :     0.765298
      dz2     :     0.407726  d :     1.015102
      dxz     :     0.303688
      dyz     :     0.303688
      dx2y2   :     0.000000
      dxy     :     0.000000
      f0      :     0.122513  f :     0.291983
      f+1     :     0.084735
      f-1     :     0.084735
      f+2     :     0.000000
      f-2     :     0.000000
      f+3     :     0.000000
      f-3     :     0.000000
      g0      :     0.034978  g :     0.124794
      g+1     :     0.044908
      g-1     :     0.044908
      g+2     :     0.000000
      g-2     :     0.000000
      g+3     :     0.000000
      g-3     :     0.000000
      g+4     :     0.000000
      g-4     :     0.000000
      h0      :     0.016062  h :     0.049328
      h+1     :     0.016633
      h-1     :     0.016633
      h+2     :     0.000000
      h-2     :     0.000000
      h+3     :     0.000000
      h-3     :     0.000000
      h+4     :     0.000000
      h-4     :     0.000000
      h+5     :     0.000000
      h-5     :     0.000000
  2 N s       :     3.103495  s :     3.103495
      pz      :     1.448520  p :     3.253298
      px      :     0.902389
      py      :     0.902389
      dz2     :     0.149138  d :     0.311500
      dxz     :     0.081181
      dyz     :     0.081181
      dx2y2   :     0.000000
      dxy     :     0.000000
      f0      :     0.074980  f :     0.198117
      f+1     :     0.061569
      f-1     :     0.061569
      f+2     :     0.000000
      f-2     :     0.000000
      f+3     :     0.000000
      f-3     :     0.000000
      g0      :     0.056466  g :     0.165830
      g+1     :     0.054682
      g-1     :     0.054682
      g+2     :     0.000000
      g-2     :     0.000000
      g+3     :     0.000000
      g-3     :     0.000000
      g+4     :     0.000000
      g-4     :     0.000000
      h0      :     0.029363  h :     0.106012
      h+1     :     0.038325
      h-1     :     0.038325
      h+2     :     0.000000
      h-2     :     0.000000
      h+3     :     0.000000
      h-3     :     0.000000
      h+4     :     0.000000
      h-4     :     0.000000
      h+5     :     0.000000
      h-5     :     0.000000

SPIN
  0 Cls       :    -0.000000  s :    -0.000000
      pz      :     0.000000  p :     0.000000
      px      :     0.000000
      py      :    -0.000000
      dz2     :    -0.000000  d :    -0.000000
      dxz     :    -0.000000
      dyz     :    -0.000000
      dx2y2   :    -0.000000
      dxy     :    -0.000000
      f0      :    -0.000000  f :    -0.000000
      f+1     :     0.000000
      f-1     :    -0.000000
      f+2     :    -0.000000
      f-2     :    -0.000000
      f+3     :    -0.000000
      f-3     :     0.000000
      g0      :     0.000000  g :     0.000000
      g+1     :    -0.000000
      g-1     :     0.000000
      g+2     :    -0.000000
      g-2     :    -0.000000
      g+3     :    -0.000000
      g-3     :     0.000000
      g+4     :     0.000000
      g-4     :    -0.000000
      h0      :    -0.000000  h :    -0.000000
      h+1     :    -0.000000
      h-1     :    -0.000000
      h+2     :    -0.000000
      h-2     :    -0.000000
      h+3     :    -0.000000
      h-3     :     0.000000
      h+4     :     0.000000
      h-4     :     0.000000
      h+5     :     0.000000
      h-5     :    -0.000000
  1 C s       :     0.000000  s :     0.000000
      pz      :    -0.000000  p :     0.000000
      px      :     0.000000
      py      :     0.000000
      dz2     :    -0.000000  d :    -0.000000
      dxz     :     0.000000
      dyz     :    -0.000000
      dx2y2   :    -0.000000
      dxy     :    -0.000000
      f0      :     0.000000  f :    -0.000000
      f+1     :    -0.000000
      f-1     :    -0.000000
      f+2     :    -0.000000
      f-2     :     0.000000
      f+3     :     0.000000
      f-3     :    -0.000000
      g0      :     0.000000  g :     0.000000
      g+1     :    -0.000000
      g-1     :     0.000000
      g+2     :    -0.000000
      g-2     :    -0.000000
      g+3     :     0.000000
      g-3     :    -0.000000
      g+4     :     0.000000
      g-4     :    -0.000000
      h0      :    -0.000000  h :     0.000000
      h+1     :     0.000000
      h-1     :     0.000000
      h+2     :    -0.000000
      h-2     :     0.000000
      h+3     :     0.000000
      h-3     :     0.000000
      h+4     :     0.000000
      h-4     :     0.000000
      h+5     :     0.000000
      h-5     :     0.000000
  2 N s       :     0.000000  s :     0.000000
      pz      :     0.000000  p :     0.000000
      px      :    -0.000000
      py      :     0.000000
      dz2     :     0.000000  d :     0.000000
      dxz     :     0.000000
      dyz     :     0.000000
      dx2y2   :    -0.000000
      dxy     :    -0.000000
      f0      :    -0.000000  f :     0.000000
      f+1     :     0.000000
      f-1     :     0.000000
      f+2     :    -0.000000
      f-2     :    -0.000000
      f+3     :     0.000000
      f-3     :    -0.000000
      g0      :    -0.000000  g :    -0.000000
      g+1     :    -0.000000
      g-1     :    -0.000000
      g+2     :     0.000000
      g-2     :     0.000000
      g+3     :     0.000000
      g-3     :     0.000000
      g+4     :     0.000000
      g-4     :    -0.000000
      h0      :     0.000000  h :     0.000000
      h+1     :    -0.000000
      h-1     :    -0.000000
      h+2     :     0.000000
      h-2     :     0.000000
      h+3     :     0.000000
      h-3     :     0.000000
      h+4     :     0.000000
      h-4     :    -0.000000
      h+5     :     0.000000
      h-5     :     0.000000


                      *****************************
                      * MAYER POPULATION ANALYSIS *
                      *****************************

  NA   - Mulliken gross atomic population
  ZA   - Total nuclear charge
  QA   - Mulliken gross atomic charge
  VA   - Mayer's total valence
  BVA  - Mayer's bonded valence
  FA   - Mayer's free valence

  ATOM       NA         ZA         QA         VA         BVA        FA
  0 Cl    17.1451    17.0000    -0.1451     1.2756     1.2756     0.0000
  1 C      5.9097     6.0000     0.0903     3.8657     3.8657    -0.0000
  2 N      6.9453     7.0000     0.0547     3.1230     3.1230    -0.0000

  Mayer bond orders larger than 0.1
B(  0-Cl,  1-C ) :   1.0091 B(  0-Cl,  2-N ) :   0.2665 B(  1-C ,  2-N ) :   2.8565 


-------
TIMINGS
-------

Total SCF time: 0 days 0 hours 32 min 44 sec 

Total time                  ....    1964.694 sec
Sum of individual times     ....    1963.588 sec  ( 99.9%)

Fock matrix formation       ....    1958.673 sec  ( 99.7%)
  XC integration            ....      21.057 sec  (  1.1% of F)
    Basis function eval.    ....       1.414 sec  (  6.7% of XC)
    Density eval.           ....       4.526 sec  ( 21.5% of XC)
    XC-Functional eval.     ....       0.173 sec  (  0.8% of XC)
    XC-Potential eval.      ....      14.412 sec  ( 68.4% of XC)
Diagonalization             ....       2.230 sec  (  0.1%)
Density matrix formation    ....       0.044 sec  (  0.0%)
Population analysis         ....       0.129 sec  (  0.0%)
Initial guess               ....       0.934 sec  (  0.0%)
Orbital Transformation      ....       0.000 sec  (  0.0%)
Orbital Orthonormalization  ....       0.000 sec  (  0.0%)
DIIS solution               ....       1.137 sec  (  0.1%)
Grid generation             ....       0.441 sec  (  0.0%)

-------------------------   --------------------
FINAL SINGLE POINT ENERGY      -552.798368260455
-------------------------   --------------------


                            ***************************************
                            *     ORCA property calculations      *
                            ***************************************

                                    ---------------------
                                    Active property flags
                                    ---------------------
   (+) Dipole Moment
   (+) Polarizability


------------------------------------------------------------------------------
                       ORCA ELECTRIC PROPERTIES CALCULATION
------------------------------------------------------------------------------

Dipole Moment Calculation                       ... on
Quadrupole Moment Calculation                   ... off
Polarizability Calculation                      ... Analytic (CP-SCF)
GBWName                                         ... clcn_pbe.gbw
Electron density file                           ... clcn_pbe.scfp.tmp
The origin for moment calculation is the CENTER OF MASS  = ( 0.000000,  0.000000  1.275672)

-------------
DIPOLE MOMENT
-------------
                                X             Y             Z
Electronic contribution:     -0.00000       0.00000       2.45241
Nuclear contribution   :      0.00000       0.00000      -1.29050
                        -----------------------------------------
Total Dipole Moment    :     -0.00000       0.00000       1.16191
                        -----------------------------------------
Magnitude (a.u.)       :      1.16191
Magnitude (Debye)      :      2.95335



--------------------
Rotational spectrum 
--------------------
 
Rotational constants in cm-1:     0.000000     0.198478     0.198478 
Rotational constants in MHz :     0.000000  5950.231488  5950.231488 

 Dipole components along the rotational axes: 
x,y,z [a.u.] :     1.161912     0.000000    -0.000000 
x,y,z [Debye]:     2.953346     0.000000    -0.000000 

 
Transforming and storing MO dipole integrals   ... done

                ... starting polarizability calculation

Opening the Dipole integral file               ... (clcn_pbe.dmo.tmp) done
Reading Dipole-MO integrals                    ... done
Solving CP-SCF equations                       ... 

           ************************************************************
           *        Program running with 4 parallel MPI-processes     *
           *              working on a common directory               *
           ************************************************************

------------------------------------------------------------------------------
                           ORCA CP-SCF CALCULATION
------------------------------------------------------------------------------

Input orbitals are from        ... clcn_pbe.gbw
Input Perturbation             ... clcn_pbe.cpv.tmp
Wavefunction output            ... clcn_pbe.cpu.tmp
Perturbation mode              ... Real perturbation (singlet)
Solver                         ... POPLE
Max. number of iterations      ... 200
Convergence tolerance          ... 1.000e-06
Integral handling              ... Direct
Number of perturbations        ... 3
Number of operators            ... 2
Orbital ranges used for CP-SCF:
 Operator 0:  Orbitals   0... 14  to  15...430
 Operator 1:  Orbitals   0... 14  to  15...430
DFT calculation                         ... on
Exchange functional (SCF)               ... PBE
Exchange functional (CP-SCF)            ... PBE
   PBE kappa parameter  XKappa (SCF)    ...  0.804000
   PBE kappa parameter  XKappa (CP-SCF) ...  0.804000
   PBE mue parameter   XMuePBE (SCF)    ...  0.219520
   PBE mue parameter   XMuePBE (CP-SCF) ...  0.219520
Correlation functional (SCF)            ... PBE
Correlation functional (CP-SCF)         ... PBE
   PBE beta parameter CBetaPBE (SCF)    ...  0.066725
   PBE beta parameter CBetaPBE (CP-SCF) ...  0.066725
 LDA part of GGA corr.  LDAOpt (SCF)    ... PW91-LDA
 LDA part of GGA corr.  LDAOpt (CP-SCF) ... PW91-LDA
Variables per vector in CP-SCF ... 12480
Number of vectors sought       ... 3
Recalculating density on grid  ... done
Calculating the xc-kernel      ... done
     CP-SCF ITERATION   0: 
     CP-SCF ITERATION   1:      3.679712590463
     CP-SCF ITERATION   2:      0.093873342250
     CP-SCF ITERATION   3:      0.004440598086
     CP-SCF ITERATION   4:      0.000127821344
     CP-SCF ITERATION   5:      0.000002450501
     CP-SCF ITERATION   6:      0.000000207179
done
Reading CP-SCF coefficients                    ... done
Doing the polarizability tensor   ... done
Cleaning up                                    ... done

-------------------------
THE POLARIZABILITY TENSOR
-------------------------

The raw cartesian tensor (atomic units):
   23.88090      0.00000     -0.00000  
    0.00000     23.88090      0.00000  
   -0.00000      0.00000     48.06885  
diagonalized tensor: 
   23.88090     23.88090     48.06885  

    0.98793      0.15488     -0.00000  
   -0.15488      0.98793      0.00000  
    0.00000      0.00000      1.00000  

Isotropic polarizability :  31.94355


Timings for individual modules:

Sum of individual times         ...     3016.739 sec (=  50.279 min)
GTO integral calculation        ...        2.852 sec (=   0.048 min)   0.1 %
SCF iterations                  ...     1964.982 sec (=  32.750 min)  65.1 %
Solution of CP-SCF eqns.        ...     1048.905 sec (=  17.482 min)  34.8 %
                             ****ORCA TERMINATED NORMALLY****
TOTAL RUN TIME: 0 days 0 hours 50 minutes 17 seconds 714 msec
