
                                 *****************
                                 * O   R   C   A *
                                 *****************

           --- An Ab Initio, DFT and Semiempirical electronic structure package ---

                  #######################################################
                  #                        -***-                        #
                  #          Department of theory and spectroscopy      #
                  #               Directorship: Frank Neese             #
                  #        Max Planck Institute fuer Kohlenforschung    #
                  #                Kaiser Wilhelm Platz 1               #
                  #                 D-45470 Muelheim/Ruhr               #
                  #                      Germany                        #
                  #                                                     #
                  #                  All rights reserved                #
                  #                        -***-                        #
                  #######################################################


                         Program Version 4.1.2  - RELEASE  -


 With contributions from (in alphabetic order):
   Daniel Aravena         : Magnetic Properties
   Michael Atanasov       : Ab Initio Ligand Field Theory
   Alexander A. Auer      : GIAO ZORA
   Ute Becker             : Parallelization
   Giovanni Bistoni       : ED, Open-shell LED
   Martin Brehm           : Molecular dynamics
   Dmytro Bykov           : SCF Hessian
   Vijay G. Chilkuri      : MRCI spin determinant printing
   Dipayan Datta          : RHF DLPNO-CCSD density
   Achintya Kumar Dutta   : EOM-CC, STEOM-CC
   Dmitry Ganyushin       : Spin-Orbit,Spin-Spin,Magnetic field MRCI
   Miquel Garcia          : C-PCM Hessian
   Yang Guo               : DLPNO-NEVPT2, CIM, IAO-localization
   Andreas Hansen         : Spin unrestricted coupled pair/coupled cluster methods
   Benjamin Helmich-Paris : CASSCF linear response (MC-RPA)
   Lee Huntington         : MR-EOM, pCC
   Robert Izsak           : Overlap fitted RIJCOSX, COSX-SCS-MP3, EOM
   Christian Kollmar      : KDIIS, OOCD, Brueckner-CCSD(T), CCSD density
   Simone Kossmann        : Meta GGA functionals, TD-DFT gradient, OOMP2, MP2 Hessian
   Martin Krupicka        : AUTO-CI
   Lucas Lang             : DCDCAS
   Dagmar Lenk            : GEPOL surface, SMD
   Dimitrios Liakos       : Extrapolation schemes; parallel MDCI
   Dimitrios Manganas     : ROCIS; embedding schemes
   Dimitrios Pantazis     : SARC Basis sets
   Taras Petrenko         : DFT Hessian,TD-DFT gradient, ASA, ECA, R-Raman, ABS, FL, XAS/XES, NRVS
   Peter Pinski           : DLPNO-MP2, DLPNO-MP2 Gradient
   Christoph Reimann      : Effective Core Potentials
   Marius Retegan         : Local ZFS, SOC
   Christoph Riplinger    : Optimizer, TS searches, QM/MM, DLPNO-CCSD(T), (RO)-DLPNO pert. Triples
   Tobias Risthaus        : Range-separated hybrids, TD-DFT gradient, RPA, STAB
   Michael Roemelt        : Restricted open shell CIS
   Masaaki Saitow         : Open-shell DLPNO
   Barbara Sandhoefer     : DKH picture change effects
   Avijit Sen             : IP-ROCIS
   Kantharuban Sivalingam : CASSCF convergence, NEVPT2, FIC-MRCI
   Bernardo de Souza      : ESD, SOC TD-DFT
   Georgi Stoychev        : AutoAux, RI-MP2 NMR
   Willem Van den Heuvel  : Paramagnetic NMR
   Boris Wezisla          : Elementary symmetry handling
   Frank Wennmohs         : Technical directorship


 We gratefully acknowledge several colleagues who have allowed us to
 interface, adapt or use parts of their codes:
   Stefan Grimme, W. Hujo, H. Kruse,             : VdW corrections, initial TS optimization,
                  C. Bannwarth                     DFT functionals, gCP, sTDA/sTD-DF
   Ed Valeev                                     : LibInt (2-el integral package), F12 methods
   Garnet Chan, S. Sharma, J. Yang, R. Olivares  : DMRG
   Ulf Ekstrom                                   : XCFun DFT Library
   Mihaly Kallay                                 : mrcc  (arbitrary order and MRCC methods)
   Andreas Klamt, Michael Diedenhofen            : otool_cosmo (COSMO solvation model)
   Jiri Pittner, Ondrej Demel                    : Mk-CCSD
   Frank Weinhold                                : gennbo (NPA and NBO analysis)
   Christopher J. Cramer and Donald G. Truhlar   : smd solvation model
   Lars Goerigk                                  : TD-DFT with DH, B97 family of functionals
   V. Asgeirsson, H. Jonsson                     : NEB implementation
   FAccTs GmbH                                   : IRC, NEB, NEB-TS, Multilevel


 Your calculation uses the libint2 library for the computation of 2-el integrals
 For citations please refer to: http://libint.valeyev.net

 This ORCA versions uses:
   CBLAS   interface :  Fast vector & matrix operations
   LAPACKE interface :  Fast linear algebra routines
   SCALAPACK package :  Parallel linear algebra routines


----- Orbital basis set information -----
Your calculation utilizes the basis: aug-pc-4
   H, C-F              : F. Jensen, J. Chem. Phys. 115, 9113 (2001).
                         F. Jensen, J. Chem. Phys. 116, 7372 (2002).
                         F. Jensen, J. Chem. Phys. 117, 9234 (2002).
   Si-Cl               : F. Jensen, T. Helgaker, J. Chem. Phys. 121, 3463 (2004).
   He-B, Ne-Mg, Al, Ar : F. Jensen, J. Phys. Chem. A 111, 11198 (2007).
   K, Ca, Ga-Kr        : F. Jensen, J. Chem. Phys. 136, 094110 (2012).
   Sc-Zn               : F. Jensen, J. Chem. Phys. 138, 014107 (2013).

================================================================================
                                        WARNINGS
                       Please study these warnings very carefully!
================================================================================


INFO   : the flag for use of LIBINT has been found!

================================================================================
                                       INPUT FILE
================================================================================
NAME = co2_pbe.inp
|  1> !uks pbe nori aug-pc-4 grid5 nofinalgrid verytightscf
|  2> 
|  3> %maxcore 1500
|  4> 
|  5> %pal nprocs 4 end
|  6> 
|  7> %scf
|  8> 	maxiter 200
|  9> end
| 10> %elprop
| 11> 	dipole true
| 12> 	 polar 1
| 13> 	 maxiter 200
| 14> end
| 15> 
| 16> * xyz 0 1
| 17> C 0.0000 0.0000 0.0000
| 18> O 0.0000 0.0000 1.1621
| 19> O 0.0000 0.0000 -1.1621
| 20> *
| 21> 
| 22>                          ****END OF INPUT****
================================================================================

                       ****************************
                       * Single Point Calculation *
                       ****************************

---------------------------------
CARTESIAN COORDINATES (ANGSTROEM)
---------------------------------
  C      0.000000    0.000000    0.000000
  O      0.000000    0.000000    1.162100
  O      0.000000    0.000000   -1.162100

----------------------------
CARTESIAN COORDINATES (A.U.)
----------------------------
  NO LB      ZA    FRAG     MASS         X           Y           Z
   0 C     6.0000    0    12.011    0.000000    0.000000    0.000000
   1 O     8.0000    0    15.999    0.000000    0.000000    2.196051
   2 O     8.0000    0    15.999    0.000000    0.000000   -2.196051

--------------------------------
INTERNAL COORDINATES (ANGSTROEM)
--------------------------------
 C      0   0   0     0.000000000000     0.00000000     0.00000000
 O      1   0   0     1.162100000000     0.00000000     0.00000000
 O      1   2   0     1.162100000000   180.00000000     0.00000000

---------------------------
INTERNAL COORDINATES (A.U.)
---------------------------
 C      0   0   0     0.000000000000     0.00000000     0.00000000
 O      1   0   0     2.196050740230     0.00000000     0.00000000
 O      1   2   0     2.196050740230   180.00000000     0.00000000

---------------------
BASIS SET INFORMATION
---------------------
There are 2 groups of distinct atoms

 Group   1 Type C   : 28s12p7d4f3g2h contracted to 9s8p7d4f3g2h pattern {11101111111/51111111/1111111/1111/111/11}
 Group   2 Type O   : 27s12p7d4f3g2h contracted to 9s8p7d4f3g2h pattern {1191111111/51111111/1111111/1111/111/11}

Atom   0C    basis set group =>   1
Atom   1O    basis set group =>   2
Atom   2O    basis set group =>   2


           ************************************************************
           *        Program running with 4 parallel MPI-processes     *
           *              working on a common directory               *
           ************************************************************
------------------------------------------------------------------------------
                           ORCA GTO INTEGRAL CALCULATION
------------------------------------------------------------------------------

                         BASIS SET STATISTICS AND STARTUP INFO

 # of primitive gaussian shells          ...  166
 # of primitive gaussian functions       ...  526
 # of contracted shells                  ...   99
 # of contracted basis functions         ...  435
 Highest angular momentum                ...    5
 Maximum contraction depth               ...   11
 Integral package used                   ... LIBINT
 Integral threshhold            Thresh   ...  1.000e-12
 Primitive cut-off              TCut     ...  1.000e-14


------------------------------ INTEGRAL EVALUATION ----------------------------


 * One electron integrals 
 Pre-screening matrix                    ... done
 Shell pair data                         ... done (   0.002 sec)



           ************************************************************
           *        Program running with 4 parallel MPI-processes     *
           *              working on a common directory               *
           ************************************************************
-------------------------------------------------------------------------------
                                 ORCA SCF
-------------------------------------------------------------------------------

------------
SCF SETTINGS
------------
Hamiltonian:
 Density Functional     Method          .... DFT(GTOs)
 Exchange Functional    Exchange        .... PBE
   PBE kappa parameter   XKappa         ....  0.804000
   PBE mue parameter    XMuePBE         ....  0.219520
 Correlation Functional Correlation     .... PBE
   PBE beta parameter  CBetaPBE         ....  0.066725
 LDA part of GGA corr.  LDAOpt          .... PW91-LDA
 Gradients option       PostSCFGGA      .... off
   Density functional embedding theory  .... OFF
   NL short-range parameter             ....  6.400000


General Settings:
 Integral files         IntName         .... co2_pbe
 Hartree-Fock type      HFTyp           .... UHF
 Total Charge           Charge          ....    0
 Multiplicity           Mult            ....    1
 Number of Electrons    NEL             ....   22
 Basis Dimension        Dim             ....  435
 Nuclear Repulsion      ENuc            ....     58.2864492405 Eh

Convergence Acceleration:
 DIIS                   CNVDIIS         .... on
   Start iteration      DIISMaxIt       ....    12
   Startup error        DIISStart       ....  0.200000
   # of expansion vecs  DIISMaxEq       ....     5
   Bias factor          DIISBfac        ....   1.050
   Max. coefficient     DIISMaxC        ....  10.000
 Newton-Raphson         CNVNR           .... off
 SOSCF                  CNVSOSCF        .... off
 Level Shifting         CNVShift        .... on
   Level shift para.    LevelShift      ....    0.2500
   Turn off err/grad.   ShiftErr        ....    0.0010
 Zerner damping         CNVZerner       .... off
 Static damping         CNVDamp         .... on
   Fraction old density DampFac         ....    0.7000
   Max. Damping (<1)    DampMax         ....    0.9800
   Min. Damping (>=0)   DampMin         ....    0.0000
   Turn off err/grad.   DampErr         ....    0.1000
 Fernandez-Rico         CNVRico         .... off

SCF Procedure:
 Maximum # iterations   MaxIter         ....   200
 SCF integral mode      SCFMode         .... Direct
   Integral package                     .... LIBINT
 Reset frequency        DirectResetFreq ....    20
 Integral Threshold     Thresh          ....  1.000e-12 Eh
 Primitive CutOff       TCut            ....  1.000e-14 Eh

Convergence Tolerance:
 Convergence Check Mode ConvCheckMode   .... Total+1el-Energy
 Convergence forced     ConvForced      .... 0
 Energy Change          TolE            ....  1.000e-09 Eh
 1-El. energy change                    ....  1.000e-06 Eh
 DIIS Error             TolErr          ....  1.000e-08


Diagonalization of the overlap matrix:
Smallest eigenvalue                        ... 2.617e-07
Time for diagonalization                   ...    0.059 sec
Threshold for overlap eigenvalues          ... 1.000e-08
Number of eigenvalues below threshold      ... 0
Time for construction of square roots      ...    0.035 sec
Total time needed                          ...    0.094 sec

-------------------
DFT GRID GENERATION
-------------------

General Integration Accuracy     IntAcc      ...  5.010
Radial Grid Type                 RadialGrid  ... Gauss-Chebyshev
Angular Grid (max. acc.)         AngularGrid ... Lebedev-434
Angular grid pruning method      GridPruning ... 3 (G Style)
Weight generation scheme         WeightScheme... Becke
Basis function cutoff            BFCut       ...    1.0000e-12
Integration weight cutoff        WCut        ...    1.0000e-14
Grids for H and He will be reduced by one unit

# of grid points (after initial pruning)     ...  32382 (   0.0 sec)
# of grid points (after weights+screening)   ...  31994 (   0.0 sec)
nearest neighbour list constructed           ...    0.0 sec
Grid point re-assignment to atoms done       ...    0.0 sec
Grid point division into batches done        ...    0.3 sec
Reduced shell lists constructed in    0.4 sec

Total number of grid points                  ...    31994
Total number of batches                      ...      501
Average number of points per batch           ...       63
Average number of grid points per atom       ...    10665
Average number of shells per batch           ...    82.71 (83.54%)
Average number of basis functions per batch  ...   378.58 (87.03%)
Average number of large shells per batch     ...    76.43 (92.40%)
Average number of large basis fcns per batch ...   354.13 (93.54%)
Maximum spatial batch extension              ...  27.58, 27.58,  2.19 au
Average spatial batch extension              ...   0.59,  0.56,  0.30 au

Time for grid setup =    0.441 sec

------------------------------
INITIAL GUESS: MODEL POTENTIAL
------------------------------
Loading Hartree-Fock densities                     ... done
Calculating cut-offs                               ... done
Setting up the integral package                    ... done
Initializing the effective Hamiltonian             ... done
Starting the Coulomb interaction                   ... done (   0.0 sec)
Reading the grid                                   ... done
Mapping shells                                     ... done
Starting the XC term evaluation                    ... done (   0.7 sec)
  promolecular density results
     # of electrons  =     21.999994215
     EX              =    -21.387189716
     EC              =     -0.731593897
     EX+EC           =    -22.118783614
Transforming the Hamiltonian                       ... done (   0.0 sec)
Diagonalizing the Hamiltonian                      ... done (   0.0 sec)
Back transforming the eigenvectors                 ... done (   0.0 sec)
Now organizing SCF variables                       ... done
                      ------------------
                      INITIAL GUESS DONE (   1.3 sec)
                      ------------------
--------------
SCF ITERATIONS
--------------
ITER       Energy         Delta-E        Max-DP      RMS-DP      [F,P]     Damp
               ***  Starting incremental Fock matrix formation  ***
  0   -188.3835880340   0.000000000000 0.01797112  0.00015964  0.2282700 0.7000
  1   -188.4418593963  -0.058271362257 0.00511712  0.00008038  0.0655876 0.7000
                               ***Turning on DIIS***
  2   -188.4546787888  -0.012819392488 0.00804268  0.00010835  0.0253526 0.0000
  3   -188.4898781470  -0.035199358230 0.00396012  0.00004685  0.0303001 0.0000
  4   -188.4912745437  -0.001396396714 0.00396337  0.00002266  0.0224815 0.0000
  5   -188.4922941432  -0.001019599441 0.00069408  0.00000663  0.0044004 0.0000
  6   -188.4923434078  -0.000049264664 0.00008876  0.00000173  0.0009482 0.0000
  7   -188.4923455867  -0.000002178887 0.00002113  0.00000021  0.0000784 0.0000
  8   -188.4923456029  -0.000000016161 0.00000223  0.00000003  0.0000064 0.0000
  9   -188.4923456030  -0.000000000101 0.00000564  0.00000004  0.0000024 0.0000
 10   -188.4923456030  -0.000000000035 0.00001036  0.00000008  0.0000001 0.0000
                 **** Energy Check signals convergence ****

               *****************************************************
               *                     SUCCESS                       *
               *           SCF CONVERGED AFTER  11 CYCLES          *
               *****************************************************


----------------
TOTAL SCF ENERGY
----------------

Total Energy       :         -188.49234560 Eh           -5129.13748 eV

Components:
Nuclear Repulsion  :           58.28644924 Eh            1586.05492 eV
Electronic Energy  :         -246.77879484 Eh           -6715.19240 eV
One Electron Energy:         -372.76232910 Eh          -10143.37865 eV
Two Electron Energy:          125.98353425 Eh            3428.18625 eV

Virial components:
Potential Energy   :         -376.44174544 Eh          -10243.50066 eV
Kinetic Energy     :          187.94939984 Eh            5114.36318 eV
Virial Ratio       :            2.00288879


DFT components:
N(Alpha)           :       10.999997602267 electrons
N(Beta)            :       10.999997602267 electrons
N(Total)           :       21.999995204533 electrons
E(X)               :      -21.626496435806 Eh       
E(C)               :       -0.739073891225 Eh       
E(XC)              :      -22.365570327031 Eh       
DFET-embed. en.    :        0.000000000000 Eh       

---------------
SCF CONVERGENCE
---------------

  Last Energy change         ...    1.0459e-11  Tolerance :   1.0000e-09
  Last MAX-Density change    ...    3.2696e-05  Tolerance :   1.0000e-08
  Last RMS-Density change    ...    3.2213e-07  Tolerance :   1.0000e-09
  Last DIIS Error            ...    9.0889e-09  Tolerance :   1.0000e-08

             **** THE GBW FILE WAS UPDATED (co2_pbe.gbw) ****
             **** DENSITY FILE WAS UPDATED (co2_pbe.scfp.tmp) ****
             **** ENERGY FILE WAS UPDATED (co2_pbe.en.tmp) ****
----------------------
UHF SPIN CONTAMINATION
----------------------

Warning: in a DFT calculation there is little theoretical justification to 
         calculate <S**2> as in Hartree-Fock theory. We will do it anyways
         but you should keep in mind that the values have only limited relevance

Expectation value of <S**2>     :     0.000000
Ideal value S*(S+1) for S=0.0   :     0.000000
Deviation                       :     0.000000

----------------
ORBITAL ENERGIES
----------------
                 SPIN UP ORBITALS
  NO   OCC          E(Eh)            E(eV) 
   0   1.0000     -18.831258      -512.4246 
   1   1.0000     -18.831258      -512.4246 
   2   1.0000     -10.059234      -273.7257 
   3   1.0000      -1.072249       -29.1774 
   4   1.0000      -1.035404       -28.1748 
   5   1.0000      -0.506930       -13.7943 
   6   1.0000      -0.468566       -12.7503 
   7   1.0000      -0.468566       -12.7503 
   8   1.0000      -0.466418       -12.6919 
   9   1.0000      -0.333897        -9.0858 
  10   1.0000      -0.333897        -9.0858 
  11   0.0000      -0.034487        -0.9384 
  12   0.0000      -0.012611        -0.3432 
  13   0.0000      -0.012611        -0.3432 
  14   0.0000       0.017026         0.4633 
  15   0.0000       0.017088         0.4650 
  16   0.0000       0.017088         0.4650 
  17   0.0000       0.039796         1.0829 
  18   0.0000       0.052716         1.4345 
  19   0.0000       0.052716         1.4345 
  20   0.0000       0.057959         1.5771 
  21   0.0000       0.060551         1.6477 
  22   0.0000       0.062952         1.7130 
  23   0.0000       0.062952         1.7130 
  24   0.0000       0.084766         2.3066 
  25   0.0000       0.084766         2.3066 
  26   0.0000       0.100721         2.7408 
  27   0.0000       0.111790         3.0420 
  28   0.0000       0.111790         3.0420 
  29   0.0000       0.124859         3.3976 
  30   0.0000       0.138756         3.7757 
  31   0.0000       0.138756         3.7757 
  32   0.0000       0.152872         4.1599 
  33   0.0000       0.162104         4.4111 
  34   0.0000       0.173312         4.7161 
  35   0.0000       0.173312         4.7161 
  36   0.0000       0.188369         5.1258 
  37   0.0000       0.188369         5.1258 
  38   0.0000       0.201232         5.4758 
  39   0.0000       0.201232         5.4758 
  40   0.0000       0.214179         5.8281 
  41   0.0000       0.214179         5.8281 
  42   0.0000       0.225550         6.1375 
  43   0.0000       0.226524         6.1640 
  44   0.0000       0.234666         6.3856 
  45   0.0000       0.234666         6.3856 
  46   0.0000       0.256523         6.9803 
  47   0.0000       0.256523         6.9803 
  48   0.0000       0.283094         7.7034 
  49   0.0000       0.296276         8.0621 
  50   0.0000       0.296276         8.0621 
  51   0.0000       0.306654         8.3445 
  52   0.0000       0.311581         8.4785 
  53   0.0000       0.311581         8.4786 
  54   0.0000       0.311617         8.4795 
  55   0.0000       0.314999         8.5716 
  56   0.0000       0.314999         8.5716 
  57   0.0000       0.324205         8.8221 
  58   0.0000       0.324205         8.8221 
  59   0.0000       0.328850         8.9485 
  60   0.0000       0.328850         8.9485 
  61   0.0000       0.352967         9.6047 
  62   0.0000       0.352967         9.6047 
  63   0.0000       0.354869         9.6565 
  64   0.0000       0.394058        10.7229 
  65   0.0000       0.394058        10.7229 
  66   0.0000       0.432926        11.7805 
  67   0.0000       0.447354        12.1731 
  68   0.0000       0.447354        12.1731 
  69   0.0000       0.459327        12.4989 
  70   0.0000       0.461870        12.5681 
  71   0.0000       0.461870        12.5681 
  72   0.0000       0.489605        13.3228 
  73   0.0000       0.489605        13.3228 
  74   0.0000       0.496215        13.5027 
  75   0.0000       0.496215        13.5027 
  76   0.0000       0.498184        13.5563 
  77   0.0000       0.500649        13.6233 
  78   0.0000       0.500649        13.6233 
  79   0.0000       0.503743        13.7075 
  80   0.0000       0.503743        13.7075 
  81   0.0000       0.505871        13.7654 
  82   0.0000       0.505871        13.7654 
  83   0.0000       0.546277        14.8650 
  84   0.0000       0.546277        14.8650 
  85   0.0000       0.549549        14.9540 
  86   0.0000       0.549549        14.9540 
  87   0.0000       0.567788        15.4503 
  88   0.0000       0.567788        15.4503 
  89   0.0000       0.572653        15.5827 
  90   0.0000       0.601823        16.3764 
  91   0.0000       0.601823        16.3764 
  92   0.0000       0.603890        16.4327 
  93   0.0000       0.627647        17.0791 
  94   0.0000       0.641094        17.4451 
  95   0.0000       0.641094        17.4451 
  96   0.0000       0.641345        17.4519 
  97   0.0000       0.641345        17.4519 
  98   0.0000       0.669615        18.2212 
  99   0.0000       0.669615        18.2212 
 100   0.0000       0.678597        18.4656 
 101   0.0000       0.708166        19.2702 
 102   0.0000       0.708166        19.2702 
 103   0.0000       0.719518        19.5791 
 104   0.0000       0.741382        20.1740 
 105   0.0000       0.741382        20.1740 
 106   0.0000       0.762559        20.7503 
 107   0.0000       0.762559        20.7503 
 108   0.0000       0.772628        21.0243 
 109   0.0000       0.772628        21.0243 
 110   0.0000       0.794163        21.6103 
 111   0.0000       0.829552        22.5732 
 112   0.0000       0.829552        22.5732 
 113   0.0000       0.850024        23.1303 
 114   0.0000       0.850024        23.1303 
 115   0.0000       0.864216        23.5165 
 116   0.0000       0.865439        23.5498 
 117   0.0000       0.865439        23.5498 
 118   0.0000       0.896469        24.3942 
 119   0.0000       0.905933        24.6517 
 120   0.0000       0.905933        24.6517 
 121   0.0000       0.915587        24.9144 
 122   0.0000       0.915587        24.9144 
 123   0.0000       0.924079        25.1455 
 124   0.0000       0.924079        25.1455 
 125   0.0000       0.940628        25.5958 
 126   0.0000       0.940629        25.5958 
 127   0.0000       0.943476        25.6733 
 128   0.0000       0.958031        26.0694 
 129   0.0000       0.958031        26.0694 
 130   0.0000       0.961853        26.1733 
 131   0.0000       0.961853        26.1733 
 132   0.0000       0.992988        27.0206 
 133   0.0000       0.992988        27.0206 
 134   0.0000       1.040087        28.3022 
 135   0.0000       1.040087        28.3022 
 136   0.0000       1.042663        28.3723 
 137   0.0000       1.043525        28.3957 
 138   0.0000       1.043525        28.3957 
 139   0.0000       1.062894        28.9228 
 140   0.0000       1.062894        28.9228 
 141   0.0000       1.087440        29.5907 
 142   0.0000       1.087440        29.5907 
 143   0.0000       1.116262        30.3750 
 144   0.0000       1.126377        30.6503 
 145   0.0000       1.126377        30.6503 
 146   0.0000       1.147399        31.2223 
 147   0.0000       1.147399        31.2223 
 148   0.0000       1.187864        32.3234 
 149   0.0000       1.199302        32.6347 
 150   0.0000       1.199303        32.6347 
 151   0.0000       1.221750        33.2455 
 152   0.0000       1.221750        33.2455 
 153   0.0000       1.251160        34.0458 
 154   0.0000       1.265524        34.4366 
 155   0.0000       1.265524        34.4366 
 156   0.0000       1.292916        35.1820 
 157   0.0000       1.292916        35.1820 
 158   0.0000       1.293320        35.1930 
 159   0.0000       1.293377        35.1946 
 160   0.0000       1.293377        35.1946 
 161   0.0000       1.375582        37.4315 
 162   0.0000       1.426079        38.8056 
 163   0.0000       1.426079        38.8056 
 164   0.0000       1.430914        38.9371 
 165   0.0000       1.430914        38.9371 
 166   0.0000       1.506325        40.9892 
 167   0.0000       1.620991        44.1094 
 168   0.0000       1.620991        44.1094 
 169   0.0000       1.644963        44.7617 
 170   0.0000       1.740524        47.3621 
 171   0.0000       1.740524        47.3621 
 172   0.0000       1.748209        47.5712 
 173   0.0000       1.817777        49.4642 
 174   0.0000       1.817777        49.4642 
 175   0.0000       1.892609        51.5005 
 176   0.0000       1.892609        51.5005 
 177   0.0000       1.904014        51.8109 
 178   0.0000       1.922183        52.3053 
 179   0.0000       1.922183        52.3053 
 180   0.0000       1.931650        52.5629 
 181   0.0000       2.030120        55.2424 
 182   0.0000       2.030120        55.2424 
 183   0.0000       2.115186        57.5571 
 184   0.0000       2.115186        57.5571 
 185   0.0000       2.140182        58.2373 
 186   0.0000       2.140182        58.2373 
 187   0.0000       2.165261        58.9198 
 188   0.0000       2.165262        58.9198 
 189   0.0000       2.166920        58.9649 
 190   0.0000       2.166921        58.9649 
 191   0.0000       2.170025        59.0494 
 192   0.0000       2.283041        62.1247 
 193   0.0000       2.283041        62.1247 
 194   0.0000       2.378989        64.7356 
 195   0.0000       2.387100        64.9563 
 196   0.0000       2.405642        65.4608 
 197   0.0000       2.405642        65.4608 
 198   0.0000       2.488679        67.7204 
 199   0.0000       2.488679        67.7204 
 200   0.0000       2.492429        67.8224 
 201   0.0000       2.492429        67.8224 
 202   0.0000       2.707241        73.6678 
 203   0.0000       2.776860        75.5622 
 204   0.0000       2.776860        75.5622 
 205   0.0000       2.921031        79.4853 
 206   0.0000       2.921031        79.4853 
 207   0.0000       2.969402        80.8015 
 208   0.0000       3.290999        89.5526 
 209   0.0000       3.451204        93.9120 
 210   0.0000       3.451204        93.9120 
 211   0.0000       3.515325        95.6568 
 212   0.0000       3.528060        96.0034 
 213   0.0000       3.528060        96.0034 
 214   0.0000       3.546869        96.5152 
 215   0.0000       3.824855       104.0796 
 216   0.0000       3.824855       104.0796 
 217   0.0000       4.005224       108.9877 
 218   0.0000       4.009054       109.0919 
 219   0.0000       4.009054       109.0919 
 220   0.0000       4.064043       110.5882 
 221   0.0000       4.064043       110.5882 
 222   0.0000       4.160627       113.2164 
 223   0.0000       4.160627       113.2164 
 224   0.0000       4.165920       113.3604 
 225   0.0000       4.165920       113.3604 
 226   0.0000       4.178105       113.6920 
 227   0.0000       4.209557       114.5479 
 228   0.0000       4.209557       114.5479 
 229   0.0000       4.283253       116.5532 
 230   0.0000       4.336998       118.0157 
 231   0.0000       4.336998       118.0157 
 232   0.0000       4.400667       119.7482 
 233   0.0000       4.400667       119.7482 
 234   0.0000       4.488208       122.1304 
 235   0.0000       4.655276       126.6765 
 236   0.0000       4.713403       128.2582 
 237   0.0000       4.713404       128.2582 
 238   0.0000       4.749259       129.2339 
 239   0.0000       4.749259       129.2339 
 240   0.0000       4.811008       130.9142 
 241   0.0000       4.811008       130.9142 
 242   0.0000       4.838696       131.6676 
 243   0.0000       4.838697       131.6676 
 244   0.0000       4.983827       135.6168 
 245   0.0000       4.983827       135.6168 
 246   0.0000       5.124447       139.4433 
 247   0.0000       5.124447       139.4433 
 248   0.0000       5.141379       139.9040 
 249   0.0000       5.141379       139.9040 
 250   0.0000       5.164401       140.5305 
 251   0.0000       5.182235       141.0158 
 252   0.0000       5.182235       141.0158 
 253   0.0000       5.395468       146.8182 
 254   0.0000       5.752093       156.5224 
 255   0.0000       5.809697       158.0899 
 256   0.0000       5.809697       158.0899 
 257   0.0000       5.896878       160.4622 
 258   0.0000       5.896882       160.4623 
 259   0.0000       5.901423       160.5859 
 260   0.0000       5.901423       160.5859 
 261   0.0000       5.960720       162.1994 
 262   0.0000       5.960724       162.1995 
 263   0.0000       6.068895       165.1430 
 264   0.0000       6.098355       165.9447 
 265   0.0000       6.098355       165.9447 
 266   0.0000       6.102737       166.0639 
 267   0.0000       6.102737       166.0639 
 268   0.0000       6.391100       173.9107 
 269   0.0000       6.617278       180.0653 
 270   0.0000       6.617278       180.0653 
 271   0.0000       6.783113       184.5779 
 272   0.0000       6.783113       184.5779 
 273   0.0000       6.901386       187.7963 
 274   0.0000       6.901386       187.7963 
 275   0.0000       7.036001       191.4593 
 276   0.0000       7.401115       201.3946 
 277   0.0000       7.401116       201.3946 
 278   0.0000       7.455305       202.8692 
 279   0.0000       8.072757       219.6709 
 280   0.0000       8.072757       219.6709 
 281   0.0000       8.126198       221.1251 
 282   0.0000       8.258083       224.7139 
 283   0.0000       8.258083       224.7139 
 284   0.0000       8.328915       226.6413 
 285   0.0000       8.328917       226.6414 
 286   0.0000       8.386538       228.2093 
 287   0.0000       8.386538       228.2093 
 288   0.0000       8.467585       230.4147 
 289   0.0000       9.226334       251.0613 
 290   0.0000       9.415509       256.2090 
 291   0.0000       9.415517       256.2092 
 292   0.0000       9.570192       260.4182 
 293   0.0000       9.570199       260.4184 
 294   0.0000       9.635375       262.1919 
 295   0.0000      10.133012       275.7333 
 296   0.0000      10.133014       275.7333 
 297   0.0000      10.236111       278.5387 
 298   0.0000      10.236111       278.5387 
 299   0.0000      10.324977       280.9569 
 300   0.0000      10.324977       280.9569 
 301   0.0000      10.429654       283.8053 
 302   0.0000      10.429655       283.8054 
 303   0.0000      10.463229       284.7189 
 304   0.0000      10.468968       284.8751 
 305   0.0000      10.468968       284.8751 
 306   0.0000      10.552988       287.1614 
 307   0.0000      10.552988       287.1614 
 308   0.0000      10.565837       287.5110 
 309   0.0000      10.565837       287.5110 
 310   0.0000      10.567465       287.5553 
 311   0.0000      10.658019       290.0195 
 312   0.0000      10.658019       290.0195 
 313   0.0000      10.983458       298.8751 
 314   0.0000      11.010553       299.6124 
 315   0.0000      11.076265       301.4005 
 316   0.0000      11.076266       301.4005 
 317   0.0000      11.297089       307.4094 
 318   0.0000      11.297089       307.4094 
 319   0.0000      11.392632       310.0093 
 320   0.0000      11.392632       310.0093 
 321   0.0000      11.619208       316.1747 
 322   0.0000      11.619209       316.1747 
 323   0.0000      11.643201       316.8276 
 324   0.0000      11.643204       316.8277 
 325   0.0000      11.652692       317.0859 
 326   0.0000      11.652692       317.0859 
 327   0.0000      11.849994       322.4547 
 328   0.0000      11.849994       322.4547 
 329   0.0000      11.982045       326.0480 
 330   0.0000      11.982045       326.0480 
 331   0.0000      11.993101       326.3489 
 332   0.0000      11.994074       326.3754 
 333   0.0000      11.994074       326.3754 
 334   0.0000      12.031718       327.3997 
 335   0.0000      12.031718       327.3997 
 336   0.0000      12.045562       327.7764 
 337   0.0000      12.045563       327.7764 
 338   0.0000      12.308296       334.9258 
 339   0.0000      12.374388       336.7242 
 340   0.0000      12.374388       336.7242 
 341   0.0000      12.515906       340.5751 
 342   0.0000      12.515906       340.5751 
 343   0.0000      12.567251       341.9723 
 344   0.0000      12.567251       341.9723 
 345   0.0000      12.697447       345.5151 
 346   0.0000      12.697447       345.5151 
 347   0.0000      12.953021       352.4696 
 348   0.0000      12.960057       352.6611 
 349   0.0000      12.960057       352.6611 
 350   0.0000      12.961312       352.6952 
 351   0.0000      13.039811       354.8313 
 352   0.0000      13.039811       354.8313 
 353   0.0000      13.229018       359.9799 
 354   0.0000      13.229018       359.9799 
 355   0.0000      13.240638       360.2961 
 356   0.0000      13.240638       360.2961 
 357   0.0000      13.697088       372.7167 
 358   0.0000      14.119036       384.1985 
 359   0.0000      14.119036       384.1985 
 360   0.0000      14.239407       387.4740 
 361   0.0000      14.239407       387.4740 
 362   0.0000      14.268426       388.2636 
 363   0.0000      14.941103       406.5681 
 364   0.0000      14.941103       406.5681 
 365   0.0000      14.941458       406.5777 
 366   0.0000      14.941459       406.5778 
 367   0.0000      15.740341       428.3165 
 368   0.0000      16.305679       443.7001 
 369   0.0000      16.305679       443.7001 
 370   0.0000      16.813034       457.5059 
 371   0.0000      16.944381       461.0801 
 372   0.0000      16.944444       461.0818 
 373   0.0000      16.947807       461.1733 
 374   0.0000      16.947871       461.1750 
 375   0.0000      17.118634       465.8217 
 376   0.0000      17.118636       465.8218 
 377   0.0000      17.136870       466.3180 
 378   0.0000      17.136870       466.3180 
 379   0.0000      17.308185       470.9797 
 380   0.0000      17.308185       470.9797 
 381   0.0000      17.436391       474.4683 
 382   0.0000      17.849278       485.7035 
 383   0.0000      17.849281       485.7036 
 384   0.0000      18.317071       498.4328 
 385   0.0000      18.317071       498.4328 
 386   0.0000      18.319168       498.4899 
 387   0.0000      18.319169       498.4899 
 388   0.0000      18.583089       505.6716 
 389   0.0000      18.709760       509.1185 
 390   0.0000      18.709760       509.1185 
 391   0.0000      18.797694       511.5113 
 392   0.0000      18.991125       516.7748 
 393   0.0000      19.056833       518.5628 
 394   0.0000      19.056833       518.5628 
 395   0.0000      20.167303       548.7802 
 396   0.0000      20.167303       548.7802 
 397   0.0000      21.565936       586.8390 
 398   0.0000      23.038133       626.8995 
 399   0.0000      23.038201       626.9013 
 400   0.0000      23.045078       627.0885 
 401   0.0000      23.045150       627.0904 
 402   0.0000      24.187914       658.1866 
 403   0.0000      24.187914       658.1866 
 404   0.0000      24.600268       669.4073 
 405   0.0000      24.803845       674.9469 
 406   0.0000      24.803845       674.9469 
 407   0.0000      26.737522       727.5650 
 408   0.0000      27.132739       738.3194 
 409   0.0000      30.253040       823.2271 
 410   0.0000      30.679501       834.8317 
 411   0.0000      31.856588       866.8618 
 412   0.0000      31.856607       866.8623 
 413   0.0000      32.132656       874.3740 
 414   0.0000      32.132656       874.3740 
 415   0.0000      32.173436       875.4837 
 416   0.0000      32.173436       875.4837 
 417   0.0000      33.429693       909.6682 
 418   0.0000      33.429693       909.6682 
 419   0.0000      34.288119       933.0271 
 420   0.0000      35.314070       960.9447 
 421   0.0000      36.813327      1001.7416 
 422   0.0000      66.565531      1811.3402 
 423   0.0000      66.565636      1811.3430 
 424   0.0000      66.576766      1811.6459 
 425   0.0000      66.576872      1811.6488 
 426   0.0000      67.224959      1829.2841 
 427   0.0000      67.224959      1829.2841 
 428   0.0000      67.682120      1841.7241 
 429   0.0000      67.682120      1841.7241 
 430   0.0000      69.014838      1877.9892 
 431   0.0000      69.088896      1880.0044 
 432   0.0000      77.444911      2107.3832 
 433   0.0000     143.417251      3902.5818 
 434   0.0000     144.174763      3923.1947 

                 SPIN DOWN ORBITALS
  NO   OCC          E(Eh)            E(eV) 
   0   1.0000     -18.831258      -512.4246 
   1   1.0000     -18.831258      -512.4246 
   2   1.0000     -10.059234      -273.7257 
   3   1.0000      -1.072249       -29.1774 
   4   1.0000      -1.035404       -28.1748 
   5   1.0000      -0.506930       -13.7943 
   6   1.0000      -0.468566       -12.7503 
   7   1.0000      -0.468566       -12.7503 
   8   1.0000      -0.466418       -12.6919 
   9   1.0000      -0.333897        -9.0858 
  10   1.0000      -0.333897        -9.0858 
  11   0.0000      -0.034487        -0.9384 
  12   0.0000      -0.012611        -0.3432 
  13   0.0000      -0.012611        -0.3432 
  14   0.0000       0.017026         0.4633 
  15   0.0000       0.017088         0.4650 
  16   0.0000       0.017088         0.4650 
  17   0.0000       0.039796         1.0829 
  18   0.0000       0.052716         1.4345 
  19   0.0000       0.052716         1.4345 
  20   0.0000       0.057959         1.5771 
  21   0.0000       0.060551         1.6477 
  22   0.0000       0.062952         1.7130 
  23   0.0000       0.062952         1.7130 
  24   0.0000       0.084766         2.3066 
  25   0.0000       0.084766         2.3066 
  26   0.0000       0.100721         2.7408 
  27   0.0000       0.111790         3.0420 
  28   0.0000       0.111790         3.0420 
  29   0.0000       0.124859         3.3976 
  30   0.0000       0.138756         3.7757 
  31   0.0000       0.138756         3.7757 
  32   0.0000       0.152872         4.1599 
  33   0.0000       0.162104         4.4111 
  34   0.0000       0.173312         4.7161 
  35   0.0000       0.173312         4.7161 
  36   0.0000       0.188369         5.1258 
  37   0.0000       0.188369         5.1258 
  38   0.0000       0.201232         5.4758 
  39   0.0000       0.201232         5.4758 
  40   0.0000       0.214179         5.8281 
  41   0.0000       0.214179         5.8281 
  42   0.0000       0.225550         6.1375 
  43   0.0000       0.226524         6.1640 
  44   0.0000       0.234666         6.3856 
  45   0.0000       0.234666         6.3856 
  46   0.0000       0.256523         6.9803 
  47   0.0000       0.256523         6.9803 
  48   0.0000       0.283094         7.7034 
  49   0.0000       0.296276         8.0621 
  50   0.0000       0.296276         8.0621 
  51   0.0000       0.306654         8.3445 
  52   0.0000       0.311581         8.4785 
  53   0.0000       0.311581         8.4786 
  54   0.0000       0.311617         8.4795 
  55   0.0000       0.314999         8.5716 
  56   0.0000       0.314999         8.5716 
  57   0.0000       0.324205         8.8221 
  58   0.0000       0.324205         8.8221 
  59   0.0000       0.328850         8.9485 
  60   0.0000       0.328850         8.9485 
  61   0.0000       0.352967         9.6047 
  62   0.0000       0.352967         9.6047 
  63   0.0000       0.354869         9.6565 
  64   0.0000       0.394058        10.7229 
  65   0.0000       0.394058        10.7229 
  66   0.0000       0.432926        11.7805 
  67   0.0000       0.447354        12.1731 
  68   0.0000       0.447354        12.1731 
  69   0.0000       0.459327        12.4989 
  70   0.0000       0.461870        12.5681 
  71   0.0000       0.461870        12.5681 
  72   0.0000       0.489605        13.3228 
  73   0.0000       0.489605        13.3228 
  74   0.0000       0.496215        13.5027 
  75   0.0000       0.496215        13.5027 
  76   0.0000       0.498184        13.5563 
  77   0.0000       0.500649        13.6233 
  78   0.0000       0.500649        13.6233 
  79   0.0000       0.503743        13.7075 
  80   0.0000       0.503743        13.7075 
  81   0.0000       0.505871        13.7654 
  82   0.0000       0.505871        13.7654 
  83   0.0000       0.546277        14.8650 
  84   0.0000       0.546277        14.8650 
  85   0.0000       0.549549        14.9540 
  86   0.0000       0.549549        14.9540 
  87   0.0000       0.567788        15.4503 
  88   0.0000       0.567788        15.4503 
  89   0.0000       0.572653        15.5827 
  90   0.0000       0.601823        16.3764 
  91   0.0000       0.601823        16.3764 
  92   0.0000       0.603890        16.4327 
  93   0.0000       0.627647        17.0791 
  94   0.0000       0.641094        17.4451 
  95   0.0000       0.641094        17.4451 
  96   0.0000       0.641345        17.4519 
  97   0.0000       0.641345        17.4519 
  98   0.0000       0.669615        18.2212 
  99   0.0000       0.669615        18.2212 
 100   0.0000       0.678597        18.4656 
 101   0.0000       0.708166        19.2702 
 102   0.0000       0.708166        19.2702 
 103   0.0000       0.719518        19.5791 
 104   0.0000       0.741382        20.1740 
 105   0.0000       0.741382        20.1740 
 106   0.0000       0.762559        20.7503 
 107   0.0000       0.762559        20.7503 
 108   0.0000       0.772628        21.0243 
 109   0.0000       0.772628        21.0243 
 110   0.0000       0.794163        21.6103 
 111   0.0000       0.829552        22.5732 
 112   0.0000       0.829552        22.5732 
 113   0.0000       0.850024        23.1303 
 114   0.0000       0.850024        23.1303 
 115   0.0000       0.864216        23.5165 
 116   0.0000       0.865439        23.5498 
 117   0.0000       0.865439        23.5498 
 118   0.0000       0.896469        24.3942 
 119   0.0000       0.905933        24.6517 
 120   0.0000       0.905933        24.6517 
 121   0.0000       0.915587        24.9144 
 122   0.0000       0.915587        24.9144 
 123   0.0000       0.924079        25.1455 
 124   0.0000       0.924079        25.1455 
 125   0.0000       0.940628        25.5958 
 126   0.0000       0.940629        25.5958 
 127   0.0000       0.943476        25.6733 
 128   0.0000       0.958031        26.0694 
 129   0.0000       0.958031        26.0694 
 130   0.0000       0.961853        26.1733 
 131   0.0000       0.961853        26.1733 
 132   0.0000       0.992988        27.0206 
 133   0.0000       0.992988        27.0206 
 134   0.0000       1.040087        28.3022 
 135   0.0000       1.040087        28.3022 
 136   0.0000       1.042663        28.3723 
 137   0.0000       1.043525        28.3957 
 138   0.0000       1.043525        28.3957 
 139   0.0000       1.062894        28.9228 
 140   0.0000       1.062894        28.9228 
 141   0.0000       1.087440        29.5907 
 142   0.0000       1.087440        29.5907 
 143   0.0000       1.116262        30.3750 
 144   0.0000       1.126377        30.6503 
 145   0.0000       1.126377        30.6503 
 146   0.0000       1.147399        31.2223 
 147   0.0000       1.147399        31.2223 
 148   0.0000       1.187864        32.3234 
 149   0.0000       1.199302        32.6347 
 150   0.0000       1.199303        32.6347 
 151   0.0000       1.221750        33.2455 
 152   0.0000       1.221750        33.2455 
 153   0.0000       1.251160        34.0458 
 154   0.0000       1.265524        34.4366 
 155   0.0000       1.265524        34.4366 
 156   0.0000       1.292916        35.1820 
 157   0.0000       1.292916        35.1820 
 158   0.0000       1.293320        35.1930 
 159   0.0000       1.293377        35.1946 
 160   0.0000       1.293377        35.1946 
 161   0.0000       1.375582        37.4315 
 162   0.0000       1.426079        38.8056 
 163   0.0000       1.426079        38.8056 
 164   0.0000       1.430914        38.9371 
 165   0.0000       1.430914        38.9371 
 166   0.0000       1.506325        40.9892 
 167   0.0000       1.620991        44.1094 
 168   0.0000       1.620991        44.1094 
 169   0.0000       1.644963        44.7617 
 170   0.0000       1.740524        47.3621 
 171   0.0000       1.740524        47.3621 
 172   0.0000       1.748209        47.5712 
 173   0.0000       1.817777        49.4642 
 174   0.0000       1.817777        49.4642 
 175   0.0000       1.892609        51.5005 
 176   0.0000       1.892609        51.5005 
 177   0.0000       1.904014        51.8109 
 178   0.0000       1.922183        52.3053 
 179   0.0000       1.922183        52.3053 
 180   0.0000       1.931650        52.5629 
 181   0.0000       2.030120        55.2424 
 182   0.0000       2.030120        55.2424 
 183   0.0000       2.115186        57.5571 
 184   0.0000       2.115186        57.5571 
 185   0.0000       2.140182        58.2373 
 186   0.0000       2.140182        58.2373 
 187   0.0000       2.165261        58.9198 
 188   0.0000       2.165262        58.9198 
 189   0.0000       2.166920        58.9649 
 190   0.0000       2.166921        58.9649 
 191   0.0000       2.170025        59.0494 
 192   0.0000       2.283041        62.1247 
 193   0.0000       2.283041        62.1247 
 194   0.0000       2.378989        64.7356 
 195   0.0000       2.387100        64.9563 
 196   0.0000       2.405642        65.4608 
 197   0.0000       2.405642        65.4608 
 198   0.0000       2.488679        67.7204 
 199   0.0000       2.488679        67.7204 
 200   0.0000       2.492429        67.8224 
 201   0.0000       2.492429        67.8224 
 202   0.0000       2.707241        73.6678 
 203   0.0000       2.776860        75.5622 
 204   0.0000       2.776860        75.5622 
 205   0.0000       2.921031        79.4853 
 206   0.0000       2.921031        79.4853 
 207   0.0000       2.969402        80.8015 
 208   0.0000       3.290999        89.5526 
 209   0.0000       3.451204        93.9120 
 210   0.0000       3.451204        93.9120 
 211   0.0000       3.515325        95.6568 
 212   0.0000       3.528060        96.0034 
 213   0.0000       3.528060        96.0034 
 214   0.0000       3.546869        96.5152 
 215   0.0000       3.824855       104.0796 
 216   0.0000       3.824855       104.0796 
 217   0.0000       4.005224       108.9877 
 218   0.0000       4.009054       109.0919 
 219   0.0000       4.009054       109.0919 
 220   0.0000       4.064043       110.5882 
 221   0.0000       4.064043       110.5882 
 222   0.0000       4.160627       113.2164 
 223   0.0000       4.160627       113.2164 
 224   0.0000       4.165920       113.3604 
 225   0.0000       4.165920       113.3604 
 226   0.0000       4.178105       113.6920 
 227   0.0000       4.209557       114.5479 
 228   0.0000       4.209557       114.5479 
 229   0.0000       4.283253       116.5532 
 230   0.0000       4.336998       118.0157 
 231   0.0000       4.336998       118.0157 
 232   0.0000       4.400667       119.7482 
 233   0.0000       4.400667       119.7482 
 234   0.0000       4.488208       122.1304 
 235   0.0000       4.655276       126.6765 
 236   0.0000       4.713403       128.2582 
 237   0.0000       4.713404       128.2582 
 238   0.0000       4.749259       129.2339 
 239   0.0000       4.749259       129.2339 
 240   0.0000       4.811008       130.9142 
 241   0.0000       4.811008       130.9142 
 242   0.0000       4.838696       131.6676 
 243   0.0000       4.838697       131.6676 
 244   0.0000       4.983827       135.6168 
 245   0.0000       4.983827       135.6168 
 246   0.0000       5.124447       139.4433 
 247   0.0000       5.124447       139.4433 
 248   0.0000       5.141379       139.9040 
 249   0.0000       5.141379       139.9040 
 250   0.0000       5.164401       140.5305 
 251   0.0000       5.182235       141.0158 
 252   0.0000       5.182235       141.0158 
 253   0.0000       5.395468       146.8182 
 254   0.0000       5.752093       156.5224 
 255   0.0000       5.809697       158.0899 
 256   0.0000       5.809697       158.0899 
 257   0.0000       5.896878       160.4622 
 258   0.0000       5.896882       160.4623 
 259   0.0000       5.901423       160.5859 
 260   0.0000       5.901423       160.5859 
 261   0.0000       5.960720       162.1994 
 262   0.0000       5.960724       162.1995 
 263   0.0000       6.068895       165.1430 
 264   0.0000       6.098355       165.9447 
 265   0.0000       6.098355       165.9447 
 266   0.0000       6.102737       166.0639 
 267   0.0000       6.102737       166.0639 
 268   0.0000       6.391100       173.9107 
 269   0.0000       6.617278       180.0653 
 270   0.0000       6.617278       180.0653 
 271   0.0000       6.783113       184.5779 
 272   0.0000       6.783113       184.5779 
 273   0.0000       6.901386       187.7963 
 274   0.0000       6.901386       187.7963 
 275   0.0000       7.036001       191.4593 
 276   0.0000       7.401115       201.3946 
 277   0.0000       7.401116       201.3946 
 278   0.0000       7.455305       202.8692 
 279   0.0000       8.072757       219.6709 
 280   0.0000       8.072757       219.6709 
 281   0.0000       8.126198       221.1251 
 282   0.0000       8.258083       224.7139 
 283   0.0000       8.258083       224.7139 
 284   0.0000       8.328915       226.6413 
 285   0.0000       8.328917       226.6414 
 286   0.0000       8.386538       228.2093 
 287   0.0000       8.386538       228.2093 
 288   0.0000       8.467585       230.4147 
 289   0.0000       9.226334       251.0613 
 290   0.0000       9.415509       256.2090 
 291   0.0000       9.415517       256.2092 
 292   0.0000       9.570192       260.4182 
 293   0.0000       9.570199       260.4184 
 294   0.0000       9.635375       262.1919 
 295   0.0000      10.133012       275.7333 
 296   0.0000      10.133014       275.7333 
 297   0.0000      10.236111       278.5387 
 298   0.0000      10.236111       278.5387 
 299   0.0000      10.324977       280.9569 
 300   0.0000      10.324977       280.9569 
 301   0.0000      10.429654       283.8053 
 302   0.0000      10.429655       283.8054 
 303   0.0000      10.463229       284.7189 
 304   0.0000      10.468968       284.8751 
 305   0.0000      10.468968       284.8751 
 306   0.0000      10.552988       287.1614 
 307   0.0000      10.552988       287.1614 
 308   0.0000      10.565837       287.5110 
 309   0.0000      10.565837       287.5110 
 310   0.0000      10.567465       287.5553 
 311   0.0000      10.658019       290.0195 
 312   0.0000      10.658019       290.0195 
 313   0.0000      10.983458       298.8751 
 314   0.0000      11.010553       299.6124 
 315   0.0000      11.076265       301.4005 
 316   0.0000      11.076266       301.4005 
 317   0.0000      11.297089       307.4094 
 318   0.0000      11.297089       307.4094 
 319   0.0000      11.392632       310.0093 
 320   0.0000      11.392632       310.0093 
 321   0.0000      11.619208       316.1747 
 322   0.0000      11.619209       316.1747 
 323   0.0000      11.643201       316.8276 
 324   0.0000      11.643204       316.8277 
 325   0.0000      11.652692       317.0859 
 326   0.0000      11.652692       317.0859 
 327   0.0000      11.849994       322.4547 
 328   0.0000      11.849994       322.4547 
 329   0.0000      11.982045       326.0480 
 330   0.0000      11.982045       326.0480 
 331   0.0000      11.993101       326.3489 
 332   0.0000      11.994074       326.3754 
 333   0.0000      11.994074       326.3754 
 334   0.0000      12.031718       327.3997 
 335   0.0000      12.031718       327.3997 
 336   0.0000      12.045562       327.7764 
 337   0.0000      12.045563       327.7764 
 338   0.0000      12.308296       334.9258 
 339   0.0000      12.374388       336.7242 
 340   0.0000      12.374388       336.7242 
 341   0.0000      12.515906       340.5751 
 342   0.0000      12.515906       340.5751 
 343   0.0000      12.567251       341.9723 
 344   0.0000      12.567251       341.9723 
 345   0.0000      12.697447       345.5151 
 346   0.0000      12.697447       345.5151 
 347   0.0000      12.953021       352.4696 
 348   0.0000      12.960057       352.6611 
 349   0.0000      12.960057       352.6611 
 350   0.0000      12.961312       352.6952 
 351   0.0000      13.039811       354.8313 
 352   0.0000      13.039811       354.8313 
 353   0.0000      13.229018       359.9799 
 354   0.0000      13.229018       359.9799 
 355   0.0000      13.240638       360.2961 
 356   0.0000      13.240638       360.2961 
 357   0.0000      13.697088       372.7167 
 358   0.0000      14.119036       384.1985 
 359   0.0000      14.119036       384.1985 
 360   0.0000      14.239407       387.4740 
 361   0.0000      14.239407       387.4740 
 362   0.0000      14.268426       388.2636 
 363   0.0000      14.941103       406.5681 
 364   0.0000      14.941103       406.5681 
 365   0.0000      14.941458       406.5777 
 366   0.0000      14.941459       406.5778 
 367   0.0000      15.740341       428.3165 
 368   0.0000      16.305679       443.7001 
 369   0.0000      16.305679       443.7001 
 370   0.0000      16.813034       457.5059 
 371   0.0000      16.944381       461.0801 
 372   0.0000      16.944444       461.0818 
 373   0.0000      16.947807       461.1733 
 374   0.0000      16.947871       461.1750 
 375   0.0000      17.118634       465.8217 
 376   0.0000      17.118636       465.8218 
 377   0.0000      17.136870       466.3180 
 378   0.0000      17.136870       466.3180 
 379   0.0000      17.308185       470.9797 
 380   0.0000      17.308185       470.9797 
 381   0.0000      17.436391       474.4683 
 382   0.0000      17.849278       485.7035 
 383   0.0000      17.849281       485.7036 
 384   0.0000      18.317071       498.4328 
 385   0.0000      18.317071       498.4328 
 386   0.0000      18.319168       498.4899 
 387   0.0000      18.319169       498.4899 
 388   0.0000      18.583089       505.6716 
 389   0.0000      18.709760       509.1185 
 390   0.0000      18.709760       509.1185 
 391   0.0000      18.797694       511.5113 
 392   0.0000      18.991125       516.7748 
 393   0.0000      19.056833       518.5628 
 394   0.0000      19.056833       518.5628 
 395   0.0000      20.167303       548.7802 
 396   0.0000      20.167303       548.7802 
 397   0.0000      21.565936       586.8390 
 398   0.0000      23.038133       626.8995 
 399   0.0000      23.038201       626.9013 
 400   0.0000      23.045078       627.0885 
 401   0.0000      23.045150       627.0904 
 402   0.0000      24.187914       658.1866 
 403   0.0000      24.187914       658.1866 
 404   0.0000      24.600268       669.4073 
 405   0.0000      24.803845       674.9469 
 406   0.0000      24.803845       674.9469 
 407   0.0000      26.737522       727.5650 
 408   0.0000      27.132739       738.3194 
 409   0.0000      30.253040       823.2271 
 410   0.0000      30.679501       834.8317 
 411   0.0000      31.856588       866.8618 
 412   0.0000      31.856607       866.8623 
 413   0.0000      32.132656       874.3740 
 414   0.0000      32.132656       874.3740 
 415   0.0000      32.173436       875.4837 
 416   0.0000      32.173436       875.4837 
 417   0.0000      33.429693       909.6682 
 418   0.0000      33.429693       909.6682 
 419   0.0000      34.288119       933.0271 
 420   0.0000      35.314070       960.9447 
 421   0.0000      36.813327      1001.7416 
 422   0.0000      66.565531      1811.3402 
 423   0.0000      66.565636      1811.3430 
 424   0.0000      66.576766      1811.6459 
 425   0.0000      66.576872      1811.6488 
 426   0.0000      67.224959      1829.2841 
 427   0.0000      67.224959      1829.2841 
 428   0.0000      67.682120      1841.7241 
 429   0.0000      67.682120      1841.7241 
 430   0.0000      69.014838      1877.9892 
 431   0.0000      69.088896      1880.0044 
 432   0.0000      77.444911      2107.3832 
 433   0.0000     143.417251      3902.5818 
 434   0.0000     144.174763      3923.1947 

                    ********************************
                    * MULLIKEN POPULATION ANALYSIS *
                    ********************************

--------------------------------------------
MULLIKEN ATOMIC CHARGES AND SPIN POPULATIONS
--------------------------------------------
   0 C :    0.194044   -0.000000
   1 O :   -0.097019    0.000000
   2 O :   -0.097025    0.000000
Sum of atomic charges         :    0.0000000
Sum of atomic spin populations:   -0.0000000

-----------------------------------------------------
MULLIKEN REDUCED ORBITAL CHARGES AND SPIN POPULATIONS
-----------------------------------------------------
CHARGE
  0 C s       :     3.127321  s :     3.127321
      pz      :     0.784171  p :     2.381146
      px      :     0.798488
      py      :     0.798488
      dz2     :     0.069764  d :     0.261687
      dxz     :     0.095962
      dyz     :     0.095962
      dx2y2   :     0.000000
      dxy     :     0.000000
      f0      :     0.007864  f :     0.031555
      f+1     :     0.011846
      f-1     :     0.011846
      f+2     :    -0.000000
      f-2     :    -0.000000
      f+3     :     0.000000
      f-3     :     0.000000
      g0      :     0.000850  g :     0.004049
      g+1     :     0.001599
      g-1     :     0.001599
      g+2     :     0.000000
      g-2     :     0.000000
      g+3     :     0.000000
      g-3     :     0.000000
      g+4     :     0.000000
      g-4     :     0.000000
      h0      :    -0.000042  h :     0.000198
      h+1     :     0.000120
      h-1     :     0.000120
      h+2     :     0.000000
      h-2     :     0.000000
      h+3     :     0.000000
      h-3     :     0.000000
      h+4     :     0.000000
      h-4     :     0.000000
      h+5     :     0.000000
      h-5     :     0.000000
  1 O s       :     3.769394  s :     3.769394
      pz      :     1.229429  p :     4.294877
      px      :     1.532724
      py      :     1.532724
      dz2     :     0.007779  d :     0.030759
      dxz     :     0.011490
      dyz     :     0.011490
      dx2y2   :     0.000000
      dxy     :     0.000000
      f0      :    -0.001044  f :     0.001289
      f+1     :     0.001166
      f-1     :     0.001166
      f+2     :    -0.000000
      f-2     :    -0.000000
      f+3     :     0.000000
      f-3     :     0.000000
      g0      :    -0.000442  g :     0.000465
      g+1     :     0.000453
      g-1     :     0.000453
      g+2     :     0.000000
      g-2     :     0.000000
      g+3     :     0.000000
      g-3     :     0.000000
      g+4     :     0.000000
      g-4     :     0.000000
      h0      :    -0.000082  h :     0.000236
      h+1     :     0.000159
      h-1     :     0.000159
      h+2     :    -0.000000
      h-2     :    -0.000000
      h+3     :    -0.000000
      h-3     :    -0.000000
      h+4     :     0.000000
      h-4     :     0.000000
      h+5     :     0.000000
      h-5     :     0.000000
  2 O s       :     3.769398  s :     3.769398
      pz      :     1.229431  p :     4.294880
      px      :     1.532724
      py      :     1.532724
      dz2     :     0.007779  d :     0.030759
      dxz     :     0.011490
      dyz     :     0.011490
      dx2y2   :     0.000000
      dxy     :     0.000000
      f0      :    -0.001044  f :     0.001289
      f+1     :     0.001166
      f-1     :     0.001166
      f+2     :    -0.000000
      f-2     :    -0.000000
      f+3     :     0.000000
      f-3     :     0.000000
      g0      :    -0.000442  g :     0.000464
      g+1     :     0.000453
      g-1     :     0.000453
      g+2     :     0.000000
      g-2     :     0.000000
      g+3     :     0.000000
      g-3     :     0.000000
      g+4     :     0.000000
      g-4     :    -0.000000
      h0      :    -0.000082  h :     0.000236
      h+1     :     0.000159
      h-1     :     0.000159
      h+2     :    -0.000000
      h-2     :    -0.000000
      h+3     :    -0.000000
      h-3     :    -0.000000
      h+4     :     0.000000
      h-4     :     0.000000
      h+5     :     0.000000
      h-5     :     0.000000

SPIN
  0 C s       :    -0.000000  s :    -0.000000
      pz      :     0.000000  p :     0.000000
      px      :    -0.000000
      py      :    -0.000000
      dz2     :    -0.000000  d :    -0.000000
      dxz     :    -0.000000
      dyz     :     0.000000
      dx2y2   :    -0.000000
      dxy     :    -0.000000
      f0      :     0.000000  f :     0.000000
      f+1     :    -0.000000
      f-1     :    -0.000000
      f+2     :     0.000000
      f-2     :     0.000000
      f+3     :     0.000000
      f-3     :    -0.000000
      g0      :    -0.000000  g :    -0.000000
      g+1     :     0.000000
      g-1     :    -0.000000
      g+2     :     0.000000
      g-2     :     0.000000
      g+3     :    -0.000000
      g-3     :    -0.000000
      g+4     :     0.000000
      g-4     :    -0.000000
      h0      :     0.000000  h :     0.000000
      h+1     :    -0.000000
      h-1     :    -0.000000
      h+2     :    -0.000000
      h-2     :    -0.000000
      h+3     :    -0.000000
      h-3     :     0.000000
      h+4     :    -0.000000
      h-4     :    -0.000000
      h+5     :    -0.000000
      h-5     :    -0.000000
  1 O s       :     0.000000  s :     0.000000
      pz      :     0.000000  p :     0.000000
      px      :     0.000000
      py      :     0.000000
      dz2     :     0.000000  d :     0.000000
      dxz     :     0.000000
      dyz     :     0.000000
      dx2y2   :     0.000000
      dxy     :    -0.000000
      f0      :     0.000000  f :     0.000000
      f+1     :     0.000000
      f-1     :    -0.000000
      f+2     :     0.000000
      f-2     :     0.000000
      f+3     :     0.000000
      f-3     :    -0.000000
      g0      :     0.000000  g :     0.000000
      g+1     :     0.000000
      g-1     :    -0.000000
      g+2     :     0.000000
      g-2     :     0.000000
      g+3     :    -0.000000
      g-3     :    -0.000000
      g+4     :    -0.000000
      g-4     :     0.000000
      h0      :     0.000000  h :     0.000000
      h+1     :     0.000000
      h-1     :    -0.000000
      h+2     :     0.000000
      h-2     :     0.000000
      h+3     :     0.000000
      h-3     :    -0.000000
      h+4     :    -0.000000
      h-4     :    -0.000000
      h+5     :    -0.000000
      h-5     :     0.000000
  2 O s       :     0.000000  s :     0.000000
      pz      :     0.000000  p :     0.000000
      px      :     0.000000
      py      :    -0.000000
      dz2     :     0.000000  d :     0.000000
      dxz     :     0.000000
      dyz     :    -0.000000
      dx2y2   :    -0.000000
      dxy     :    -0.000000
      f0      :    -0.000000  f :    -0.000000
      f+1     :     0.000000
      f-1     :     0.000000
      f+2     :    -0.000000
      f-2     :    -0.000000
      f+3     :     0.000000
      f-3     :    -0.000000
      g0      :    -0.000000  g :    -0.000000
      g+1     :     0.000000
      g-1     :     0.000000
      g+2     :    -0.000000
      g-2     :     0.000000
      g+3     :    -0.000000
      g-3     :     0.000000
      g+4     :    -0.000000
      g-4     :     0.000000
      h0      :    -0.000000  h :    -0.000000
      h+1     :     0.000000
      h-1     :     0.000000
      h+2     :    -0.000000
      h-2     :     0.000000
      h+3     :    -0.000000
      h-3     :     0.000000
      h+4     :     0.000000
      h-4     :     0.000000
      h+5     :    -0.000000
      h-5     :     0.000000


                     *******************************
                     * LOEWDIN POPULATION ANALYSIS *
                     *******************************

-------------------------------------------
LOEWDIN ATOMIC CHARGES AND SPIN POPULATIONS
-------------------------------------------
   0 C :   -0.582737   -0.000000
   1 O :    0.291369    0.000000
   2 O :    0.291369    0.000000

----------------------------------------------------
LOEWDIN REDUCED ORBITAL CHARGES AND SPIN POPULATIONS
----------------------------------------------------
CHARGE
  0 C s       :     2.593749  s :     2.593749
      pz      :     1.127058  p :     2.397135
      px      :     0.635039
      py      :     0.635039
      dz2     :     0.399423  d :     1.163159
      dxz     :     0.381868
      dyz     :     0.381868
      dx2y2   :     0.000000
      dxy     :     0.000000
      f0      :     0.131315  f :     0.288193
      f+1     :     0.078439
      f-1     :     0.078439
      f+2     :     0.000000
      f-2     :     0.000000
      f+3     :     0.000000
      f-3     :     0.000000
      g0      :     0.022998  g :     0.126858
      g+1     :     0.051930
      g-1     :     0.051930
      g+2     :     0.000000
      g-2     :     0.000000
      g+3     :     0.000000
      g-3     :     0.000000
      g+4     :     0.000000
      g-4     :     0.000000
      h0      :     0.005568  h :     0.013643
      h+1     :     0.004038
      h-1     :     0.004038
      h+2     :     0.000000
      h-2     :     0.000000
      h+3     :     0.000000
      h-3     :     0.000000
      h+4     :     0.000000
      h-4     :     0.000000
      h+5     :     0.000000
      h-5     :     0.000000
  1 O s       :     3.147619  s :     3.147619
      pz      :     1.461575  p :     3.940545
      px      :     1.239485
      py      :     1.239485
      dz2     :     0.113856  d :     0.250848
      dxz     :     0.068496
      dyz     :     0.068496
      dx2y2   :     0.000000
      dxy     :     0.000000
      f0      :     0.063477  f :     0.166901
      f+1     :     0.051712
      f-1     :     0.051712
      f+2     :     0.000000
      f-2     :     0.000000
      f+3     :     0.000000
      f-3     :     0.000000
      g0      :     0.044910  g :     0.118878
      g+1     :     0.036984
      g-1     :     0.036984
      g+2     :     0.000000
      g-2     :     0.000000
      g+3     :     0.000000
      g-3     :     0.000000
      g+4     :     0.000000
      g-4     :     0.000000
      h0      :     0.028507  h :     0.083839
      h+1     :     0.027666
      h-1     :     0.027666
      h+2     :     0.000000
      h-2     :     0.000000
      h+3     :     0.000000
      h-3     :     0.000000
      h+4     :     0.000000
      h-4     :     0.000000
      h+5     :     0.000000
      h-5     :     0.000000
  2 O s       :     3.147619  s :     3.147619
      pz      :     1.461575  p :     3.940545
      px      :     1.239485
      py      :     1.239485
      dz2     :     0.113856  d :     0.250848
      dxz     :     0.068496
      dyz     :     0.068496
      dx2y2   :     0.000000
      dxy     :     0.000000
      f0      :     0.063477  f :     0.166901
      f+1     :     0.051712
      f-1     :     0.051712
      f+2     :     0.000000
      f-2     :     0.000000
      f+3     :     0.000000
      f-3     :     0.000000
      g0      :     0.044910  g :     0.118878
      g+1     :     0.036984
      g-1     :     0.036984
      g+2     :     0.000000
      g-2     :     0.000000
      g+3     :     0.000000
      g-3     :     0.000000
      g+4     :     0.000000
      g-4     :     0.000000
      h0      :     0.028507  h :     0.083839
      h+1     :     0.027666
      h-1     :     0.027666
      h+2     :     0.000000
      h-2     :     0.000000
      h+3     :     0.000000
      h-3     :     0.000000
      h+4     :     0.000000
      h-4     :     0.000000
      h+5     :     0.000000
      h-5     :     0.000000

SPIN
  0 C s       :    -0.000000  s :    -0.000000
      pz      :     0.000000  p :     0.000000
      px      :     0.000000
      py      :    -0.000000
      dz2     :    -0.000000  d :    -0.000000
      dxz     :     0.000000
      dyz     :     0.000000
      dx2y2   :    -0.000000
      dxy     :    -0.000000
      f0      :    -0.000000  f :    -0.000000
      f+1     :    -0.000000
      f-1     :    -0.000000
      f+2     :     0.000000
      f-2     :     0.000000
      f+3     :     0.000000
      f-3     :    -0.000000
      g0      :    -0.000000  g :    -0.000000
      g+1     :    -0.000000
      g-1     :    -0.000000
      g+2     :     0.000000
      g-2     :     0.000000
      g+3     :     0.000000
      g-3     :    -0.000000
      g+4     :     0.000000
      g-4     :    -0.000000
      h0      :    -0.000000  h :    -0.000000
      h+1     :     0.000000
      h-1     :    -0.000000
      h+2     :    -0.000000
      h-2     :    -0.000000
      h+3     :    -0.000000
      h-3     :     0.000000
      h+4     :    -0.000000
      h-4     :    -0.000000
      h+5     :    -0.000000
      h-5     :    -0.000000
  1 O s       :    -0.000000  s :    -0.000000
      pz      :     0.000000  p :    -0.000000
      px      :    -0.000000
      py      :    -0.000000
      dz2     :     0.000000  d :     0.000000
      dxz     :     0.000000
      dyz     :     0.000000
      dx2y2   :     0.000000
      dxy     :    -0.000000
      f0      :     0.000000  f :     0.000000
      f+1     :     0.000000
      f-1     :     0.000000
      f+2     :     0.000000
      f-2     :     0.000000
      f+3     :     0.000000
      f-3     :    -0.000000
      g0      :     0.000000  g :     0.000000
      g+1     :    -0.000000
      g-1     :    -0.000000
      g+2     :    -0.000000
      g-2     :     0.000000
      g+3     :    -0.000000
      g-3     :    -0.000000
      g+4     :    -0.000000
      g-4     :     0.000000
      h0      :    -0.000000  h :    -0.000000
      h+1     :     0.000000
      h-1     :    -0.000000
      h+2     :    -0.000000
      h-2     :    -0.000000
      h+3     :     0.000000
      h-3     :    -0.000000
      h+4     :    -0.000000
      h-4     :     0.000000
      h+5     :    -0.000000
      h-5     :     0.000000
  2 O s       :     0.000000  s :     0.000000
      pz      :     0.000000  p :     0.000000
      px      :    -0.000000
      py      :    -0.000000
      dz2     :    -0.000000  d :    -0.000000
      dxz     :    -0.000000
      dyz     :     0.000000
      dx2y2   :     0.000000
      dxy     :     0.000000
      f0      :     0.000000  f :     0.000000
      f+1     :     0.000000
      f-1     :     0.000000
      f+2     :    -0.000000
      f-2     :     0.000000
      f+3     :     0.000000
      f-3     :    -0.000000
      g0      :     0.000000  g :     0.000000
      g+1     :     0.000000
      g-1     :     0.000000
      g+2     :    -0.000000
      g-2     :    -0.000000
      g+3     :     0.000000
      g-3     :     0.000000
      g+4     :    -0.000000
      g-4     :     0.000000
      h0      :    -0.000000  h :    -0.000000
      h+1     :     0.000000
      h-1     :    -0.000000
      h+2     :    -0.000000
      h-2     :     0.000000
      h+3     :    -0.000000
      h-3     :     0.000000
      h+4     :     0.000000
      h-4     :     0.000000
      h+5     :    -0.000000
      h-5     :     0.000000


                      *****************************
                      * MAYER POPULATION ANALYSIS *
                      *****************************

  NA   - Mulliken gross atomic population
  ZA   - Total nuclear charge
  QA   - Mulliken gross atomic charge
  VA   - Mayer's total valence
  BVA  - Mayer's bonded valence
  FA   - Mayer's free valence

  ATOM       NA         ZA         QA         VA         BVA        FA
  0 C      5.8060     6.0000     0.1940     4.2517     4.2517     0.0000
  1 O      8.0970     8.0000    -0.0970     2.3164     2.3164     0.0000
  2 O      8.0970     8.0000    -0.0970     2.3163     2.3163     0.0000

  Mayer bond orders larger than 0.1
B(  0-C ,  1-O ) :   2.1259 B(  0-C ,  2-O ) :   2.1259 B(  1-O ,  2-O ) :   0.1905 


-------
TIMINGS
-------

Total SCF time: 0 days 0 hours 19 min 49 sec 

Total time                  ....    1189.808 sec
Sum of individual times     ....    1188.890 sec  ( 99.9%)

Fock matrix formation       ....    1184.954 sec  ( 99.6%)
  XC integration            ....      15.894 sec  (  1.3% of F)
    Basis function eval.    ....       0.977 sec  (  6.1% of XC)
    Density eval.           ....       3.462 sec  ( 21.8% of XC)
    XC-Functional eval.     ....       0.120 sec  (  0.8% of XC)
    XC-Potential eval.      ....      10.895 sec  ( 68.5% of XC)
Diagonalization             ....       1.647 sec  (  0.1%)
Density matrix formation    ....       0.029 sec  (  0.0%)
Population analysis         ....       0.171 sec  (  0.0%)
Initial guess               ....       0.877 sec  (  0.1%)
Orbital Transformation      ....       0.000 sec  (  0.0%)
Orbital Orthonormalization  ....       0.000 sec  (  0.0%)
DIIS solution               ....       0.772 sec  (  0.1%)
Grid generation             ....       0.441 sec  (  0.0%)

-------------------------   --------------------
FINAL SINGLE POINT ENERGY      -188.492345603008
-------------------------   --------------------


                            ***************************************
                            *     ORCA property calculations      *
                            ***************************************

                                    ---------------------
                                    Active property flags
                                    ---------------------
   (+) Dipole Moment
   (+) Polarizability


------------------------------------------------------------------------------
                       ORCA ELECTRIC PROPERTIES CALCULATION
------------------------------------------------------------------------------

Dipole Moment Calculation                       ... on
Quadrupole Moment Calculation                   ... off
Polarizability Calculation                      ... Analytic (CP-SCF)
GBWName                                         ... co2_pbe.gbw
Electron density file                           ... co2_pbe.scfp.tmp
The origin for moment calculation is the CENTER OF MASS  = ( 0.000000,  0.000000  0.000000)

-------------
DIPOLE MOMENT
-------------
                                X             Y             Z
Electronic contribution:      0.00000      -0.00000      -0.00000
Nuclear contribution   :      0.00000       0.00000       0.00000
                        -----------------------------------------
Total Dipole Moment    :      0.00000      -0.00000      -0.00000
                        -----------------------------------------
Magnitude (a.u.)       :      0.00000
Magnitude (Debye)      :      0.00000



--------------------
Rotational spectrum 
--------------------
 
Rotational constants in cm-1:     0.000000     0.390110     0.390110 
Rotational constants in MHz :     0.000000 11695.203081 11695.203081 

 Dipole components along the rotational axes: 
x,y,z [a.u.] :    -0.000000    -0.000000     0.000000 
x,y,z [Debye]:    -0.000000    -0.000000     0.000000 

 
Transforming and storing MO dipole integrals   ... done

                ... starting polarizability calculation

Opening the Dipole integral file               ... (co2_pbe.dmo.tmp) done
Reading Dipole-MO integrals                    ... done
Solving CP-SCF equations                       ... 

           ************************************************************
           *        Program running with 4 parallel MPI-processes     *
           *              working on a common directory               *
           ************************************************************

------------------------------------------------------------------------------
                           ORCA CP-SCF CALCULATION
------------------------------------------------------------------------------

Input orbitals are from        ... co2_pbe.gbw
Input Perturbation             ... co2_pbe.cpv.tmp
Wavefunction output            ... co2_pbe.cpu.tmp
Perturbation mode              ... Real perturbation (singlet)
Solver                         ... POPLE
Max. number of iterations      ... 200
Convergence tolerance          ... 1.000e-06
Integral handling              ... Direct
Number of perturbations        ... 3
Number of operators            ... 2
Orbital ranges used for CP-SCF:
 Operator 0:  Orbitals   0... 10  to  11...434
 Operator 1:  Orbitals   0... 10  to  11...434
DFT calculation                         ... on
Exchange functional (SCF)               ... PBE
Exchange functional (CP-SCF)            ... PBE
   PBE kappa parameter  XKappa (SCF)    ...  0.804000
   PBE kappa parameter  XKappa (CP-SCF) ...  0.804000
   PBE mue parameter   XMuePBE (SCF)    ...  0.219520
   PBE mue parameter   XMuePBE (CP-SCF) ...  0.219520
Correlation functional (SCF)            ... PBE
Correlation functional (CP-SCF)         ... PBE
   PBE beta parameter CBetaPBE (SCF)    ...  0.066725
   PBE beta parameter CBetaPBE (CP-SCF) ...  0.066725
 LDA part of GGA corr.  LDAOpt (SCF)    ... PW91-LDA
 LDA part of GGA corr.  LDAOpt (CP-SCF) ... PW91-LDA
Variables per vector in CP-SCF ... 9328
Number of vectors sought       ... 3
Recalculating density on grid  ... done
Calculating the xc-kernel      ... done
     CP-SCF ITERATION   0: 
     CP-SCF ITERATION   1:      0.089544830293
     CP-SCF ITERATION   2:      0.001568213053
     CP-SCF ITERATION   3:      0.000011126434
     CP-SCF ITERATION   4:      0.000000029647
done
Reading CP-SCF coefficients                    ... done
Doing the polarizability tensor   ... done
Cleaning up                                    ... done

-------------------------
THE POLARIZABILITY TENSOR
-------------------------

The raw cartesian tensor (atomic units):
   13.36200      0.00000     -0.00000  
    0.00000     13.36200     -0.00000  
   -0.00000     -0.00000     26.74200  
diagonalized tensor: 
   13.36200     13.36200     26.74200  

    0.79169     -0.61092     -0.00000  
   -0.61092     -0.79169     -0.00000  
   -0.00000     -0.00000      1.00000  

Isotropic polarizability :  17.82200


Timings for individual modules:

Sum of individual times         ...     1974.820 sec (=  32.914 min)
GTO integral calculation        ...        2.476 sec (=   0.041 min)   0.1 %
SCF iterations                  ...     1190.209 sec (=  19.837 min)  60.3 %
Solution of CP-SCF eqns.        ...      782.134 sec (=  13.036 min)  39.6 %
                             ****ORCA TERMINATED NORMALLY****
TOTAL RUN TIME: 0 days 0 hours 32 minutes 55 seconds 699 msec
