
                                 *****************
                                 * O   R   C   A *
                                 *****************

           --- An Ab Initio, DFT and Semiempirical electronic structure package ---

                  #######################################################
                  #                        -***-                        #
                  #          Department of theory and spectroscopy      #
                  #               Directorship: Frank Neese             #
                  #        Max Planck Institute fuer Kohlenforschung    #
                  #                Kaiser Wilhelm Platz 1               #
                  #                 D-45470 Muelheim/Ruhr               #
                  #                      Germany                        #
                  #                                                     #
                  #                  All rights reserved                #
                  #                        -***-                        #
                  #######################################################


                         Program Version 4.1.2  - RELEASE  -


 With contributions from (in alphabetic order):
   Daniel Aravena         : Magnetic Properties
   Michael Atanasov       : Ab Initio Ligand Field Theory
   Alexander A. Auer      : GIAO ZORA
   Ute Becker             : Parallelization
   Giovanni Bistoni       : ED, Open-shell LED
   Martin Brehm           : Molecular dynamics
   Dmytro Bykov           : SCF Hessian
   Vijay G. Chilkuri      : MRCI spin determinant printing
   Dipayan Datta          : RHF DLPNO-CCSD density
   Achintya Kumar Dutta   : EOM-CC, STEOM-CC
   Dmitry Ganyushin       : Spin-Orbit,Spin-Spin,Magnetic field MRCI
   Miquel Garcia          : C-PCM Hessian
   Yang Guo               : DLPNO-NEVPT2, CIM, IAO-localization
   Andreas Hansen         : Spin unrestricted coupled pair/coupled cluster methods
   Benjamin Helmich-Paris : CASSCF linear response (MC-RPA)
   Lee Huntington         : MR-EOM, pCC
   Robert Izsak           : Overlap fitted RIJCOSX, COSX-SCS-MP3, EOM
   Christian Kollmar      : KDIIS, OOCD, Brueckner-CCSD(T), CCSD density
   Simone Kossmann        : Meta GGA functionals, TD-DFT gradient, OOMP2, MP2 Hessian
   Martin Krupicka        : AUTO-CI
   Lucas Lang             : DCDCAS
   Dagmar Lenk            : GEPOL surface, SMD
   Dimitrios Liakos       : Extrapolation schemes; parallel MDCI
   Dimitrios Manganas     : ROCIS; embedding schemes
   Dimitrios Pantazis     : SARC Basis sets
   Taras Petrenko         : DFT Hessian,TD-DFT gradient, ASA, ECA, R-Raman, ABS, FL, XAS/XES, NRVS
   Peter Pinski           : DLPNO-MP2, DLPNO-MP2 Gradient
   Christoph Reimann      : Effective Core Potentials
   Marius Retegan         : Local ZFS, SOC
   Christoph Riplinger    : Optimizer, TS searches, QM/MM, DLPNO-CCSD(T), (RO)-DLPNO pert. Triples
   Tobias Risthaus        : Range-separated hybrids, TD-DFT gradient, RPA, STAB
   Michael Roemelt        : Restricted open shell CIS
   Masaaki Saitow         : Open-shell DLPNO
   Barbara Sandhoefer     : DKH picture change effects
   Avijit Sen             : IP-ROCIS
   Kantharuban Sivalingam : CASSCF convergence, NEVPT2, FIC-MRCI
   Bernardo de Souza      : ESD, SOC TD-DFT
   Georgi Stoychev        : AutoAux, RI-MP2 NMR
   Willem Van den Heuvel  : Paramagnetic NMR
   Boris Wezisla          : Elementary symmetry handling
   Frank Wennmohs         : Technical directorship


 We gratefully acknowledge several colleagues who have allowed us to
 interface, adapt or use parts of their codes:
   Stefan Grimme, W. Hujo, H. Kruse,             : VdW corrections, initial TS optimization,
                  C. Bannwarth                     DFT functionals, gCP, sTDA/sTD-DF
   Ed Valeev                                     : LibInt (2-el integral package), F12 methods
   Garnet Chan, S. Sharma, J. Yang, R. Olivares  : DMRG
   Ulf Ekstrom                                   : XCFun DFT Library
   Mihaly Kallay                                 : mrcc  (arbitrary order and MRCC methods)
   Andreas Klamt, Michael Diedenhofen            : otool_cosmo (COSMO solvation model)
   Jiri Pittner, Ondrej Demel                    : Mk-CCSD
   Frank Weinhold                                : gennbo (NPA and NBO analysis)
   Christopher J. Cramer and Donald G. Truhlar   : smd solvation model
   Lars Goerigk                                  : TD-DFT with DH, B97 family of functionals
   V. Asgeirsson, H. Jonsson                     : NEB implementation
   FAccTs GmbH                                   : IRC, NEB, NEB-TS, Multilevel


 Your calculation uses the libint2 library for the computation of 2-el integrals
 For citations please refer to: http://libint.valeyev.net

 This ORCA versions uses:
   CBLAS   interface :  Fast vector & matrix operations
   LAPACKE interface :  Fast linear algebra routines
   SCALAPACK package :  Parallel linear algebra routines


----- Orbital basis set information -----
Your calculation utilizes the basis: aug-pc-4
   H, C-F              : F. Jensen, J. Chem. Phys. 115, 9113 (2001).
                         F. Jensen, J. Chem. Phys. 116, 7372 (2002).
                         F. Jensen, J. Chem. Phys. 117, 9234 (2002).
   Si-Cl               : F. Jensen, T. Helgaker, J. Chem. Phys. 121, 3463 (2004).
   He-B, Ne-Mg, Al, Ar : F. Jensen, J. Phys. Chem. A 111, 11198 (2007).
   K, Ca, Ga-Kr        : F. Jensen, J. Chem. Phys. 136, 094110 (2012).
   Sc-Zn               : F. Jensen, J. Chem. Phys. 138, 014107 (2013).

================================================================================
                                        WARNINGS
                       Please study these warnings very carefully!
================================================================================


INFO   : the flag for use of LIBINT has been found!

================================================================================
                                       INPUT FILE
================================================================================
NAME = co_pbe.inp
|  1> !uks pbe nori aug-pc-4 grid5 nofinalgrid verytightscf
|  2> 
|  3> %maxcore 1500
|  4> 
|  5> %pal nprocs 4 end
|  6> 
|  7> %scf
|  8> 	maxiter 200
|  9> end
| 10> %elprop
| 11> 	dipole true
| 12> 	 polar 1
| 13> 	 maxiter 200
| 14> end
| 15> 
| 16> * xyz 0 1
| 17> C 0.0000 0.0000 0.0000
| 18> O 0.0000 0.0000 1.1282
| 19> *
| 20> 
| 21>                          ****END OF INPUT****
================================================================================

                       ****************************
                       * Single Point Calculation *
                       ****************************

---------------------------------
CARTESIAN COORDINATES (ANGSTROEM)
---------------------------------
  C      0.000000    0.000000    0.000000
  O      0.000000    0.000000    1.128200

----------------------------
CARTESIAN COORDINATES (A.U.)
----------------------------
  NO LB      ZA    FRAG     MASS         X           Y           Z
   0 C     6.0000    0    12.011    0.000000    0.000000    0.000000
   1 O     8.0000    0    15.999    0.000000    0.000000    2.131989

--------------------------------
INTERNAL COORDINATES (ANGSTROEM)
--------------------------------
 C      0   0   0     0.000000000000     0.00000000     0.00000000
 O      1   0   0     1.128200000000     0.00000000     0.00000000

---------------------------
INTERNAL COORDINATES (A.U.)
---------------------------
 C      0   0   0     0.000000000000     0.00000000     0.00000000
 O      1   0   0     2.131989024290     0.00000000     0.00000000

---------------------
BASIS SET INFORMATION
---------------------
There are 2 groups of distinct atoms

 Group   1 Type C   : 28s12p7d4f3g2h contracted to 9s8p7d4f3g2h pattern {11101111111/51111111/1111111/1111/111/11}
 Group   2 Type O   : 27s12p7d4f3g2h contracted to 9s8p7d4f3g2h pattern {1191111111/51111111/1111111/1111/111/11}

Atom   0C    basis set group =>   1
Atom   1O    basis set group =>   2


           ************************************************************
           *        Program running with 4 parallel MPI-processes     *
           *              working on a common directory               *
           ************************************************************
------------------------------------------------------------------------------
                           ORCA GTO INTEGRAL CALCULATION
------------------------------------------------------------------------------

                         BASIS SET STATISTICS AND STARTUP INFO

 # of primitive gaussian shells          ...  111
 # of primitive gaussian functions       ...  351
 # of contracted shells                  ...   66
 # of contracted basis functions         ...  290
 Highest angular momentum                ...    5
 Maximum contraction depth               ...   11
 Integral package used                   ... LIBINT
 Integral threshhold            Thresh   ...  1.000e-12
 Primitive cut-off              TCut     ...  1.000e-14


------------------------------ INTEGRAL EVALUATION ----------------------------


 * One electron integrals 
 Pre-screening matrix                    ... done
 Shell pair data                         ... done (   0.001 sec)



           ************************************************************
           *        Program running with 4 parallel MPI-processes     *
           *              working on a common directory               *
           ************************************************************
-------------------------------------------------------------------------------
                                 ORCA SCF
-------------------------------------------------------------------------------

------------
SCF SETTINGS
------------
Hamiltonian:
 Density Functional     Method          .... DFT(GTOs)
 Exchange Functional    Exchange        .... PBE
   PBE kappa parameter   XKappa         ....  0.804000
   PBE mue parameter    XMuePBE         ....  0.219520
 Correlation Functional Correlation     .... PBE
   PBE beta parameter  CBetaPBE         ....  0.066725
 LDA part of GGA corr.  LDAOpt          .... PW91-LDA
 Gradients option       PostSCFGGA      .... off
   Density functional embedding theory  .... OFF
   NL short-range parameter             ....  6.400000


General Settings:
 Integral files         IntName         .... co_pbe
 Hartree-Fock type      HFTyp           .... UHF
 Total Charge           Charge          ....    0
 Multiplicity           Mult            ....    1
 Number of Electrons    NEL             ....   14
 Basis Dimension        Dim             ....  290
 Nuclear Repulsion      ENuc            ....     22.5141871994 Eh

Convergence Acceleration:
 DIIS                   CNVDIIS         .... on
   Start iteration      DIISMaxIt       ....    12
   Startup error        DIISStart       ....  0.200000
   # of expansion vecs  DIISMaxEq       ....     5
   Bias factor          DIISBfac        ....   1.050
   Max. coefficient     DIISMaxC        ....  10.000
 Newton-Raphson         CNVNR           .... off
 SOSCF                  CNVSOSCF        .... off
 Level Shifting         CNVShift        .... on
   Level shift para.    LevelShift      ....    0.2500
   Turn off err/grad.   ShiftErr        ....    0.0010
 Zerner damping         CNVZerner       .... off
 Static damping         CNVDamp         .... on
   Fraction old density DampFac         ....    0.7000
   Max. Damping (<1)    DampMax         ....    0.9800
   Min. Damping (>=0)   DampMin         ....    0.0000
   Turn off err/grad.   DampErr         ....    0.1000
 Fernandez-Rico         CNVRico         .... off

SCF Procedure:
 Maximum # iterations   MaxIter         ....   200
 SCF integral mode      SCFMode         .... Direct
   Integral package                     .... LIBINT
 Reset frequency        DirectResetFreq ....    20
 Integral Threshold     Thresh          ....  1.000e-12 Eh
 Primitive CutOff       TCut            ....  1.000e-14 Eh

Convergence Tolerance:
 Convergence Check Mode ConvCheckMode   .... Total+1el-Energy
 Convergence forced     ConvForced      .... 0
 Energy Change          TolE            ....  1.000e-09 Eh
 1-El. energy change                    ....  1.000e-06 Eh
 DIIS Error             TolErr          ....  1.000e-08


Diagonalization of the overlap matrix:
Smallest eigenvalue                        ... 1.033e-06
Time for diagonalization                   ...    0.057 sec
Threshold for overlap eigenvalues          ... 1.000e-08
Number of eigenvalues below threshold      ... 0
Time for construction of square roots      ...    0.036 sec
Total time needed                          ...    0.093 sec

-------------------
DFT GRID GENERATION
-------------------

General Integration Accuracy     IntAcc      ...  5.010
Radial Grid Type                 RadialGrid  ... Gauss-Chebyshev
Angular Grid (max. acc.)         AngularGrid ... Lebedev-434
Angular grid pruning method      GridPruning ... 3 (G Style)
Weight generation scheme         WeightScheme... Becke
Basis function cutoff            BFCut       ...    1.0000e-12
Integration weight cutoff        WCut        ...    1.0000e-14
Grids for H and He will be reduced by one unit

# of grid points (after initial pruning)     ...  21540 (   0.0 sec)
# of grid points (after weights+screening)   ...  21441 (   0.0 sec)
nearest neighbour list constructed           ...    0.0 sec
Grid point re-assignment to atoms done       ...    0.0 sec
Grid point division into batches done        ...    0.2 sec
Reduced shell lists constructed in    0.2 sec

Total number of grid points                  ...    21441
Total number of batches                      ...      336
Average number of points per batch           ...       63
Average number of grid points per atom       ...    10720
Average number of shells per batch           ...    39.48 (59.82%)
Average number of basis functions per batch  ...   181.67 (62.65%)
Average number of large shells per batch     ...    33.33 (84.42%)
Average number of large basis fcns per batch ...   153.19 (84.32%)
Maximum spatial batch extension              ...  19.91, 19.91, 17.05 au
Average spatial batch extension              ...   1.56,  1.55,  1.37 au

Time for grid setup =    0.334 sec

------------------------------
INITIAL GUESS: MODEL POTENTIAL
------------------------------
Loading Hartree-Fock densities                     ... done
Calculating cut-offs                               ... done
Setting up the integral package                    ... done
Initializing the effective Hamiltonian             ... done
Starting the Coulomb interaction                   ... done (   0.0 sec)
Reading the grid                                   ... done
Mapping shells                                     ... done
Starting the XC term evaluation                    ... done (   0.3 sec)
  promolecular density results
     # of electrons  =     13.999998174
     EX              =    -13.174309470
     EC              =     -0.445384489
     EX+EC           =    -13.619693959
Transforming the Hamiltonian                       ... done (   0.0 sec)
Diagonalizing the Hamiltonian                      ... done (   0.0 sec)
Back transforming the eigenvectors                 ... done (   0.0 sec)
Now organizing SCF variables                       ... done
                      ------------------
                      INITIAL GUESS DONE (   0.8 sec)
                      ------------------
--------------
SCF ITERATIONS
--------------
ITER       Energy         Delta-E        Max-DP      RMS-DP      [F,P]     Damp
               ***  Starting incremental Fock matrix formation  ***
  0   -113.2059851649   0.000000000000 0.01135067  0.00013997  0.1874281 0.7000
  1   -113.2254332507  -0.019448085849 0.00679594  0.00007445  0.0426342 0.7000
                               ***Turning on DIIS***
  2   -113.2288092306  -0.003375979878 0.01839815  0.00014331  0.0301631 0.0000
  3   -113.2420186359  -0.013209405290 0.01137342  0.00007817  0.0198077 0.0000
  4   -113.2425181609  -0.000499524938 0.00126324  0.00001424  0.0073618 0.0000
  5   -113.2425809665  -0.000062805629 0.00055329  0.00000389  0.0014812 0.0000
  6   -113.2425832252  -0.000002258741 0.00080417  0.00000546  0.0002098 0.0000
  7   -113.2425833348  -0.000000109627 0.00008770  0.00000072  0.0000901 0.0000
  8   -113.2425833417  -0.000000006892 0.00000243  0.00000004  0.0000303 0.0000
  9   -113.2425833426  -0.000000000827 0.00000300  0.00000002  0.0000027 0.0000
 10   -113.2425833426  -0.000000000007 0.00000257  0.00000002  0.0000004 0.0000
 11   -113.2425833426  -0.000000000001 0.00000694  0.00000006  0.0000001 0.0000
                 **** Energy Check signals convergence ****

               *****************************************************
               *                     SUCCESS                       *
               *           SCF CONVERGED AFTER  12 CYCLES          *
               *****************************************************


----------------
TOTAL SCF ENERGY
----------------

Total Energy       :         -113.24258334 Eh           -3081.48735 eV

Components:
Nuclear Repulsion  :           22.51418720 Eh             612.64218 eV
Electronic Energy  :         -135.75677054 Eh           -3694.12953 eV
One Electron Energy:         -198.35376389 Eh           -5397.48032 eV
Two Electron Energy:           62.59699335 Eh            1703.35079 eV

Virial components:
Potential Energy   :         -226.14317636 Eh           -6153.66868 eV
Kinetic Energy     :          112.90059302 Eh            3072.18132 eV
Virial Ratio       :            2.00302913


DFT components:
N(Alpha)           :        6.999999921316 electrons
N(Beta)            :        6.999999921316 electrons
N(Total)           :       13.999999842631 electrons
E(X)               :      -13.313783245148 Eh       
E(C)               :       -0.448239314882 Eh       
E(XC)              :      -13.762022560030 Eh       
DFET-embed. en.    :        0.000000000000 Eh       

---------------
SCF CONVERGENCE
---------------

  Last Energy change         ...    5.6843e-14  Tolerance :   1.0000e-09
  Last MAX-Density change    ...    1.2281e-05  Tolerance :   1.0000e-08
  Last RMS-Density change    ...    1.1367e-07  Tolerance :   1.0000e-09
  Last DIIS Error            ...    1.6573e-08  Tolerance :   1.0000e-08

             **** THE GBW FILE WAS UPDATED (co_pbe.gbw) ****
             **** DENSITY FILE WAS UPDATED (co_pbe.scfp.tmp) ****
             **** ENERGY FILE WAS UPDATED (co_pbe.en.tmp) ****
----------------------
UHF SPIN CONTAMINATION
----------------------

Warning: in a DFT calculation there is little theoretical justification to 
         calculate <S**2> as in Hartree-Fock theory. We will do it anyways
         but you should keep in mind that the values have only limited relevance

Expectation value of <S**2>     :     0.000000
Ideal value S*(S+1) for S=0.0   :     0.000000
Deviation                       :     0.000000

----------------
ORBITAL ENERGIES
----------------
                 SPIN UP ORBITALS
  NO   OCC          E(Eh)            E(eV) 
   0   1.0000     -18.857621      -513.1420 
   1   1.0000      -9.999759      -272.1073 
   2   1.0000      -1.076786       -29.3008 
   3   1.0000      -0.519227       -14.1289 
   4   1.0000      -0.435896       -11.8613 
   5   1.0000      -0.435896       -11.8613 
   6   1.0000      -0.332235        -9.0406 
   7   0.0000      -0.073862        -2.0099 
   8   0.0000      -0.073862        -2.0099 
   9   0.0000       0.001703         0.0463 
  10   0.0000       0.019082         0.5192 
  11   0.0000       0.021088         0.5738 
  12   0.0000       0.021088         0.5738 
  13   0.0000       0.054550         1.4844 
  14   0.0000       0.057330         1.5600 
  15   0.0000       0.057330         1.5600 
  16   0.0000       0.080908         2.2016 
  17   0.0000       0.090581         2.4648 
  18   0.0000       0.090581         2.4648 
  19   0.0000       0.091017         2.4767 
  20   0.0000       0.091017         2.4767 
  21   0.0000       0.091829         2.4988 
  22   0.0000       0.135405         3.6846 
  23   0.0000       0.146270         3.9802 
  24   0.0000       0.146270         3.9802 
  25   0.0000       0.188143         5.1196 
  26   0.0000       0.205501         5.5920 
  27   0.0000       0.205501         5.5920 
  28   0.0000       0.206850         5.6287 
  29   0.0000       0.206850         5.6287 
  30   0.0000       0.208832         5.6826 
  31   0.0000       0.208832         5.6826 
  32   0.0000       0.233701         6.3593 
  33   0.0000       0.233701         6.3593 
  34   0.0000       0.243656         6.6302 
  35   0.0000       0.254819         6.9340 
  36   0.0000       0.254819         6.9340 
  37   0.0000       0.267847         7.2885 
  38   0.0000       0.267847         7.2885 
  39   0.0000       0.269548         7.3348 
  40   0.0000       0.278720         7.5844 
  41   0.0000       0.314172         8.5491 
  42   0.0000       0.317695         8.6449 
  43   0.0000       0.317695         8.6449 
  44   0.0000       0.355256         9.6670 
  45   0.0000       0.355256         9.6670 
  46   0.0000       0.355387         9.6706 
  47   0.0000       0.355387         9.6706 
  48   0.0000       0.356969         9.7136 
  49   0.0000       0.356969         9.7136 
  50   0.0000       0.441274        12.0077 
  51   0.0000       0.454020        12.3545 
  52   0.0000       0.464434        12.6379 
  53   0.0000       0.464434        12.6379 
  54   0.0000       0.467352        12.7173 
  55   0.0000       0.467352        12.7173 
  56   0.0000       0.509350        13.8601 
  57   0.0000       0.509350        13.8601 
  58   0.0000       0.520979        14.1766 
  59   0.0000       0.520979        14.1766 
  60   0.0000       0.535440        14.5701 
  61   0.0000       0.535440        14.5701 
  62   0.0000       0.550356        14.9760 
  63   0.0000       0.565378        15.3847 
  64   0.0000       0.565378        15.3847 
  65   0.0000       0.565886        15.3985 
  66   0.0000       0.565886        15.3985 
  67   0.0000       0.568131        15.4596 
  68   0.0000       0.568131        15.4596 
  69   0.0000       0.572827        15.5874 
  70   0.0000       0.572827        15.5874 
  71   0.0000       0.582590        15.8531 
  72   0.0000       0.590165        16.0592 
  73   0.0000       0.590165        16.0592 
  74   0.0000       0.609512        16.5857 
  75   0.0000       0.609512        16.5857 
  76   0.0000       0.631540        17.1851 
  77   0.0000       0.660509        17.9734 
  78   0.0000       0.676858        18.4182 
  79   0.0000       0.676858        18.4182 
  80   0.0000       0.682021        18.5587 
  81   0.0000       0.682021        18.5587 
  82   0.0000       0.712713        19.3939 
  83   0.0000       0.758106        20.6291 
  84   0.0000       0.758106        20.6291 
  85   0.0000       0.792398        21.5622 
  86   0.0000       0.798310        21.7231 
  87   0.0000       0.798310        21.7231 
  88   0.0000       0.803956        21.8768 
  89   0.0000       0.803956        21.8768 
  90   0.0000       0.805860        21.9286 
  91   0.0000       0.805860        21.9286 
  92   0.0000       0.933539        25.4029 
  93   0.0000       0.947807        25.7911 
  94   0.0000       0.947807        25.7911 
  95   0.0000       0.957358        26.0510 
  96   0.0000       0.957358        26.0510 
  97   0.0000       0.960144        26.1268 
  98   0.0000       0.960144        26.1268 
  99   0.0000       0.998321        27.1657 
 100   0.0000       0.998321        27.1657 
 101   0.0000       1.008100        27.4318 
 102   0.0000       1.008100        27.4318 
 103   0.0000       1.073732        29.2177 
 104   0.0000       1.073732        29.2177 
 105   0.0000       1.083647        29.4875 
 106   0.0000       1.098675        29.8965 
 107   0.0000       1.098675        29.8965 
 108   0.0000       1.133003        30.8306 
 109   0.0000       1.133003        30.8306 
 110   0.0000       1.142792        31.0969 
 111   0.0000       1.261702        34.3327 
 112   0.0000       1.301232        35.4083 
 113   0.0000       1.301232        35.4083 
 114   0.0000       1.356932        36.9240 
 115   0.0000       1.588558        43.2269 
 116   0.0000       1.596491        43.4427 
 117   0.0000       1.596491        43.4427 
 118   0.0000       1.607480        43.7418 
 119   0.0000       1.607480        43.7418 
 120   0.0000       1.679032        45.6888 
 121   0.0000       1.679032        45.6888 
 122   0.0000       1.727892        47.0183 
 123   0.0000       1.822889        49.6033 
 124   0.0000       1.822889        49.6033 
 125   0.0000       1.890839        51.4523 
 126   0.0000       1.890839        51.4523 
 127   0.0000       2.031027        55.2671 
 128   0.0000       2.031027        55.2671 
 129   0.0000       2.075320        56.4723 
 130   0.0000       2.075320        56.4723 
 131   0.0000       2.106323        57.3160 
 132   0.0000       2.217418        60.3390 
 133   0.0000       2.217418        60.3390 
 134   0.0000       2.225633        60.5625 
 135   0.0000       2.332819        63.4792 
 136   0.0000       2.332819        63.4792 
 137   0.0000       2.393403        65.1278 
 138   0.0000       2.442240        66.4567 
 139   0.0000       2.442240        66.4567 
 140   0.0000       2.635786        71.7234 
 141   0.0000       2.638348        71.7931 
 142   0.0000       2.638348        71.7931 
 143   0.0000       3.063188        83.3536 
 144   0.0000       3.063188        83.3536 
 145   0.0000       3.172780        86.3357 
 146   0.0000       3.308640        90.0327 
 147   0.0000       3.845102       104.6305 
 148   0.0000       3.845102       104.6305 
 149   0.0000       3.916297       106.5678 
 150   0.0000       3.916297       106.5678 
 151   0.0000       4.020612       109.4064 
 152   0.0000       4.020612       109.4064 
 153   0.0000       4.045636       110.0874 
 154   0.0000       4.045636       110.0874 
 155   0.0000       4.065671       110.6325 
 156   0.0000       4.163847       113.3040 
 157   0.0000       4.163848       113.3041 
 158   0.0000       4.221451       114.8715 
 159   0.0000       4.221451       114.8715 
 160   0.0000       4.274793       116.3230 
 161   0.0000       4.309841       117.2767 
 162   0.0000       4.309841       117.2767 
 163   0.0000       4.644675       126.3880 
 164   0.0000       4.644675       126.3880 
 165   0.0000       4.708621       128.1281 
 166   0.0000       4.708621       128.1281 
 167   0.0000       4.768447       129.7560 
 168   0.0000       4.820448       131.1710 
 169   0.0000       4.820448       131.1711 
 170   0.0000       4.862835       132.3245 
 171   0.0000       4.862835       132.3245 
 172   0.0000       4.926174       134.0480 
 173   0.0000       5.103732       138.8796 
 174   0.0000       5.103732       138.8796 
 175   0.0000       5.351622       145.6250 
 176   0.0000       5.568460       151.5255 
 177   0.0000       5.568460       151.5255 
 178   0.0000       5.709995       155.3769 
 179   0.0000       5.709995       155.3769 
 180   0.0000       5.901039       160.5754 
 181   0.0000       5.901042       160.5755 
 182   0.0000       5.910064       160.8210 
 183   0.0000       6.140371       167.0880 
 184   0.0000       6.140371       167.0880 
 185   0.0000       6.227805       169.4672 
 186   0.0000       6.418587       174.6586 
 187   0.0000       6.418587       174.6586 
 188   0.0000       6.461749       175.8331 
 189   0.0000       6.820599       185.5979 
 190   0.0000       6.820599       185.5979 
 191   0.0000       7.548278       205.3991 
 192   0.0000       7.548278       205.3991 
 193   0.0000       7.931974       215.8400 
 194   0.0000       8.210594       223.4216 
 195   0.0000       8.210594       223.4216 
 196   0.0000       9.071609       246.8510 
 197   0.0000       9.244587       251.5580 
 198   0.0000       9.244594       251.5582 
 199   0.0000       9.908569       269.6259 
 200   0.0000       9.908569       269.6259 
 201   0.0000      10.066559       273.9250 
 202   0.0000      10.066559       273.9250 
 203   0.0000      10.265358       279.3346 
 204   0.0000      10.265358       279.3346 
 205   0.0000      10.271869       279.5118 
 206   0.0000      10.271869       279.5118 
 207   0.0000      10.359804       281.9046 
 208   0.0000      10.549652       287.0706 
 209   0.0000      10.549653       287.0707 
 210   0.0000      10.604314       288.5581 
 211   0.0000      10.604314       288.5581 
 212   0.0000      10.709097       291.4094 
 213   0.0000      10.709097       291.4094 
 214   0.0000      10.777508       293.2709 
 215   0.0000      11.025552       300.0205 
 216   0.0000      11.025552       300.0205 
 217   0.0000      11.169588       303.9399 
 218   0.0000      11.390039       309.9387 
 219   0.0000      11.390042       309.9388 
 220   0.0000      11.499244       312.9103 
 221   0.0000      11.499245       312.9104 
 222   0.0000      11.611085       315.9537 
 223   0.0000      11.611085       315.9537 
 224   0.0000      11.688001       318.0467 
 225   0.0000      11.698945       318.3445 
 226   0.0000      11.698947       318.3445 
 227   0.0000      11.837788       322.1226 
 228   0.0000      11.837788       322.1226 
 229   0.0000      11.958709       325.4130 
 230   0.0000      11.958709       325.4130 
 231   0.0000      12.268674       333.8476 
 232   0.0000      12.268676       333.8476 
 233   0.0000      12.409874       337.6898 
 234   0.0000      12.409874       337.6898 
 235   0.0000      12.421941       338.0182 
 236   0.0000      12.521832       340.7364 
 237   0.0000      12.521832       340.7364 
 238   0.0000      12.661611       344.5399 
 239   0.0000      12.661611       344.5399 
 240   0.0000      12.837873       349.3363 
 241   0.0000      12.837873       349.3363 
 242   0.0000      12.971312       352.9674 
 243   0.0000      13.261870       360.8738 
 244   0.0000      13.261870       360.8738 
 245   0.0000      13.588828       369.7708 
 246   0.0000      13.588828       369.7708 
 247   0.0000      14.419817       392.3832 
 248   0.0000      14.419817       392.3832 
 249   0.0000      14.439842       392.9281 
 250   0.0000      15.478605       421.1942 
 251   0.0000      15.922971       433.2861 
 252   0.0000      15.922971       433.2861 
 253   0.0000      16.120229       438.6537 
 254   0.0000      16.909725       460.1370 
 255   0.0000      16.909767       460.1382 
 256   0.0000      17.213273       468.3970 
 257   0.0000      17.213273       468.3970 
 258   0.0000      17.356019       472.2813 
 259   0.0000      17.356019       472.2813 
 260   0.0000      17.846095       485.6169 
 261   0.0000      17.981976       489.3144 
 262   0.0000      17.981984       489.3147 
 263   0.0000      18.560984       505.0701 
 264   0.0000      18.560984       505.0701 
 265   0.0000      19.054563       518.5010 
 266   0.0000      19.054563       518.5010 
 267   0.0000      19.483203       530.1649 
 268   0.0000      22.054435       600.1317 
 269   0.0000      22.876335       622.4967 
 270   0.0000      22.876388       622.4982 
 271   0.0000      24.043096       654.2459 
 272   0.0000      24.043096       654.2459 
 273   0.0000      26.606830       724.0087 
 274   0.0000      30.460306       828.8671 
 275   0.0000      31.821863       865.9169 
 276   0.0000      31.821865       865.9170 
 277   0.0000      31.832308       866.2011 
 278   0.0000      31.832308       866.2011 
 279   0.0000      32.753075       891.2565 
 280   0.0000      32.753075       891.2565 
 281   0.0000      33.600955       914.3285 
 282   0.0000      34.893557       949.5020 
 283   0.0000      66.451858      1808.2470 
 284   0.0000      66.451925      1808.2488 
 285   0.0000      67.122672      1826.5008 
 286   0.0000      67.122672      1826.5008 
 287   0.0000      68.963484      1876.5918 
 288   0.0000      73.883519      2010.4728 
 289   0.0000     143.479918      3904.2871 

                 SPIN DOWN ORBITALS
  NO   OCC          E(Eh)            E(eV) 
   0   1.0000     -18.857621      -513.1420 
   1   1.0000      -9.999759      -272.1073 
   2   1.0000      -1.076786       -29.3008 
   3   1.0000      -0.519227       -14.1289 
   4   1.0000      -0.435896       -11.8613 
   5   1.0000      -0.435896       -11.8613 
   6   1.0000      -0.332235        -9.0406 
   7   0.0000      -0.073862        -2.0099 
   8   0.0000      -0.073862        -2.0099 
   9   0.0000       0.001703         0.0463 
  10   0.0000       0.019082         0.5192 
  11   0.0000       0.021088         0.5738 
  12   0.0000       0.021088         0.5738 
  13   0.0000       0.054550         1.4844 
  14   0.0000       0.057330         1.5600 
  15   0.0000       0.057330         1.5600 
  16   0.0000       0.080908         2.2016 
  17   0.0000       0.090581         2.4648 
  18   0.0000       0.090581         2.4648 
  19   0.0000       0.091017         2.4767 
  20   0.0000       0.091017         2.4767 
  21   0.0000       0.091829         2.4988 
  22   0.0000       0.135405         3.6846 
  23   0.0000       0.146270         3.9802 
  24   0.0000       0.146270         3.9802 
  25   0.0000       0.188143         5.1196 
  26   0.0000       0.205501         5.5920 
  27   0.0000       0.205501         5.5920 
  28   0.0000       0.206850         5.6287 
  29   0.0000       0.206850         5.6287 
  30   0.0000       0.208832         5.6826 
  31   0.0000       0.208832         5.6826 
  32   0.0000       0.233701         6.3593 
  33   0.0000       0.233701         6.3593 
  34   0.0000       0.243656         6.6302 
  35   0.0000       0.254819         6.9340 
  36   0.0000       0.254819         6.9340 
  37   0.0000       0.267847         7.2885 
  38   0.0000       0.267847         7.2885 
  39   0.0000       0.269548         7.3348 
  40   0.0000       0.278720         7.5844 
  41   0.0000       0.314172         8.5491 
  42   0.0000       0.317695         8.6449 
  43   0.0000       0.317695         8.6449 
  44   0.0000       0.355256         9.6670 
  45   0.0000       0.355256         9.6670 
  46   0.0000       0.355387         9.6706 
  47   0.0000       0.355387         9.6706 
  48   0.0000       0.356969         9.7136 
  49   0.0000       0.356969         9.7136 
  50   0.0000       0.441274        12.0077 
  51   0.0000       0.454020        12.3545 
  52   0.0000       0.464434        12.6379 
  53   0.0000       0.464434        12.6379 
  54   0.0000       0.467352        12.7173 
  55   0.0000       0.467352        12.7173 
  56   0.0000       0.509350        13.8601 
  57   0.0000       0.509350        13.8601 
  58   0.0000       0.520979        14.1766 
  59   0.0000       0.520979        14.1766 
  60   0.0000       0.535440        14.5701 
  61   0.0000       0.535440        14.5701 
  62   0.0000       0.550356        14.9760 
  63   0.0000       0.565378        15.3847 
  64   0.0000       0.565378        15.3847 
  65   0.0000       0.565886        15.3985 
  66   0.0000       0.565886        15.3985 
  67   0.0000       0.568131        15.4596 
  68   0.0000       0.568131        15.4596 
  69   0.0000       0.572827        15.5874 
  70   0.0000       0.572827        15.5874 
  71   0.0000       0.582590        15.8531 
  72   0.0000       0.590165        16.0592 
  73   0.0000       0.590165        16.0592 
  74   0.0000       0.609512        16.5857 
  75   0.0000       0.609512        16.5857 
  76   0.0000       0.631540        17.1851 
  77   0.0000       0.660509        17.9734 
  78   0.0000       0.676858        18.4182 
  79   0.0000       0.676858        18.4182 
  80   0.0000       0.682021        18.5587 
  81   0.0000       0.682021        18.5587 
  82   0.0000       0.712713        19.3939 
  83   0.0000       0.758106        20.6291 
  84   0.0000       0.758106        20.6291 
  85   0.0000       0.792398        21.5622 
  86   0.0000       0.798310        21.7231 
  87   0.0000       0.798310        21.7231 
  88   0.0000       0.803956        21.8768 
  89   0.0000       0.803956        21.8768 
  90   0.0000       0.805860        21.9286 
  91   0.0000       0.805860        21.9286 
  92   0.0000       0.933539        25.4029 
  93   0.0000       0.947807        25.7911 
  94   0.0000       0.947807        25.7911 
  95   0.0000       0.957358        26.0510 
  96   0.0000       0.957358        26.0510 
  97   0.0000       0.960144        26.1268 
  98   0.0000       0.960144        26.1268 
  99   0.0000       0.998321        27.1657 
 100   0.0000       0.998321        27.1657 
 101   0.0000       1.008100        27.4318 
 102   0.0000       1.008100        27.4318 
 103   0.0000       1.073732        29.2177 
 104   0.0000       1.073732        29.2177 
 105   0.0000       1.083647        29.4875 
 106   0.0000       1.098675        29.8965 
 107   0.0000       1.098675        29.8965 
 108   0.0000       1.133003        30.8306 
 109   0.0000       1.133003        30.8306 
 110   0.0000       1.142792        31.0969 
 111   0.0000       1.261702        34.3327 
 112   0.0000       1.301232        35.4083 
 113   0.0000       1.301232        35.4083 
 114   0.0000       1.356932        36.9240 
 115   0.0000       1.588558        43.2269 
 116   0.0000       1.596491        43.4427 
 117   0.0000       1.596491        43.4427 
 118   0.0000       1.607480        43.7418 
 119   0.0000       1.607480        43.7418 
 120   0.0000       1.679032        45.6888 
 121   0.0000       1.679032        45.6888 
 122   0.0000       1.727892        47.0183 
 123   0.0000       1.822889        49.6033 
 124   0.0000       1.822889        49.6033 
 125   0.0000       1.890839        51.4523 
 126   0.0000       1.890839        51.4523 
 127   0.0000       2.031027        55.2671 
 128   0.0000       2.031027        55.2671 
 129   0.0000       2.075320        56.4723 
 130   0.0000       2.075320        56.4723 
 131   0.0000       2.106323        57.3160 
 132   0.0000       2.217418        60.3390 
 133   0.0000       2.217418        60.3390 
 134   0.0000       2.225633        60.5625 
 135   0.0000       2.332819        63.4792 
 136   0.0000       2.332819        63.4792 
 137   0.0000       2.393403        65.1278 
 138   0.0000       2.442240        66.4567 
 139   0.0000       2.442240        66.4567 
 140   0.0000       2.635786        71.7234 
 141   0.0000       2.638348        71.7931 
 142   0.0000       2.638348        71.7931 
 143   0.0000       3.063188        83.3536 
 144   0.0000       3.063188        83.3536 
 145   0.0000       3.172780        86.3357 
 146   0.0000       3.308640        90.0327 
 147   0.0000       3.845102       104.6305 
 148   0.0000       3.845102       104.6305 
 149   0.0000       3.916297       106.5678 
 150   0.0000       3.916297       106.5678 
 151   0.0000       4.020612       109.4064 
 152   0.0000       4.020612       109.4064 
 153   0.0000       4.045636       110.0874 
 154   0.0000       4.045636       110.0874 
 155   0.0000       4.065671       110.6325 
 156   0.0000       4.163847       113.3040 
 157   0.0000       4.163848       113.3041 
 158   0.0000       4.221451       114.8715 
 159   0.0000       4.221451       114.8715 
 160   0.0000       4.274793       116.3230 
 161   0.0000       4.309841       117.2767 
 162   0.0000       4.309841       117.2767 
 163   0.0000       4.644675       126.3880 
 164   0.0000       4.644675       126.3880 
 165   0.0000       4.708621       128.1281 
 166   0.0000       4.708621       128.1281 
 167   0.0000       4.768447       129.7560 
 168   0.0000       4.820448       131.1710 
 169   0.0000       4.820448       131.1711 
 170   0.0000       4.862835       132.3245 
 171   0.0000       4.862835       132.3245 
 172   0.0000       4.926174       134.0480 
 173   0.0000       5.103732       138.8796 
 174   0.0000       5.103732       138.8796 
 175   0.0000       5.351622       145.6250 
 176   0.0000       5.568460       151.5255 
 177   0.0000       5.568460       151.5255 
 178   0.0000       5.709995       155.3769 
 179   0.0000       5.709995       155.3769 
 180   0.0000       5.901039       160.5754 
 181   0.0000       5.901042       160.5755 
 182   0.0000       5.910064       160.8210 
 183   0.0000       6.140371       167.0880 
 184   0.0000       6.140371       167.0880 
 185   0.0000       6.227805       169.4672 
 186   0.0000       6.418587       174.6586 
 187   0.0000       6.418587       174.6586 
 188   0.0000       6.461749       175.8331 
 189   0.0000       6.820599       185.5979 
 190   0.0000       6.820599       185.5979 
 191   0.0000       7.548278       205.3991 
 192   0.0000       7.548278       205.3991 
 193   0.0000       7.931974       215.8400 
 194   0.0000       8.210594       223.4216 
 195   0.0000       8.210594       223.4216 
 196   0.0000       9.071609       246.8510 
 197   0.0000       9.244587       251.5580 
 198   0.0000       9.244594       251.5582 
 199   0.0000       9.908569       269.6259 
 200   0.0000       9.908569       269.6259 
 201   0.0000      10.066559       273.9250 
 202   0.0000      10.066559       273.9250 
 203   0.0000      10.265358       279.3346 
 204   0.0000      10.265358       279.3346 
 205   0.0000      10.271869       279.5118 
 206   0.0000      10.271869       279.5118 
 207   0.0000      10.359804       281.9046 
 208   0.0000      10.549652       287.0706 
 209   0.0000      10.549653       287.0707 
 210   0.0000      10.604314       288.5581 
 211   0.0000      10.604314       288.5581 
 212   0.0000      10.709097       291.4094 
 213   0.0000      10.709097       291.4094 
 214   0.0000      10.777508       293.2709 
 215   0.0000      11.025552       300.0205 
 216   0.0000      11.025552       300.0205 
 217   0.0000      11.169588       303.9399 
 218   0.0000      11.390039       309.9387 
 219   0.0000      11.390042       309.9388 
 220   0.0000      11.499244       312.9103 
 221   0.0000      11.499245       312.9104 
 222   0.0000      11.611085       315.9537 
 223   0.0000      11.611085       315.9537 
 224   0.0000      11.688001       318.0467 
 225   0.0000      11.698945       318.3445 
 226   0.0000      11.698947       318.3445 
 227   0.0000      11.837788       322.1226 
 228   0.0000      11.837788       322.1226 
 229   0.0000      11.958709       325.4130 
 230   0.0000      11.958709       325.4130 
 231   0.0000      12.268674       333.8476 
 232   0.0000      12.268676       333.8476 
 233   0.0000      12.409874       337.6898 
 234   0.0000      12.409874       337.6898 
 235   0.0000      12.421941       338.0182 
 236   0.0000      12.521832       340.7364 
 237   0.0000      12.521832       340.7364 
 238   0.0000      12.661611       344.5399 
 239   0.0000      12.661611       344.5399 
 240   0.0000      12.837873       349.3363 
 241   0.0000      12.837873       349.3363 
 242   0.0000      12.971312       352.9674 
 243   0.0000      13.261870       360.8738 
 244   0.0000      13.261870       360.8738 
 245   0.0000      13.588828       369.7708 
 246   0.0000      13.588828       369.7708 
 247   0.0000      14.419817       392.3832 
 248   0.0000      14.419817       392.3832 
 249   0.0000      14.439842       392.9281 
 250   0.0000      15.478605       421.1942 
 251   0.0000      15.922971       433.2861 
 252   0.0000      15.922971       433.2861 
 253   0.0000      16.120229       438.6537 
 254   0.0000      16.909725       460.1370 
 255   0.0000      16.909767       460.1382 
 256   0.0000      17.213273       468.3970 
 257   0.0000      17.213273       468.3970 
 258   0.0000      17.356019       472.2813 
 259   0.0000      17.356019       472.2813 
 260   0.0000      17.846095       485.6169 
 261   0.0000      17.981976       489.3144 
 262   0.0000      17.981984       489.3147 
 263   0.0000      18.560984       505.0701 
 264   0.0000      18.560984       505.0701 
 265   0.0000      19.054563       518.5010 
 266   0.0000      19.054563       518.5010 
 267   0.0000      19.483203       530.1649 
 268   0.0000      22.054435       600.1317 
 269   0.0000      22.876335       622.4967 
 270   0.0000      22.876388       622.4982 
 271   0.0000      24.043096       654.2459 
 272   0.0000      24.043096       654.2459 
 273   0.0000      26.606830       724.0087 
 274   0.0000      30.460306       828.8671 
 275   0.0000      31.821863       865.9169 
 276   0.0000      31.821865       865.9170 
 277   0.0000      31.832308       866.2011 
 278   0.0000      31.832308       866.2011 
 279   0.0000      32.753075       891.2565 
 280   0.0000      32.753075       891.2565 
 281   0.0000      33.600955       914.3285 
 282   0.0000      34.893557       949.5020 
 283   0.0000      66.451858      1808.2470 
 284   0.0000      66.451925      1808.2488 
 285   0.0000      67.122672      1826.5008 
 286   0.0000      67.122672      1826.5008 
 287   0.0000      68.963484      1876.5918 
 288   0.0000      73.883519      2010.4728 
 289   0.0000     143.479918      3904.2871 

                    ********************************
                    * MULLIKEN POPULATION ANALYSIS *
                    ********************************

--------------------------------------------
MULLIKEN ATOMIC CHARGES AND SPIN POPULATIONS
--------------------------------------------
   0 C :   -0.087143   -0.000000
   1 O :    0.087143    0.000000
Sum of atomic charges         :    0.0000000
Sum of atomic spin populations:   -0.0000000

-----------------------------------------------------
MULLIKEN REDUCED ORBITAL CHARGES AND SPIN POPULATIONS
-----------------------------------------------------
CHARGE
  0 C s       :     3.941055  s :     3.941055
      pz      :     0.996627  p :     2.030446
      px      :     0.516910
      py      :     0.516910
      dz2     :     0.035974  d :     0.101477
      dxz     :     0.032752
      dyz     :     0.032752
      dx2y2   :     0.000000
      dxy     :    -0.000000
      f0      :     0.003511  f :     0.012206
      f+1     :     0.004347
      f-1     :     0.004347
      f+2     :    -0.000000
      f-2     :     0.000000
      f+3     :     0.000000
      f-3     :     0.000000
      g0      :     0.000446  g :     0.001825
      g+1     :     0.000689
      g-1     :     0.000689
      g+2     :     0.000000
      g-2     :     0.000000
      g+3     :     0.000000
      g-3     :     0.000000
      g+4     :     0.000000
      g-4     :     0.000000
      h0      :     0.000043  h :     0.000135
      h+1     :     0.000046
      h-1     :     0.000046
      h+2     :    -0.000000
      h-2     :    -0.000000
      h+3     :     0.000000
      h-3     :     0.000000
      h+4     :     0.000000
      h-4     :     0.000000
      h+5     :     0.000000
      h-5     :     0.000000
  1 O s       :     3.731406  s :     3.731406
      pz      :     1.280908  p :     4.136262
      px      :     1.427677
      py      :     1.427677
      dz2     :     0.009161  d :     0.040624
      dxz     :     0.015732
      dyz     :     0.015732
      dx2y2   :     0.000000
      dxy     :     0.000000
      f0      :     0.000776  f :     0.004091
      f+1     :     0.001657
      f-1     :     0.001657
      f+2     :    -0.000000
      f-2     :    -0.000000
      f+3     :     0.000000
      f-3     :     0.000000
      g0      :     0.000077  g :     0.000429
      g+1     :     0.000176
      g-1     :     0.000176
      g+2     :     0.000000
      g-2     :    -0.000000
      g+3     :    -0.000000
      g-3     :    -0.000000
      g+4     :     0.000000
      g-4     :    -0.000000
      h0      :     0.000017  h :     0.000045
      h+1     :     0.000014
      h-1     :     0.000014
      h+2     :    -0.000000
      h-2     :    -0.000000
      h+3     :     0.000000
      h-3     :     0.000000
      h+4     :     0.000000
      h-4     :     0.000000
      h+5     :     0.000000
      h-5     :     0.000000

SPIN
  0 C s       :    -0.000000  s :    -0.000000
      pz      :    -0.000000  p :    -0.000000
      px      :    -0.000000
      py      :     0.000000
      dz2     :    -0.000000  d :    -0.000000
      dxz     :    -0.000000
      dyz     :     0.000000
      dx2y2   :    -0.000000
      dxy     :    -0.000000
      f0      :    -0.000000  f :    -0.000000
      f+1     :    -0.000000
      f-1     :     0.000000
      f+2     :     0.000000
      f-2     :     0.000000
      f+3     :    -0.000000
      f-3     :     0.000000
      g0      :    -0.000000  g :    -0.000000
      g+1     :    -0.000000
      g-1     :     0.000000
      g+2     :     0.000000
      g-2     :    -0.000000
      g+3     :     0.000000
      g-3     :    -0.000000
      g+4     :     0.000000
      g-4     :    -0.000000
      h0      :     0.000000  h :     0.000000
      h+1     :    -0.000000
      h-1     :     0.000000
      h+2     :    -0.000000
      h-2     :    -0.000000
      h+3     :     0.000000
      h-3     :    -0.000000
      h+4     :     0.000000
      h-4     :     0.000000
      h+5     :     0.000000
      h-5     :     0.000000
  1 O s       :     0.000000  s :     0.000000
      pz      :     0.000000  p :     0.000000
      px      :     0.000000
      py      :    -0.000000
      dz2     :     0.000000  d :     0.000000
      dxz     :     0.000000
      dyz     :    -0.000000
      dx2y2   :     0.000000
      dxy     :     0.000000
      f0      :     0.000000  f :     0.000000
      f+1     :     0.000000
      f-1     :    -0.000000
      f+2     :     0.000000
      f-2     :     0.000000
      f+3     :     0.000000
      f-3     :    -0.000000
      g0      :    -0.000000  g :    -0.000000
      g+1     :     0.000000
      g-1     :     0.000000
      g+2     :     0.000000
      g-2     :     0.000000
      g+3     :    -0.000000
      g-3     :    -0.000000
      g+4     :     0.000000
      g-4     :     0.000000
      h0      :     0.000000  h :     0.000000
      h+1     :    -0.000000
      h-1     :     0.000000
      h+2     :    -0.000000
      h-2     :     0.000000
      h+3     :    -0.000000
      h-3     :     0.000000
      h+4     :    -0.000000
      h-4     :    -0.000000
      h+5     :     0.000000
      h-5     :    -0.000000


                     *******************************
                     * LOEWDIN POPULATION ANALYSIS *
                     *******************************

-------------------------------------------
LOEWDIN ATOMIC CHARGES AND SPIN POPULATIONS
-------------------------------------------
   0 C :   -0.172623   -0.000000
   1 O :    0.172623    0.000000

----------------------------------------------------
LOEWDIN REDUCED ORBITAL CHARGES AND SPIN POPULATIONS
----------------------------------------------------
CHARGE
  0 C s       :     3.184773  s :     3.184773
      pz      :     1.219211  p :     2.264927
      px      :     0.522858
      py      :     0.522858
      dz2     :     0.238878  d :     0.481119
      dxz     :     0.121121
      dyz     :     0.121121
      dx2y2   :     0.000000
      dxy     :     0.000000
      f0      :     0.068626  f :     0.185934
      f+1     :     0.058654
      f-1     :     0.058654
      f+2     :     0.000000
      f-2     :     0.000000
      f+3     :     0.000000
      f-3     :     0.000000
      g0      :     0.012374  g :     0.049689
      g+1     :     0.018658
      g-1     :     0.018658
      g+2     :     0.000000
      g-2     :     0.000000
      g+3     :     0.000000
      g-3     :     0.000000
      g+4     :     0.000000
      g-4     :     0.000000
      h0      :     0.001936  h :     0.006182
      h+1     :     0.002123
      h-1     :     0.002123
      h+2     :     0.000000
      h-2     :     0.000000
      h+3     :     0.000000
      h-3     :     0.000000
      h+4     :     0.000000
      h-4     :     0.000000
      h+5     :     0.000000
      h-5     :     0.000000
  1 O s       :     3.360749  s :     3.360749
      pz      :     1.690367  p :     4.140209
      px      :     1.224921
      py      :     1.224921
      dz2     :     0.164729  d :     0.228511
      dxz     :     0.031891
      dyz     :     0.031891
      dx2y2   :     0.000000
      dxy     :     0.000000
      f0      :     0.044498  f :     0.075436
      f+1     :     0.015469
      f-1     :     0.015469
      f+2     :     0.000000
      f-2     :     0.000000
      f+3     :     0.000000
      f-3     :     0.000000
      g0      :     0.011511  g :     0.018943
      g+1     :     0.003716
      g-1     :     0.003716
      g+2     :     0.000000
      g-2     :     0.000000
      g+3     :     0.000000
      g-3     :     0.000000
      g+4     :     0.000000
      g-4     :     0.000000
      h0      :     0.002346  h :     0.003529
      h+1     :     0.000591
      h-1     :     0.000591
      h+2     :     0.000000
      h-2     :     0.000000
      h+3     :     0.000000
      h-3     :     0.000000
      h+4     :     0.000000
      h-4     :     0.000000
      h+5     :     0.000000
      h-5     :     0.000000

SPIN
  0 C s       :    -0.000000  s :    -0.000000
      pz      :     0.000000  p :     0.000000
      px      :    -0.000000
      py      :    -0.000000
      dz2     :    -0.000000  d :    -0.000000
      dxz     :     0.000000
      dyz     :     0.000000
      dx2y2   :    -0.000000
      dxy     :     0.000000
      f0      :    -0.000000  f :    -0.000000
      f+1     :     0.000000
      f-1     :    -0.000000
      f+2     :    -0.000000
      f-2     :     0.000000
      f+3     :    -0.000000
      f-3     :     0.000000
      g0      :    -0.000000  g :    -0.000000
      g+1     :     0.000000
      g-1     :     0.000000
      g+2     :     0.000000
      g-2     :    -0.000000
      g+3     :     0.000000
      g-3     :    -0.000000
      g+4     :     0.000000
      g-4     :    -0.000000
      h0      :    -0.000000  h :    -0.000000
      h+1     :    -0.000000
      h-1     :    -0.000000
      h+2     :    -0.000000
      h-2     :     0.000000
      h+3     :    -0.000000
      h-3     :    -0.000000
      h+4     :     0.000000
      h-4     :     0.000000
      h+5     :     0.000000
      h-5     :     0.000000
  1 O s       :     0.000000  s :     0.000000
      pz      :     0.000000  p :     0.000000
      px      :     0.000000
      py      :     0.000000
      dz2     :     0.000000  d :     0.000000
      dxz     :     0.000000
      dyz     :    -0.000000
      dx2y2   :     0.000000
      dxy     :     0.000000
      f0      :     0.000000  f :    -0.000000
      f+1     :    -0.000000
      f-1     :     0.000000
      f+2     :     0.000000
      f-2     :     0.000000
      f+3     :     0.000000
      f-3     :    -0.000000
      g0      :    -0.000000  g :    -0.000000
      g+1     :    -0.000000
      g-1     :    -0.000000
      g+2     :     0.000000
      g-2     :     0.000000
      g+3     :    -0.000000
      g-3     :    -0.000000
      g+4     :     0.000000
      g-4     :    -0.000000
      h0      :     0.000000  h :     0.000000
      h+1     :    -0.000000
      h-1     :    -0.000000
      h+2     :    -0.000000
      h-2     :    -0.000000
      h+3     :    -0.000000
      h-3     :     0.000000
      h+4     :    -0.000000
      h-4     :     0.000000
      h+5     :     0.000000
      h-5     :    -0.000000


                      *****************************
                      * MAYER POPULATION ANALYSIS *
                      *****************************

  NA   - Mulliken gross atomic population
  ZA   - Total nuclear charge
  QA   - Mulliken gross atomic charge
  VA   - Mayer's total valence
  BVA  - Mayer's bonded valence
  FA   - Mayer's free valence

  ATOM       NA         ZA         QA         VA         BVA        FA
  0 C      6.0871     6.0000    -0.0871     2.3061     2.3061     0.0000
  1 O      7.9129     8.0000     0.0871     2.3061     2.3061     0.0000

  Mayer bond orders larger than 0.1
B(  0-C ,  1-O ) :   2.3061 

-------
TIMINGS
-------

Total SCF time: 0 days 0 hours 5 min 40 sec 

Total time                  ....     340.165 sec
Sum of individual times     ....     339.357 sec  ( 99.8%)

Fock matrix formation       ....     337.064 sec  ( 99.1%)
  XC integration            ....       7.501 sec  (  2.2% of F)
    Basis function eval.    ....       0.564 sec  (  7.5% of XC)
    Density eval.           ....       1.652 sec  ( 22.0% of XC)
    XC-Functional eval.     ....       0.170 sec  (  2.3% of XC)
    XC-Potential eval.      ....       4.512 sec  ( 60.2% of XC)
Diagonalization             ....       0.693 sec  (  0.2%)
Density matrix formation    ....       0.013 sec  (  0.0%)
Population analysis         ....       0.159 sec  (  0.0%)
Initial guess               ....       0.478 sec  (  0.1%)
Orbital Transformation      ....       0.000 sec  (  0.0%)
Orbital Orthonormalization  ....       0.000 sec  (  0.0%)
DIIS solution               ....       0.615 sec  (  0.2%)
Grid generation             ....       0.334 sec  (  0.1%)

-------------------------   --------------------
FINAL SINGLE POINT ENERGY      -113.242583342578
-------------------------   --------------------


                            ***************************************
                            *     ORCA property calculations      *
                            ***************************************

                                    ---------------------
                                    Active property flags
                                    ---------------------
   (+) Dipole Moment
   (+) Polarizability


------------------------------------------------------------------------------
                       ORCA ELECTRIC PROPERTIES CALCULATION
------------------------------------------------------------------------------

Dipole Moment Calculation                       ... on
Quadrupole Moment Calculation                   ... off
Polarizability Calculation                      ... Analytic (CP-SCF)
GBWName                                         ... co_pbe.gbw
Electron density file                           ... co_pbe.scfp.tmp
The origin for moment calculation is the CENTER OF MASS  = ( 0.000000,  0.000000  1.217768)

-------------
DIPOLE MOMENT
-------------
                                X             Y             Z
Electronic contribution:      0.00000       0.00000       0.08096
Nuclear contribution   :      0.00000       0.00000       0.00715
                        -----------------------------------------
Total Dipole Moment    :      0.00000       0.00000       0.08811
                        -----------------------------------------
Magnitude (a.u.)       :      0.08811
Magnitude (Debye)      :      0.22397



--------------------
Rotational spectrum 
--------------------
 
Rotational constants in cm-1:     0.000000     1.930482     1.930482 
Rotational constants in MHz :     0.000000 57874.402002 57874.402002 

 Dipole components along the rotational axes: 
x,y,z [a.u.] :     0.088115     0.000000     0.000000 
x,y,z [Debye]:     0.223970     0.000000     0.000000 

 
Transforming and storing MO dipole integrals   ... done

                ... starting polarizability calculation

Opening the Dipole integral file               ... (co_pbe.dmo.tmp) done
Reading Dipole-MO integrals                    ... done
Solving CP-SCF equations                       ... 

           ************************************************************
           *        Program running with 4 parallel MPI-processes     *
           *              working on a common directory               *
           ************************************************************

------------------------------------------------------------------------------
                           ORCA CP-SCF CALCULATION
------------------------------------------------------------------------------

Input orbitals are from        ... co_pbe.gbw
Input Perturbation             ... co_pbe.cpv.tmp
Wavefunction output            ... co_pbe.cpu.tmp
Perturbation mode              ... Real perturbation (singlet)
Solver                         ... POPLE
Max. number of iterations      ... 200
Convergence tolerance          ... 1.000e-06
Integral handling              ... Direct
Number of perturbations        ... 3
Number of operators            ... 2
Orbital ranges used for CP-SCF:
 Operator 0:  Orbitals   0...  6  to   7...289
 Operator 1:  Orbitals   0...  6  to   7...289
DFT calculation                         ... on
Exchange functional (SCF)               ... PBE
Exchange functional (CP-SCF)            ... PBE
   PBE kappa parameter  XKappa (SCF)    ...  0.804000
   PBE kappa parameter  XKappa (CP-SCF) ...  0.804000
   PBE mue parameter   XMuePBE (SCF)    ...  0.219520
   PBE mue parameter   XMuePBE (CP-SCF) ...  0.219520
Correlation functional (SCF)            ... PBE
Correlation functional (CP-SCF)         ... PBE
   PBE beta parameter CBetaPBE (SCF)    ...  0.066725
   PBE beta parameter CBetaPBE (CP-SCF) ...  0.066725
 LDA part of GGA corr.  LDAOpt (SCF)    ... PW91-LDA
 LDA part of GGA corr.  LDAOpt (CP-SCF) ... PW91-LDA
Variables per vector in CP-SCF ... 3962
Number of vectors sought       ... 3
Recalculating density on grid  ... done
Calculating the xc-kernel      ... done
     CP-SCF ITERATION   0: 
     CP-SCF ITERATION   1:      0.086084495509
     CP-SCF ITERATION   2:      0.003499384166
     CP-SCF ITERATION   3:      0.000022382470
     CP-SCF ITERATION   4:      0.000000376404
done
Reading CP-SCF coefficients                    ... done
Doing the polarizability tensor   ... done
Cleaning up                                    ... done

-------------------------
THE POLARIZABILITY TENSOR
-------------------------

The raw cartesian tensor (atomic units):
   12.50584      0.00000      0.00000  
    0.00000     12.50584      0.00000  
    0.00000      0.00000     15.92156  
diagonalized tensor: 
   12.50584     12.50584     15.92156  

   -0.99236     -0.12337      0.00000  
    0.12337     -0.99236      0.00000  
    0.00000      0.00000      1.00000  

Isotropic polarizability :  13.64442


Timings for individual modules:

Sum of individual times         ...      553.979 sec (=   9.233 min)
GTO integral calculation        ...        4.598 sec (=   0.077 min)   0.8 %
SCF iterations                  ...      341.564 sec (=   5.693 min)  61.7 %
Solution of CP-SCF eqns.        ...      207.816 sec (=   3.464 min)  37.5 %
                             ****ORCA TERMINATED NORMALLY****
TOTAL RUN TIME: 0 days 0 hours 9 minutes 23 seconds 152 msec
