
                                 *****************
                                 * O   R   C   A *
                                 *****************

           --- An Ab Initio, DFT and Semiempirical electronic structure package ---

                  #######################################################
                  #                        -***-                        #
                  #          Department of theory and spectroscopy      #
                  #               Directorship: Frank Neese             #
                  #        Max Planck Institute fuer Kohlenforschung    #
                  #                Kaiser Wilhelm Platz 1               #
                  #                 D-45470 Muelheim/Ruhr               #
                  #                      Germany                        #
                  #                                                     #
                  #                  All rights reserved                #
                  #                        -***-                        #
                  #######################################################


                         Program Version 4.1.2  - RELEASE  -


 With contributions from (in alphabetic order):
   Daniel Aravena         : Magnetic Properties
   Michael Atanasov       : Ab Initio Ligand Field Theory
   Alexander A. Auer      : GIAO ZORA
   Ute Becker             : Parallelization
   Giovanni Bistoni       : ED, Open-shell LED
   Martin Brehm           : Molecular dynamics
   Dmytro Bykov           : SCF Hessian
   Vijay G. Chilkuri      : MRCI spin determinant printing
   Dipayan Datta          : RHF DLPNO-CCSD density
   Achintya Kumar Dutta   : EOM-CC, STEOM-CC
   Dmitry Ganyushin       : Spin-Orbit,Spin-Spin,Magnetic field MRCI
   Miquel Garcia          : C-PCM Hessian
   Yang Guo               : DLPNO-NEVPT2, CIM, IAO-localization
   Andreas Hansen         : Spin unrestricted coupled pair/coupled cluster methods
   Benjamin Helmich-Paris : CASSCF linear response (MC-RPA)
   Lee Huntington         : MR-EOM, pCC
   Robert Izsak           : Overlap fitted RIJCOSX, COSX-SCS-MP3, EOM
   Christian Kollmar      : KDIIS, OOCD, Brueckner-CCSD(T), CCSD density
   Simone Kossmann        : Meta GGA functionals, TD-DFT gradient, OOMP2, MP2 Hessian
   Martin Krupicka        : AUTO-CI
   Lucas Lang             : DCDCAS
   Dagmar Lenk            : GEPOL surface, SMD
   Dimitrios Liakos       : Extrapolation schemes; parallel MDCI
   Dimitrios Manganas     : ROCIS; embedding schemes
   Dimitrios Pantazis     : SARC Basis sets
   Taras Petrenko         : DFT Hessian,TD-DFT gradient, ASA, ECA, R-Raman, ABS, FL, XAS/XES, NRVS
   Peter Pinski           : DLPNO-MP2, DLPNO-MP2 Gradient
   Christoph Reimann      : Effective Core Potentials
   Marius Retegan         : Local ZFS, SOC
   Christoph Riplinger    : Optimizer, TS searches, QM/MM, DLPNO-CCSD(T), (RO)-DLPNO pert. Triples
   Tobias Risthaus        : Range-separated hybrids, TD-DFT gradient, RPA, STAB
   Michael Roemelt        : Restricted open shell CIS
   Masaaki Saitow         : Open-shell DLPNO
   Barbara Sandhoefer     : DKH picture change effects
   Avijit Sen             : IP-ROCIS
   Kantharuban Sivalingam : CASSCF convergence, NEVPT2, FIC-MRCI
   Bernardo de Souza      : ESD, SOC TD-DFT
   Georgi Stoychev        : AutoAux, RI-MP2 NMR
   Willem Van den Heuvel  : Paramagnetic NMR
   Boris Wezisla          : Elementary symmetry handling
   Frank Wennmohs         : Technical directorship


 We gratefully acknowledge several colleagues who have allowed us to
 interface, adapt or use parts of their codes:
   Stefan Grimme, W. Hujo, H. Kruse,             : VdW corrections, initial TS optimization,
                  C. Bannwarth                     DFT functionals, gCP, sTDA/sTD-DF
   Ed Valeev                                     : LibInt (2-el integral package), F12 methods
   Garnet Chan, S. Sharma, J. Yang, R. Olivares  : DMRG
   Ulf Ekstrom                                   : XCFun DFT Library
   Mihaly Kallay                                 : mrcc  (arbitrary order and MRCC methods)
   Andreas Klamt, Michael Diedenhofen            : otool_cosmo (COSMO solvation model)
   Jiri Pittner, Ondrej Demel                    : Mk-CCSD
   Frank Weinhold                                : gennbo (NPA and NBO analysis)
   Christopher J. Cramer and Donald G. Truhlar   : smd solvation model
   Lars Goerigk                                  : TD-DFT with DH, B97 family of functionals
   V. Asgeirsson, H. Jonsson                     : NEB implementation
   FAccTs GmbH                                   : IRC, NEB, NEB-TS, Multilevel


 Your calculation uses the libint2 library for the computation of 2-el integrals
 For citations please refer to: http://libint.valeyev.net

 This ORCA versions uses:
   CBLAS   interface :  Fast vector & matrix operations
   LAPACKE interface :  Fast linear algebra routines
   SCALAPACK package :  Parallel linear algebra routines


----- Orbital basis set information -----
Your calculation utilizes the basis: aug-pc-4
   H, C-F              : F. Jensen, J. Chem. Phys. 115, 9113 (2001).
                         F. Jensen, J. Chem. Phys. 116, 7372 (2002).
                         F. Jensen, J. Chem. Phys. 117, 9234 (2002).
   Si-Cl               : F. Jensen, T. Helgaker, J. Chem. Phys. 121, 3463 (2004).
   He-B, Ne-Mg, Al, Ar : F. Jensen, J. Phys. Chem. A 111, 11198 (2007).
   K, Ca, Ga-Kr        : F. Jensen, J. Chem. Phys. 136, 094110 (2012).
   Sc-Zn               : F. Jensen, J. Chem. Phys. 138, 014107 (2013).

================================================================================
                                        WARNINGS
                       Please study these warnings very carefully!
================================================================================


INFO   : the flag for use of LIBINT has been found!

================================================================================
                                       INPUT FILE
================================================================================
NAME = cso_pbe.inp
|  1> !uks pbe nori aug-pc-4 grid5 nofinalgrid verytightscf
|  2> 
|  3> %maxcore 1500
|  4> 
|  5> %pal nprocs 4 end
|  6> 
|  7> %scf
|  8> 	maxiter 200
|  9> end
| 10> %elprop
| 11> 	dipole true
| 12> 	 polar 1
| 13> 	 maxiter 200
| 14> end
| 15> 
| 16> * xyz 0 1
| 17> C 0.0000 0.0000 0.0000
| 18> O 0.0000 0.0000 1.1600
| 19> S 0.0000 0.0000 -1.5600
| 20> *
| 21> 
| 22>                          ****END OF INPUT****
================================================================================

                       ****************************
                       * Single Point Calculation *
                       ****************************

---------------------------------
CARTESIAN COORDINATES (ANGSTROEM)
---------------------------------
  C      0.000000    0.000000    0.000000
  O      0.000000    0.000000    1.160000
  S      0.000000    0.000000   -1.560000

----------------------------
CARTESIAN COORDINATES (A.U.)
----------------------------
  NO LB      ZA    FRAG     MASS         X           Y           Z
   0 C     6.0000    0    12.011    0.000000    0.000000    0.000000
   1 O     8.0000    0    15.999    0.000000    0.000000    2.192082
   2 S    16.0000    0    32.060    0.000000    0.000000   -2.947973

--------------------------------
INTERNAL COORDINATES (ANGSTROEM)
--------------------------------
 C      0   0   0     0.000000000000     0.00000000     0.00000000
 O      1   0   0     1.160000000000     0.00000000     0.00000000
 S      1   2   0     1.560000000000   180.00000000     0.00000000

---------------------------
INTERNAL COORDINATES (A.U.)
---------------------------
 C      0   0   0     0.000000000000     0.00000000     0.00000000
 O      1   0   0     2.192082315349     0.00000000     0.00000000
 S      1   2   0     2.947972768917   180.00000000     0.00000000

---------------------
BASIS SET INFORMATION
---------------------
There are 3 groups of distinct atoms

 Group   1 Type C   : 28s12p7d4f3g2h contracted to 9s8p7d4f3g2h pattern {11101111111/51111111/1111111/1111/111/11}
 Group   2 Type O   : 27s12p7d4f3g2h contracted to 9s8p7d4f3g2h pattern {1191111111/51111111/1111111/1111/111/11}
 Group   3 Type S   : 44s27p7d4f3g2h contracted to 8s7p7d4f3g2h pattern {15121211111/111111111/1111111/1111/111/11}

Atom   0C    basis set group =>   1
Atom   1O    basis set group =>   2
Atom   2S    basis set group =>   3


           ************************************************************
           *        Program running with 4 parallel MPI-processes     *
           *              working on a common directory               *
           ************************************************************
------------------------------------------------------------------------------
                           ORCA GTO INTEGRAL CALCULATION
------------------------------------------------------------------------------

                         BASIS SET STATISTICS AND STARTUP INFO

 # of primitive gaussian shells          ...  198
 # of primitive gaussian functions       ...  588
 # of contracted shells                  ...   97
 # of contracted basis functions         ...  431
 Highest angular momentum                ...    5
 Maximum contraction depth               ...   15
 Integral package used                   ... LIBINT
 Integral threshhold            Thresh   ...  1.000e-12
 Primitive cut-off              TCut     ...  1.000e-14


------------------------------ INTEGRAL EVALUATION ----------------------------


 * One electron integrals 
 Pre-screening matrix                    ... done
 Shell pair data                         ... done (   0.002 sec)



           ************************************************************
           *        Program running with 4 parallel MPI-processes     *
           *              working on a common directory               *
           ************************************************************
-------------------------------------------------------------------------------
                                 ORCA SCF
-------------------------------------------------------------------------------

------------
SCF SETTINGS
------------
Hamiltonian:
 Density Functional     Method          .... DFT(GTOs)
 Exchange Functional    Exchange        .... PBE
   PBE kappa parameter   XKappa         ....  0.804000
   PBE mue parameter    XMuePBE         ....  0.219520
 Correlation Functional Correlation     .... PBE
   PBE beta parameter  CBetaPBE         ....  0.066725
 LDA part of GGA corr.  LDAOpt          .... PW91-LDA
 Gradients option       PostSCFGGA      .... off
   Density functional embedding theory  .... OFF
   NL short-range parameter             ....  6.400000


General Settings:
 Integral files         IntName         .... cso_pbe
 Hartree-Fock type      HFTyp           .... UHF
 Total Charge           Charge          ....    0
 Multiplicity           Mult            ....    1
 Number of Electrons    NEL             ....   30
 Basis Dimension        Dim             ....  431
 Nuclear Repulsion      ENuc            ....     79.3641960708 Eh

Convergence Acceleration:
 DIIS                   CNVDIIS         .... on
   Start iteration      DIISMaxIt       ....    12
   Startup error        DIISStart       ....  0.200000
   # of expansion vecs  DIISMaxEq       ....     5
   Bias factor          DIISBfac        ....   1.050
   Max. coefficient     DIISMaxC        ....  10.000
 Newton-Raphson         CNVNR           .... off
 SOSCF                  CNVSOSCF        .... off
 Level Shifting         CNVShift        .... on
   Level shift para.    LevelShift      ....    0.2500
   Turn off err/grad.   ShiftErr        ....    0.0010
 Zerner damping         CNVZerner       .... off
 Static damping         CNVDamp         .... on
   Fraction old density DampFac         ....    0.7000
   Max. Damping (<1)    DampMax         ....    0.9800
   Min. Damping (>=0)   DampMin         ....    0.0000
   Turn off err/grad.   DampErr         ....    0.1000
 Fernandez-Rico         CNVRico         .... off

SCF Procedure:
 Maximum # iterations   MaxIter         ....   200
 SCF integral mode      SCFMode         .... Direct
   Integral package                     .... LIBINT
 Reset frequency        DirectResetFreq ....    20
 Integral Threshold     Thresh          ....  1.000e-12 Eh
 Primitive CutOff       TCut            ....  1.000e-14 Eh

Convergence Tolerance:
 Convergence Check Mode ConvCheckMode   .... Total+1el-Energy
 Convergence forced     ConvForced      .... 0
 Energy Change          TolE            ....  1.000e-09 Eh
 1-El. energy change                    ....  1.000e-06 Eh
 DIIS Error             TolErr          ....  1.000e-08


Diagonalization of the overlap matrix:
Smallest eigenvalue                        ... 2.595e-07
Time for diagonalization                   ...    0.040 sec
Threshold for overlap eigenvalues          ... 1.000e-08
Number of eigenvalues below threshold      ... 0
Time for construction of square roots      ...    0.036 sec
Total time needed                          ...    0.077 sec

-------------------
DFT GRID GENERATION
-------------------

General Integration Accuracy     IntAcc      ...  5.010
Radial Grid Type                 RadialGrid  ... Gauss-Chebyshev
Angular Grid (max. acc.)         AngularGrid ... Lebedev-434
Angular grid pruning method      GridPruning ... 3 (G Style)
Weight generation scheme         WeightScheme... Becke
Basis function cutoff            BFCut       ...    1.0000e-12
Integration weight cutoff        WCut        ...    1.0000e-14
Grids for H and He will be reduced by one unit

# of grid points (after initial pruning)     ...  33280 (   0.0 sec)
# of grid points (after weights+screening)   ...  32897 (   0.0 sec)
nearest neighbour list constructed           ...    0.0 sec
Grid point re-assignment to atoms done       ...    0.0 sec
Grid point division into batches done        ...    0.3 sec
Reduced shell lists constructed in    0.4 sec

Total number of grid points                  ...    32897
Total number of batches                      ...      516
Average number of points per batch           ...       63
Average number of grid points per atom       ...    10966
Average number of shells per batch           ...    80.97 (83.47%)
Average number of basis functions per batch  ...   371.09 (86.10%)
Average number of large shells per batch     ...    74.52 (92.03%)
Average number of large basis fcns per batch ...   346.44 (93.36%)
Maximum spatial batch extension              ...  21.30, 21.30,  2.55 au
Average spatial batch extension              ...   0.66,  0.63,  0.33 au

Time for grid setup =    0.455 sec

------------------------------
INITIAL GUESS: MODEL POTENTIAL
------------------------------
Loading Hartree-Fock densities                     ... done
Calculating cut-offs                               ... done
Setting up the integral package                    ... done
Initializing the effective Hamiltonian             ... done
Starting the Coulomb interaction                   ... done (   0.0 sec)
Reading the grid                                   ... done
Mapping shells                                     ... done
Starting the XC term evaluation                    ... done (   0.7 sec)
  promolecular density results
     # of electrons  =     29.999998790
     EX              =    -38.124853864
     EC              =     -1.078062218
     EX+EC           =    -39.202916082
Transforming the Hamiltonian                       ... done (   0.0 sec)
Diagonalizing the Hamiltonian                      ... done (   0.0 sec)
Back transforming the eigenvectors                 ... done (   0.0 sec)
Now organizing SCF variables                       ... done
                      ------------------
                      INITIAL GUESS DONE (   1.4 sec)
                      ------------------
--------------
SCF ITERATIONS
--------------
ITER       Energy         Delta-E        Max-DP      RMS-DP      [F,P]     Damp
               ***  Starting incremental Fock matrix formation  ***
  0   -511.2755523212   0.000000000000 0.06656093  0.00031633  0.2245885 0.7000
  1   -511.3108794515  -0.035327130269 0.03342268  0.00017922  0.0444171 0.7000
                               ***Turning on DIIS***
  2   -511.3157956876  -0.004916236061 0.03162255  0.00027676  0.0299689 0.0000
  3   -511.3375419315  -0.021746243936 0.04648869  0.00020896  0.0246155 0.0000
  4   -511.3388675610  -0.001325629464 0.01636127  0.00006508  0.0169732 0.0000
  5   -511.3395003256  -0.000632764686 0.00682515  0.00003435  0.0054869 0.0000
  6   -511.3396131765  -0.000112850886 0.00066076  0.00000578  0.0018606 0.0000
  7   -511.3396261107  -0.000012934128 0.00048321  0.00000354  0.0007038 0.0000
  8   -511.3396275291  -0.000001418490 0.00014151  0.00000100  0.0005040 0.0000
  9   -511.3396277671  -0.000000237955 0.00018064  0.00000080  0.0002308 0.0000
 10   -511.3396279344  -0.000000167253 0.00005084  0.00000024  0.0000483 0.0000
 11   -511.3396279401  -0.000000005740 0.00002349  0.00000018  0.0000126 0.0000
 12   -511.3396279407  -0.000000000587 0.00006882  0.00000034  0.0000025 0.0000
 13   -511.3396279407  -0.000000000030 0.00006424  0.00000039  0.0000004 0.0000
 14   -511.3396279407  -0.000000000001 0.00002591  0.00000024  0.0000002 0.0000
                 **** Energy Check signals convergence ****

               *****************************************************
               *                     SUCCESS                       *
               *           SCF CONVERGED AFTER  15 CYCLES          *
               *****************************************************


----------------
TOTAL SCF ENERGY
----------------

Total Energy       :         -511.33962794 Eh          -13914.25866 eV

Components:
Nuclear Repulsion  :           79.36419607 Eh            2159.60957 eV
Electronic Energy  :         -590.70382401 Eh          -16073.86823 eV
One Electron Energy:         -861.55206363 Eh          -23444.02352 eV
Two Electron Energy:          270.84823962 Eh            7370.15529 eV

Virial components:
Potential Energy   :        -1022.01316891 Eh          -27810.39218 eV
Kinetic Energy     :          510.67354097 Eh           13896.13352 eV
Virial Ratio       :            2.00130433


DFT components:
N(Alpha)           :       14.999998676077 electrons
N(Beta)            :       14.999998676077 electrons
N(Total)           :       29.999997352155 electrons
E(X)               :      -38.278655830080 Eh       
E(C)               :       -1.082386405288 Eh       
E(XC)              :      -39.361042235368 Eh       
DFET-embed. en.    :        0.000000000000 Eh       

---------------
SCF CONVERGENCE
---------------

  Last Energy change         ...    5.2864e-12  Tolerance :   1.0000e-09
  Last MAX-Density change    ...    3.4050e-05  Tolerance :   1.0000e-08
  Last RMS-Density change    ...    3.0402e-07  Tolerance :   1.0000e-09
  Last DIIS Error            ...    1.0065e-07  Tolerance :   1.0000e-08

             **** THE GBW FILE WAS UPDATED (cso_pbe.gbw) ****
             **** DENSITY FILE WAS UPDATED (cso_pbe.scfp.tmp) ****
             **** ENERGY FILE WAS UPDATED (cso_pbe.en.tmp) ****
----------------------
UHF SPIN CONTAMINATION
----------------------

Warning: in a DFT calculation there is little theoretical justification to 
         calculate <S**2> as in Hartree-Fock theory. We will do it anyways
         but you should keep in mind that the values have only limited relevance

Expectation value of <S**2>     :     0.000000
Ideal value S*(S+1) for S=0.0   :     0.000000
Deviation                       :     0.000000

----------------
ORBITAL ENERGIES
----------------
                 SPIN UP ORBITALS
  NO   OCC          E(Eh)            E(eV) 
   0   1.0000     -88.067331     -2396.4339 
   1   1.0000     -18.832880      -512.4687 
   2   1.0000     -10.034312      -273.0475 
   3   1.0000      -7.707614      -209.7349 
   4   1.0000      -5.728301      -155.8750 
   5   1.0000      -5.722013      -155.7039 
   6   1.0000      -5.722013      -155.7039 
   7   1.0000      -1.050031       -28.5728 
   8   1.0000      -0.754354       -20.5270 
   9   1.0000      -0.494077       -13.4445 
  10   1.0000      -0.430610       -11.7175 
  11   1.0000      -0.430610       -11.7175 
  12   1.0000      -0.427994       -11.6463 
  13   1.0000      -0.275165        -7.4876 
  14   1.0000      -0.275165        -7.4876 
  15   0.0000      -0.071989        -1.9589 
  16   0.0000      -0.071989        -1.9589 
  17   0.0000      -0.025134        -0.6839 
  18   0.0000       0.005312         0.1445 
  19   0.0000       0.015971         0.4346 
  20   0.0000       0.016184         0.4404 
  21   0.0000       0.016184         0.4404 
  22   0.0000       0.035776         0.9735 
  23   0.0000       0.038736         1.0541 
  24   0.0000       0.038736         1.0541 
  25   0.0000       0.062183         1.6921 
  26   0.0000       0.064175         1.7463 
  27   0.0000       0.064175         1.7463 
  28   0.0000       0.067881         1.8471 
  29   0.0000       0.067881         1.8471 
  30   0.0000       0.070775         1.9259 
  31   0.0000       0.073974         2.0129 
  32   0.0000       0.096306         2.6206 
  33   0.0000       0.096307         2.6206 
  34   0.0000       0.114981         3.1288 
  35   0.0000       0.116235         3.1629 
  36   0.0000       0.116235         3.1629 
  37   0.0000       0.126691         3.4474 
  38   0.0000       0.126691         3.4474 
  39   0.0000       0.163751         4.4559 
  40   0.0000       0.167434         4.5561 
  41   0.0000       0.167434         4.5561 
  42   0.0000       0.171681         4.6717 
  43   0.0000       0.176465         4.8019 
  44   0.0000       0.176465         4.8019 
  45   0.0000       0.179699         4.8898 
  46   0.0000       0.188661         5.1337 
  47   0.0000       0.188661         5.1337 
  48   0.0000       0.194446         5.2911 
  49   0.0000       0.194446         5.2911 
  50   0.0000       0.209581         5.7030 
  51   0.0000       0.225386         6.1331 
  52   0.0000       0.225386         6.1331 
  53   0.0000       0.239866         6.5271 
  54   0.0000       0.239866         6.5271 
  55   0.0000       0.251174         6.8348 
  56   0.0000       0.251174         6.8348 
  57   0.0000       0.254953         6.9376 
  58   0.0000       0.270327         7.3560 
  59   0.0000       0.270327         7.3560 
  60   0.0000       0.271707         7.3935 
  61   0.0000       0.271707         7.3935 
  62   0.0000       0.274418         7.4673 
  63   0.0000       0.294415         8.0114 
  64   0.0000       0.294415         8.0114 
  65   0.0000       0.326425         8.8825 
  66   0.0000       0.326425         8.8825 
  67   0.0000       0.342166         9.3108 
  68   0.0000       0.342167         9.3108 
  69   0.0000       0.342669         9.3245 
  70   0.0000       0.357292         9.7224 
  71   0.0000       0.357293         9.7224 
  72   0.0000       0.360663         9.8141 
  73   0.0000       0.374223        10.1831 
  74   0.0000       0.389847        10.6083 
  75   0.0000       0.389847        10.6083 
  76   0.0000       0.393824        10.7165 
  77   0.0000       0.393824        10.7165 
  78   0.0000       0.416168        11.3245 
  79   0.0000       0.416168        11.3245 
  80   0.0000       0.422810        11.5053 
  81   0.0000       0.433052        11.7840 
  82   0.0000       0.433052        11.7840 
  83   0.0000       0.461656        12.5623 
  84   0.0000       0.461656        12.5623 
  85   0.0000       0.466637        12.6978 
  86   0.0000       0.466637        12.6978 
  87   0.0000       0.479754        13.0548 
  88   0.0000       0.481031        13.0895 
  89   0.0000       0.500017        13.6061 
  90   0.0000       0.500017        13.6061 
  91   0.0000       0.501096        13.6355 
  92   0.0000       0.501096        13.6355 
  93   0.0000       0.526383        14.3236 
  94   0.0000       0.526383        14.3236 
  95   0.0000       0.529841        14.4177 
  96   0.0000       0.529841        14.4177 
  97   0.0000       0.532081        14.4787 
  98   0.0000       0.555494        15.1158 
  99   0.0000       0.555494        15.1158 
 100   0.0000       0.558905        15.2086 
 101   0.0000       0.558905        15.2086 
 102   0.0000       0.572225        15.5710 
 103   0.0000       0.572225        15.5710 
 104   0.0000       0.572952        15.5908 
 105   0.0000       0.572953        15.5908 
 106   0.0000       0.602409        16.3924 
 107   0.0000       0.610657        16.6168 
 108   0.0000       0.610658        16.6169 
 109   0.0000       0.631173        17.1751 
 110   0.0000       0.631642        17.1879 
 111   0.0000       0.631643        17.1879 
 112   0.0000       0.635826        17.3017 
 113   0.0000       0.635827        17.3017 
 114   0.0000       0.636006        17.3066 
 115   0.0000       0.636006        17.3066 
 116   0.0000       0.672950        18.3119 
 117   0.0000       0.672950        18.3119 
 118   0.0000       0.691938        18.8286 
 119   0.0000       0.691938        18.8286 
 120   0.0000       0.695759        18.9326 
 121   0.0000       0.702514        19.1164 
 122   0.0000       0.734394        19.9839 
 123   0.0000       0.741101        20.1664 
 124   0.0000       0.741101        20.1664 
 125   0.0000       0.769502        20.9392 
 126   0.0000       0.769502        20.9392 
 127   0.0000       0.772905        21.0318 
 128   0.0000       0.772905        21.0318 
 129   0.0000       0.795277        21.6406 
 130   0.0000       0.795277        21.6406 
 131   0.0000       0.803265        21.8579 
 132   0.0000       0.803266        21.8580 
 133   0.0000       0.834010        22.6946 
 134   0.0000       0.834011        22.6946 
 135   0.0000       0.863219        23.4894 
 136   0.0000       0.874161        23.7871 
 137   0.0000       0.874161        23.7871 
 138   0.0000       0.900966        24.5165 
 139   0.0000       0.900966        24.5165 
 140   0.0000       0.905715        24.6457 
 141   0.0000       0.914040        24.8723 
 142   0.0000       0.940493        25.5921 
 143   0.0000       0.940495        25.5922 
 144   0.0000       0.943147        25.6643 
 145   0.0000       0.951783        25.8993 
 146   0.0000       0.951783        25.8993 
 147   0.0000       0.952466        25.9179 
 148   0.0000       0.952468        25.9180 
 149   0.0000       0.976167        26.5628 
 150   0.0000       0.976167        26.5628 
 151   0.0000       0.999563        27.1995 
 152   0.0000       0.999564        27.1995 
 153   0.0000       1.039572        28.2882 
 154   0.0000       1.039572        28.2882 
 155   0.0000       1.042214        28.3601 
 156   0.0000       1.042214        28.3601 
 157   0.0000       1.052658        28.6443 
 158   0.0000       1.052658        28.6443 
 159   0.0000       1.064162        28.9573 
 160   0.0000       1.075969        29.2786 
 161   0.0000       1.075969        29.2786 
 162   0.0000       1.078558        29.3491 
 163   0.0000       1.094733        29.7892 
 164   0.0000       1.094733        29.7892 
 165   0.0000       1.232681        33.5430 
 166   0.0000       1.232683        33.5430 
 167   0.0000       1.257955        34.2307 
 168   0.0000       1.257955        34.2307 
 169   0.0000       1.277607        34.7654 
 170   0.0000       1.277607        34.7654 
 171   0.0000       1.282205        34.8906 
 172   0.0000       1.293137        35.1880 
 173   0.0000       1.312249        35.7081 
 174   0.0000       1.337284        36.3893 
 175   0.0000       1.337284        36.3893 
 176   0.0000       1.403710        38.1969 
 177   0.0000       1.403710        38.1969 
 178   0.0000       1.442119        39.2420 
 179   0.0000       1.442119        39.2421 
 180   0.0000       1.492909        40.6241 
 181   0.0000       1.540587        41.9215 
 182   0.0000       1.540587        41.9215 
 183   0.0000       1.587674        43.2028 
 184   0.0000       1.587674        43.2028 
 185   0.0000       1.645375        44.7729 
 186   0.0000       1.656074        45.0641 
 187   0.0000       1.713892        46.6374 
 188   0.0000       1.713893        46.6374 
 189   0.0000       1.741251        47.3819 
 190   0.0000       1.741251        47.3819 
 191   0.0000       1.844184        50.1828 
 192   0.0000       1.911317        52.0096 
 193   0.0000       1.970254        53.6133 
 194   0.0000       1.981920        53.9308 
 195   0.0000       1.981920        53.9308 
 196   0.0000       2.010891        54.7191 
 197   0.0000       2.010891        54.7191 
 198   0.0000       2.032427        55.3051 
 199   0.0000       2.032427        55.3051 
 200   0.0000       2.106702        57.3263 
 201   0.0000       2.106702        57.3263 
 202   0.0000       2.114642        57.5423 
 203   0.0000       2.114642        57.5423 
 204   0.0000       2.259789        61.4920 
 205   0.0000       2.259789        61.4920 
 206   0.0000       2.317458        63.0612 
 207   0.0000       2.317458        63.0612 
 208   0.0000       2.343950        63.7821 
 209   0.0000       2.448483        66.6266 
 210   0.0000       2.469860        67.2083 
 211   0.0000       2.469860        67.2083 
 212   0.0000       2.504503        68.1510 
 213   0.0000       2.504503        68.1510 
 214   0.0000       2.505552        68.1795 
 215   0.0000       2.505552        68.1795 
 216   0.0000       2.582149        70.2638 
 217   0.0000       2.582149        70.2638 
 218   0.0000       2.597150        70.6720 
 219   0.0000       2.597150        70.6720 
 220   0.0000       2.726594        74.1944 
 221   0.0000       2.754511        74.9540 
 222   0.0000       2.754511        74.9540 
 223   0.0000       2.944645        80.1279 
 224   0.0000       3.019047        82.1524 
 225   0.0000       3.175498        86.4097 
 226   0.0000       3.175500        86.4097 
 227   0.0000       3.254861        88.5693 
 228   0.0000       3.254861        88.5693 
 229   0.0000       3.337755        90.8249 
 230   0.0000       3.337755        90.8249 
 231   0.0000       3.347971        91.1029 
 232   0.0000       3.388726        92.2119 
 233   0.0000       3.388726        92.2119 
 234   0.0000       3.504397        95.3595 
 235   0.0000       3.652607        99.3925 
 236   0.0000       3.652607        99.3925 
 237   0.0000       3.657284        99.5198 
 238   0.0000       3.701159       100.7137 
 239   0.0000       3.713102       101.0386 
 240   0.0000       3.713102       101.0386 
 241   0.0000       3.908472       106.3549 
 242   0.0000       3.909312       106.3778 
 243   0.0000       3.909312       106.3778 
 244   0.0000       4.009991       109.1174 
 245   0.0000       4.009991       109.1174 
 246   0.0000       4.074732       110.8791 
 247   0.0000       4.074732       110.8791 
 248   0.0000       4.093419       111.3876 
 249   0.0000       4.093419       111.3876 
 250   0.0000       4.141568       112.6978 
 251   0.0000       4.141568       112.6978 
 252   0.0000       4.240894       115.4006 
 253   0.0000       4.240895       115.4006 
 254   0.0000       4.311881       117.3322 
 255   0.0000       4.389819       119.4530 
 256   0.0000       4.389819       119.4530 
 257   0.0000       4.573347       124.4471 
 258   0.0000       4.607937       125.3883 
 259   0.0000       4.607937       125.3883 
 260   0.0000       4.698774       127.8602 
 261   0.0000       4.698777       127.8602 
 262   0.0000       4.823088       131.2429 
 263   0.0000       4.823088       131.2429 
 264   0.0000       4.893896       133.1697 
 265   0.0000       4.893896       133.1697 
 266   0.0000       4.958491       134.9274 
 267   0.0000       5.114105       139.1619 
 268   0.0000       5.114105       139.1619 
 269   0.0000       5.124142       139.4350 
 270   0.0000       5.144938       140.0009 
 271   0.0000       5.144938       140.0009 
 272   0.0000       5.148141       140.0880 
 273   0.0000       5.148141       140.0880 
 274   0.0000       5.165238       140.5533 
 275   0.0000       5.165238       140.5533 
 276   0.0000       5.412646       147.2856 
 277   0.0000       5.449777       148.2960 
 278   0.0000       5.449777       148.2960 
 279   0.0000       5.655183       153.8853 
 280   0.0000       5.655183       153.8853 
 281   0.0000       5.698029       155.0513 
 282   0.0000       5.698029       155.0513 
 283   0.0000       5.769895       157.0068 
 284   0.0000       5.769896       157.0068 
 285   0.0000       5.870744       159.7511 
 286   0.0000       5.926373       161.2648 
 287   0.0000       5.926377       161.2649 
 288   0.0000       5.981434       162.7631 
 289   0.0000       5.996789       163.1809 
 290   0.0000       5.996789       163.1809 
 291   0.0000       6.374664       173.4634 
 292   0.0000       6.374664       173.4634 
 293   0.0000       6.460033       175.7864 
 294   0.0000       6.497157       176.7966 
 295   0.0000       6.497157       176.7966 
 296   0.0000       6.572618       178.8500 
 297   0.0000       6.572619       178.8501 
 298   0.0000       6.861286       186.7051 
 299   0.0000       6.965022       189.5279 
 300   0.0000       6.965022       189.5279 
 301   0.0000       7.495164       203.9538 
 302   0.0000       7.495164       203.9538 
 303   0.0000       7.654857       208.2992 
 304   0.0000       7.845869       213.4969 
 305   0.0000       7.845869       213.4969 
 306   0.0000       8.145288       221.6445 
 307   0.0000       8.172960       222.3976 
 308   0.0000       8.172968       222.3978 
 309   0.0000       8.233199       224.0367 
 310   0.0000       8.233199       224.0367 
 311   0.0000       8.307979       226.0716 
 312   0.0000       8.317473       226.3300 
 313   0.0000       8.317473       226.3300 
 314   0.0000       8.518091       231.7890 
 315   0.0000       8.518097       231.7892 
 316   0.0000       9.024945       245.5812 
 317   0.0000       9.024945       245.5812 
 318   0.0000       9.279703       252.5136 
 319   0.0000       9.445616       257.0283 
 320   0.0000       9.445624       257.0285 
 321   0.0000       9.613802       261.6048 
 322   0.0000      10.227195       278.2961 
 323   0.0000      10.227197       278.2962 
 324   0.0000      10.244375       278.7636 
 325   0.0000      10.244375       278.7636 
 326   0.0000      10.340918       281.3907 
 327   0.0000      10.340918       281.3907 
 328   0.0000      10.542691       286.8812 
 329   0.0000      10.548966       287.0520 
 330   0.0000      10.548973       287.0521 
 331   0.0000      10.644024       289.6386 
 332   0.0000      10.644024       289.6386 
 333   0.0000      10.682074       290.6740 
 334   0.0000      10.682074       290.6740 
 335   0.0000      10.684704       290.7456 
 336   0.0000      10.684704       290.7456 
 337   0.0000      10.974100       298.6204 
 338   0.0000      11.287145       307.1388 
 339   0.0000      11.287145       307.1388 
 340   0.0000      11.359482       309.1072 
 341   0.0000      11.359489       309.1074 
 342   0.0000      11.540130       314.0229 
 343   0.0000      11.540158       314.0237 
 344   0.0000      11.544305       314.1365 
 345   0.0000      11.597400       315.5813 
 346   0.0000      11.597400       315.5813 
 347   0.0000      11.671799       317.6058 
 348   0.0000      11.671825       317.6065 
 349   0.0000      11.734883       319.3224 
 350   0.0000      11.734883       319.3224 
 351   0.0000      11.843707       322.2836 
 352   0.0000      11.843716       322.2839 
 353   0.0000      11.860514       322.7410 
 354   0.0000      11.860514       322.7410 
 355   0.0000      11.986137       326.1594 
 356   0.0000      11.986137       326.1594 
 357   0.0000      12.219681       332.5144 
 358   0.0000      12.219684       332.5145 
 359   0.0000      12.246137       333.2343 
 360   0.0000      12.421505       338.0063 
 361   0.0000      12.421505       338.0063 
 362   0.0000      12.511965       340.4679 
 363   0.0000      12.511967       340.4679 
 364   0.0000      12.561550       341.8172 
 365   0.0000      12.561550       341.8172 
 366   0.0000      12.705612       345.7373 
 367   0.0000      12.723948       346.2362 
 368   0.0000      12.723948       346.2362 
 369   0.0000      12.952262       352.4490 
 370   0.0000      13.088294       356.1506 
 371   0.0000      13.088295       356.1506 
 372   0.0000      13.402364       364.6969 
 373   0.0000      13.402364       364.6969 
 374   0.0000      13.567386       369.1873 
 375   0.0000      13.567386       369.1873 
 376   0.0000      13.771352       374.7375 
 377   0.0000      14.418393       392.3444 
 378   0.0000      14.418393       392.3444 
 379   0.0000      14.711039       400.3077 
 380   0.0000      15.652607       425.9291 
 381   0.0000      15.652610       425.9292 
 382   0.0000      16.156413       439.6383 
 383   0.0000      16.546424       450.2511 
 384   0.0000      16.915255       460.2875 
 385   0.0000      16.915266       460.2878 
 386   0.0000      16.941443       461.0001 
 387   0.0000      16.941505       461.0018 
 388   0.0000      17.196086       467.9293 
 389   0.0000      17.196086       467.9293 
 390   0.0000      17.221433       468.6190 
 391   0.0000      17.221433       468.6190 
 392   0.0000      17.577949       478.3203 
 393   0.0000      17.577949       478.3203 
 394   0.0000      18.045685       491.0481 
 395   0.0000      18.045688       491.0481 
 396   0.0000      18.610214       506.4097 
 397   0.0000      18.766232       510.6551 
 398   0.0000      18.766232       510.6551 
 399   0.0000      18.892516       514.0915 
 400   0.0000      19.109273       519.9898 
 401   0.0000      19.109273       519.9898 
 402   0.0000      19.760211       537.7027 
 403   0.0000      22.825667       621.1180 
 404   0.0000      23.005683       626.0165 
 405   0.0000      23.005752       626.0183 
 406   0.0000      24.364489       662.9914 
 407   0.0000      24.364489       662.9914 
 408   0.0000      26.648724       725.1486 
 409   0.0000      30.373434       826.5032 
 410   0.0000      31.286434       851.3472 
 411   0.0000      31.836025       866.3023 
 412   0.0000      31.836078       866.3037 
 413   0.0000      32.096654       873.3944 
 414   0.0000      32.096654       873.3944 
 415   0.0000      32.816639       892.9862 
 416   0.0000      32.816639       892.9862 
 417   0.0000      34.435465       937.0366 
 418   0.0000      34.907467       949.8805 
 419   0.0000      62.392248      1697.7794 
 420   0.0000      62.392258      1697.7796 
 421   0.0000      62.632340      1704.3126 
 422   0.0000      62.632340      1704.3126 
 423   0.0000      63.245427      1720.9956 
 424   0.0000      66.548119      1810.8664 
 425   0.0000      66.548222      1810.8692 
 426   0.0000      67.330148      1832.1465 
 427   0.0000      67.330148      1832.1465 
 428   0.0000      68.863009      1873.8577 
 429   0.0000      75.723390      2060.5382 
 430   0.0000     143.628843      3908.3395 

                 SPIN DOWN ORBITALS
  NO   OCC          E(Eh)            E(eV) 
   0   1.0000     -88.067331     -2396.4339 
   1   1.0000     -18.832880      -512.4687 
   2   1.0000     -10.034312      -273.0475 
   3   1.0000      -7.707614      -209.7349 
   4   1.0000      -5.728301      -155.8750 
   5   1.0000      -5.722013      -155.7039 
   6   1.0000      -5.722013      -155.7039 
   7   1.0000      -1.050031       -28.5728 
   8   1.0000      -0.754354       -20.5270 
   9   1.0000      -0.494077       -13.4445 
  10   1.0000      -0.430610       -11.7175 
  11   1.0000      -0.430610       -11.7175 
  12   1.0000      -0.427994       -11.6463 
  13   1.0000      -0.275165        -7.4876 
  14   1.0000      -0.275165        -7.4876 
  15   0.0000      -0.071989        -1.9589 
  16   0.0000      -0.071989        -1.9589 
  17   0.0000      -0.025134        -0.6839 
  18   0.0000       0.005312         0.1445 
  19   0.0000       0.015971         0.4346 
  20   0.0000       0.016184         0.4404 
  21   0.0000       0.016184         0.4404 
  22   0.0000       0.035776         0.9735 
  23   0.0000       0.038736         1.0541 
  24   0.0000       0.038736         1.0541 
  25   0.0000       0.062183         1.6921 
  26   0.0000       0.064175         1.7463 
  27   0.0000       0.064175         1.7463 
  28   0.0000       0.067881         1.8471 
  29   0.0000       0.067881         1.8471 
  30   0.0000       0.070775         1.9259 
  31   0.0000       0.073974         2.0129 
  32   0.0000       0.096306         2.6206 
  33   0.0000       0.096307         2.6206 
  34   0.0000       0.114981         3.1288 
  35   0.0000       0.116235         3.1629 
  36   0.0000       0.116235         3.1629 
  37   0.0000       0.126691         3.4474 
  38   0.0000       0.126691         3.4474 
  39   0.0000       0.163751         4.4559 
  40   0.0000       0.167434         4.5561 
  41   0.0000       0.167434         4.5561 
  42   0.0000       0.171681         4.6717 
  43   0.0000       0.176465         4.8019 
  44   0.0000       0.176465         4.8019 
  45   0.0000       0.179699         4.8898 
  46   0.0000       0.188661         5.1337 
  47   0.0000       0.188661         5.1337 
  48   0.0000       0.194446         5.2911 
  49   0.0000       0.194446         5.2911 
  50   0.0000       0.209581         5.7030 
  51   0.0000       0.225386         6.1331 
  52   0.0000       0.225386         6.1331 
  53   0.0000       0.239866         6.5271 
  54   0.0000       0.239866         6.5271 
  55   0.0000       0.251174         6.8348 
  56   0.0000       0.251174         6.8348 
  57   0.0000       0.254953         6.9376 
  58   0.0000       0.270327         7.3560 
  59   0.0000       0.270327         7.3560 
  60   0.0000       0.271707         7.3935 
  61   0.0000       0.271707         7.3935 
  62   0.0000       0.274418         7.4673 
  63   0.0000       0.294415         8.0114 
  64   0.0000       0.294415         8.0114 
  65   0.0000       0.326425         8.8825 
  66   0.0000       0.326425         8.8825 
  67   0.0000       0.342166         9.3108 
  68   0.0000       0.342167         9.3108 
  69   0.0000       0.342669         9.3245 
  70   0.0000       0.357292         9.7224 
  71   0.0000       0.357293         9.7224 
  72   0.0000       0.360663         9.8141 
  73   0.0000       0.374223        10.1831 
  74   0.0000       0.389847        10.6083 
  75   0.0000       0.389847        10.6083 
  76   0.0000       0.393824        10.7165 
  77   0.0000       0.393824        10.7165 
  78   0.0000       0.416168        11.3245 
  79   0.0000       0.416168        11.3245 
  80   0.0000       0.422810        11.5053 
  81   0.0000       0.433052        11.7840 
  82   0.0000       0.433052        11.7840 
  83   0.0000       0.461656        12.5623 
  84   0.0000       0.461656        12.5623 
  85   0.0000       0.466637        12.6978 
  86   0.0000       0.466637        12.6978 
  87   0.0000       0.479754        13.0548 
  88   0.0000       0.481031        13.0895 
  89   0.0000       0.500017        13.6061 
  90   0.0000       0.500017        13.6061 
  91   0.0000       0.501096        13.6355 
  92   0.0000       0.501096        13.6355 
  93   0.0000       0.526383        14.3236 
  94   0.0000       0.526383        14.3236 
  95   0.0000       0.529841        14.4177 
  96   0.0000       0.529841        14.4177 
  97   0.0000       0.532081        14.4787 
  98   0.0000       0.555494        15.1158 
  99   0.0000       0.555494        15.1158 
 100   0.0000       0.558905        15.2086 
 101   0.0000       0.558905        15.2086 
 102   0.0000       0.572225        15.5710 
 103   0.0000       0.572225        15.5710 
 104   0.0000       0.572952        15.5908 
 105   0.0000       0.572953        15.5908 
 106   0.0000       0.602409        16.3924 
 107   0.0000       0.610657        16.6168 
 108   0.0000       0.610658        16.6169 
 109   0.0000       0.631173        17.1751 
 110   0.0000       0.631642        17.1879 
 111   0.0000       0.631643        17.1879 
 112   0.0000       0.635826        17.3017 
 113   0.0000       0.635827        17.3017 
 114   0.0000       0.636006        17.3066 
 115   0.0000       0.636006        17.3066 
 116   0.0000       0.672950        18.3119 
 117   0.0000       0.672950        18.3119 
 118   0.0000       0.691938        18.8286 
 119   0.0000       0.691938        18.8286 
 120   0.0000       0.695759        18.9326 
 121   0.0000       0.702514        19.1164 
 122   0.0000       0.734394        19.9839 
 123   0.0000       0.741101        20.1664 
 124   0.0000       0.741101        20.1664 
 125   0.0000       0.769502        20.9392 
 126   0.0000       0.769502        20.9392 
 127   0.0000       0.772905        21.0318 
 128   0.0000       0.772905        21.0318 
 129   0.0000       0.795277        21.6406 
 130   0.0000       0.795277        21.6406 
 131   0.0000       0.803265        21.8579 
 132   0.0000       0.803266        21.8580 
 133   0.0000       0.834010        22.6946 
 134   0.0000       0.834011        22.6946 
 135   0.0000       0.863219        23.4894 
 136   0.0000       0.874161        23.7871 
 137   0.0000       0.874161        23.7871 
 138   0.0000       0.900966        24.5165 
 139   0.0000       0.900966        24.5165 
 140   0.0000       0.905715        24.6457 
 141   0.0000       0.914040        24.8723 
 142   0.0000       0.940493        25.5921 
 143   0.0000       0.940495        25.5922 
 144   0.0000       0.943147        25.6643 
 145   0.0000       0.951783        25.8993 
 146   0.0000       0.951783        25.8993 
 147   0.0000       0.952466        25.9179 
 148   0.0000       0.952468        25.9180 
 149   0.0000       0.976167        26.5628 
 150   0.0000       0.976167        26.5628 
 151   0.0000       0.999563        27.1995 
 152   0.0000       0.999564        27.1995 
 153   0.0000       1.039572        28.2882 
 154   0.0000       1.039572        28.2882 
 155   0.0000       1.042214        28.3601 
 156   0.0000       1.042214        28.3601 
 157   0.0000       1.052658        28.6443 
 158   0.0000       1.052658        28.6443 
 159   0.0000       1.064162        28.9573 
 160   0.0000       1.075969        29.2786 
 161   0.0000       1.075969        29.2786 
 162   0.0000       1.078558        29.3491 
 163   0.0000       1.094733        29.7892 
 164   0.0000       1.094733        29.7892 
 165   0.0000       1.232681        33.5430 
 166   0.0000       1.232683        33.5430 
 167   0.0000       1.257955        34.2307 
 168   0.0000       1.257955        34.2307 
 169   0.0000       1.277607        34.7654 
 170   0.0000       1.277607        34.7654 
 171   0.0000       1.282205        34.8906 
 172   0.0000       1.293137        35.1880 
 173   0.0000       1.312249        35.7081 
 174   0.0000       1.337284        36.3893 
 175   0.0000       1.337284        36.3893 
 176   0.0000       1.403710        38.1969 
 177   0.0000       1.403710        38.1969 
 178   0.0000       1.442119        39.2420 
 179   0.0000       1.442119        39.2421 
 180   0.0000       1.492909        40.6241 
 181   0.0000       1.540587        41.9215 
 182   0.0000       1.540587        41.9215 
 183   0.0000       1.587674        43.2028 
 184   0.0000       1.587674        43.2028 
 185   0.0000       1.645375        44.7729 
 186   0.0000       1.656074        45.0641 
 187   0.0000       1.713892        46.6374 
 188   0.0000       1.713893        46.6374 
 189   0.0000       1.741251        47.3819 
 190   0.0000       1.741251        47.3819 
 191   0.0000       1.844184        50.1828 
 192   0.0000       1.911317        52.0096 
 193   0.0000       1.970254        53.6133 
 194   0.0000       1.981920        53.9308 
 195   0.0000       1.981920        53.9308 
 196   0.0000       2.010891        54.7191 
 197   0.0000       2.010891        54.7191 
 198   0.0000       2.032427        55.3051 
 199   0.0000       2.032427        55.3051 
 200   0.0000       2.106702        57.3263 
 201   0.0000       2.106702        57.3263 
 202   0.0000       2.114642        57.5423 
 203   0.0000       2.114642        57.5423 
 204   0.0000       2.259789        61.4920 
 205   0.0000       2.259789        61.4920 
 206   0.0000       2.317458        63.0612 
 207   0.0000       2.317458        63.0612 
 208   0.0000       2.343950        63.7821 
 209   0.0000       2.448483        66.6266 
 210   0.0000       2.469860        67.2083 
 211   0.0000       2.469860        67.2083 
 212   0.0000       2.504503        68.1510 
 213   0.0000       2.504503        68.1510 
 214   0.0000       2.505552        68.1795 
 215   0.0000       2.505552        68.1795 
 216   0.0000       2.582149        70.2638 
 217   0.0000       2.582149        70.2638 
 218   0.0000       2.597150        70.6720 
 219   0.0000       2.597150        70.6720 
 220   0.0000       2.726594        74.1944 
 221   0.0000       2.754511        74.9540 
 222   0.0000       2.754511        74.9540 
 223   0.0000       2.944645        80.1279 
 224   0.0000       3.019047        82.1524 
 225   0.0000       3.175498        86.4097 
 226   0.0000       3.175500        86.4097 
 227   0.0000       3.254861        88.5693 
 228   0.0000       3.254861        88.5693 
 229   0.0000       3.337755        90.8249 
 230   0.0000       3.337755        90.8249 
 231   0.0000       3.347971        91.1029 
 232   0.0000       3.388726        92.2119 
 233   0.0000       3.388726        92.2119 
 234   0.0000       3.504397        95.3595 
 235   0.0000       3.652607        99.3925 
 236   0.0000       3.652607        99.3925 
 237   0.0000       3.657284        99.5198 
 238   0.0000       3.701159       100.7137 
 239   0.0000       3.713102       101.0386 
 240   0.0000       3.713102       101.0386 
 241   0.0000       3.908472       106.3549 
 242   0.0000       3.909312       106.3778 
 243   0.0000       3.909312       106.3778 
 244   0.0000       4.009991       109.1174 
 245   0.0000       4.009991       109.1174 
 246   0.0000       4.074732       110.8791 
 247   0.0000       4.074732       110.8791 
 248   0.0000       4.093419       111.3876 
 249   0.0000       4.093419       111.3876 
 250   0.0000       4.141568       112.6978 
 251   0.0000       4.141568       112.6978 
 252   0.0000       4.240894       115.4006 
 253   0.0000       4.240895       115.4006 
 254   0.0000       4.311881       117.3322 
 255   0.0000       4.389819       119.4530 
 256   0.0000       4.389819       119.4530 
 257   0.0000       4.573347       124.4471 
 258   0.0000       4.607937       125.3883 
 259   0.0000       4.607937       125.3883 
 260   0.0000       4.698774       127.8602 
 261   0.0000       4.698777       127.8602 
 262   0.0000       4.823088       131.2429 
 263   0.0000       4.823088       131.2429 
 264   0.0000       4.893896       133.1697 
 265   0.0000       4.893896       133.1697 
 266   0.0000       4.958491       134.9274 
 267   0.0000       5.114105       139.1619 
 268   0.0000       5.114105       139.1619 
 269   0.0000       5.124142       139.4350 
 270   0.0000       5.144938       140.0009 
 271   0.0000       5.144938       140.0009 
 272   0.0000       5.148141       140.0880 
 273   0.0000       5.148141       140.0880 
 274   0.0000       5.165238       140.5533 
 275   0.0000       5.165238       140.5533 
 276   0.0000       5.412646       147.2856 
 277   0.0000       5.449777       148.2960 
 278   0.0000       5.449777       148.2960 
 279   0.0000       5.655183       153.8853 
 280   0.0000       5.655183       153.8853 
 281   0.0000       5.698029       155.0513 
 282   0.0000       5.698029       155.0513 
 283   0.0000       5.769895       157.0068 
 284   0.0000       5.769896       157.0068 
 285   0.0000       5.870744       159.7511 
 286   0.0000       5.926373       161.2648 
 287   0.0000       5.926377       161.2649 
 288   0.0000       5.981434       162.7631 
 289   0.0000       5.996789       163.1809 
 290   0.0000       5.996789       163.1809 
 291   0.0000       6.374664       173.4634 
 292   0.0000       6.374664       173.4634 
 293   0.0000       6.460033       175.7864 
 294   0.0000       6.497157       176.7966 
 295   0.0000       6.497157       176.7966 
 296   0.0000       6.572618       178.8500 
 297   0.0000       6.572619       178.8501 
 298   0.0000       6.861286       186.7051 
 299   0.0000       6.965022       189.5279 
 300   0.0000       6.965022       189.5279 
 301   0.0000       7.495164       203.9538 
 302   0.0000       7.495164       203.9538 
 303   0.0000       7.654857       208.2992 
 304   0.0000       7.845869       213.4969 
 305   0.0000       7.845869       213.4969 
 306   0.0000       8.145288       221.6445 
 307   0.0000       8.172960       222.3976 
 308   0.0000       8.172968       222.3978 
 309   0.0000       8.233199       224.0367 
 310   0.0000       8.233199       224.0367 
 311   0.0000       8.307979       226.0716 
 312   0.0000       8.317473       226.3300 
 313   0.0000       8.317473       226.3300 
 314   0.0000       8.518091       231.7890 
 315   0.0000       8.518097       231.7892 
 316   0.0000       9.024945       245.5812 
 317   0.0000       9.024945       245.5812 
 318   0.0000       9.279703       252.5136 
 319   0.0000       9.445616       257.0283 
 320   0.0000       9.445624       257.0285 
 321   0.0000       9.613802       261.6048 
 322   0.0000      10.227195       278.2961 
 323   0.0000      10.227197       278.2962 
 324   0.0000      10.244375       278.7636 
 325   0.0000      10.244375       278.7636 
 326   0.0000      10.340918       281.3907 
 327   0.0000      10.340918       281.3907 
 328   0.0000      10.542691       286.8812 
 329   0.0000      10.548966       287.0520 
 330   0.0000      10.548973       287.0521 
 331   0.0000      10.644024       289.6386 
 332   0.0000      10.644024       289.6386 
 333   0.0000      10.682074       290.6740 
 334   0.0000      10.682074       290.6740 
 335   0.0000      10.684704       290.7456 
 336   0.0000      10.684704       290.7456 
 337   0.0000      10.974100       298.6204 
 338   0.0000      11.287145       307.1388 
 339   0.0000      11.287145       307.1388 
 340   0.0000      11.359482       309.1072 
 341   0.0000      11.359489       309.1074 
 342   0.0000      11.540130       314.0229 
 343   0.0000      11.540158       314.0237 
 344   0.0000      11.544305       314.1365 
 345   0.0000      11.597400       315.5813 
 346   0.0000      11.597400       315.5813 
 347   0.0000      11.671799       317.6058 
 348   0.0000      11.671825       317.6065 
 349   0.0000      11.734883       319.3224 
 350   0.0000      11.734883       319.3224 
 351   0.0000      11.843707       322.2836 
 352   0.0000      11.843716       322.2839 
 353   0.0000      11.860514       322.7410 
 354   0.0000      11.860514       322.7410 
 355   0.0000      11.986137       326.1594 
 356   0.0000      11.986137       326.1594 
 357   0.0000      12.219681       332.5144 
 358   0.0000      12.219684       332.5145 
 359   0.0000      12.246137       333.2343 
 360   0.0000      12.421505       338.0063 
 361   0.0000      12.421505       338.0063 
 362   0.0000      12.511965       340.4679 
 363   0.0000      12.511967       340.4679 
 364   0.0000      12.561550       341.8172 
 365   0.0000      12.561550       341.8172 
 366   0.0000      12.705612       345.7373 
 367   0.0000      12.723948       346.2362 
 368   0.0000      12.723948       346.2362 
 369   0.0000      12.952262       352.4490 
 370   0.0000      13.088294       356.1506 
 371   0.0000      13.088295       356.1506 
 372   0.0000      13.402364       364.6969 
 373   0.0000      13.402364       364.6969 
 374   0.0000      13.567386       369.1873 
 375   0.0000      13.567386       369.1873 
 376   0.0000      13.771352       374.7375 
 377   0.0000      14.418393       392.3444 
 378   0.0000      14.418393       392.3444 
 379   0.0000      14.711039       400.3077 
 380   0.0000      15.652607       425.9291 
 381   0.0000      15.652610       425.9292 
 382   0.0000      16.156413       439.6383 
 383   0.0000      16.546424       450.2511 
 384   0.0000      16.915255       460.2875 
 385   0.0000      16.915266       460.2878 
 386   0.0000      16.941443       461.0001 
 387   0.0000      16.941505       461.0018 
 388   0.0000      17.196086       467.9293 
 389   0.0000      17.196086       467.9293 
 390   0.0000      17.221433       468.6190 
 391   0.0000      17.221433       468.6190 
 392   0.0000      17.577949       478.3203 
 393   0.0000      17.577949       478.3203 
 394   0.0000      18.045685       491.0481 
 395   0.0000      18.045688       491.0481 
 396   0.0000      18.610214       506.4097 
 397   0.0000      18.766232       510.6551 
 398   0.0000      18.766232       510.6551 
 399   0.0000      18.892516       514.0915 
 400   0.0000      19.109273       519.9898 
 401   0.0000      19.109273       519.9898 
 402   0.0000      19.760211       537.7027 
 403   0.0000      22.825667       621.1180 
 404   0.0000      23.005683       626.0165 
 405   0.0000      23.005752       626.0183 
 406   0.0000      24.364489       662.9914 
 407   0.0000      24.364489       662.9914 
 408   0.0000      26.648724       725.1486 
 409   0.0000      30.373434       826.5032 
 410   0.0000      31.286434       851.3472 
 411   0.0000      31.836025       866.3023 
 412   0.0000      31.836078       866.3037 
 413   0.0000      32.096654       873.3944 
 414   0.0000      32.096654       873.3944 
 415   0.0000      32.816639       892.9862 
 416   0.0000      32.816639       892.9862 
 417   0.0000      34.435465       937.0366 
 418   0.0000      34.907467       949.8805 
 419   0.0000      62.392248      1697.7794 
 420   0.0000      62.392258      1697.7796 
 421   0.0000      62.632340      1704.3126 
 422   0.0000      62.632340      1704.3126 
 423   0.0000      63.245427      1720.9956 
 424   0.0000      66.548119      1810.8664 
 425   0.0000      66.548222      1810.8692 
 426   0.0000      67.330148      1832.1465 
 427   0.0000      67.330148      1832.1465 
 428   0.0000      68.863009      1873.8577 
 429   0.0000      75.723390      2060.5382 
 430   0.0000     143.628843      3908.3395 

                    ********************************
                    * MULLIKEN POPULATION ANALYSIS *
                    ********************************

--------------------------------------------
MULLIKEN ATOMIC CHARGES AND SPIN POPULATIONS
--------------------------------------------
   0 C :    0.172851   -0.000000
   1 O :   -0.015016    0.000000
   2 S :   -0.157835    0.000000
Sum of atomic charges         :    0.0000000
Sum of atomic spin populations:    0.0000000

-----------------------------------------------------
MULLIKEN REDUCED ORBITAL CHARGES AND SPIN POPULATIONS
-----------------------------------------------------
CHARGE
  0 C s       :     3.238514  s :     3.238514
      pz      :     0.717886  p :     2.314571
      px      :     0.798342
      py      :     0.798342
      dz2     :     0.017922  d :     0.245750
      dxz     :     0.113914
      dyz     :     0.113914
      dx2y2   :    -0.000000
      dxy     :     0.000000
      f0      :     0.003338  f :     0.026413
      f+1     :     0.011537
      f-1     :     0.011537
      f+2     :    -0.000000
      f-2     :    -0.000000
      f+3     :     0.000000
      f-3     :     0.000000
      g0      :    -0.000389  g :     0.002133
      g+1     :     0.001261
      g-1     :     0.001261
      g+2     :    -0.000000
      g-2     :     0.000000
      g+3     :     0.000000
      g-3     :     0.000000
      g+4     :     0.000000
      g-4     :    -0.000000
      h0      :    -0.000323  h :    -0.000231
      h+1     :     0.000046
      h-1     :     0.000046
      h+2     :     0.000000
      h-2     :     0.000000
      h+3     :     0.000000
      h-3     :     0.000000
      h+4     :     0.000000
      h-4     :     0.000000
      h+5     :     0.000000
      h-5     :     0.000000
  1 O s       :     3.676557  s :     3.676557
      pz      :     1.275186  p :     4.268181
      px      :     1.496498
      py      :     1.496498
      dz2     :     0.003735  d :     0.066817
      dxz     :     0.031541
      dyz     :     0.031541
      dx2y2   :     0.000000
      dxy     :     0.000000
      f0      :    -0.001504  f :     0.005737
      f+1     :     0.003621
      f-1     :     0.003621
      f+2     :    -0.000000
      f-2     :    -0.000000
      f+3     :     0.000000
      f-3     :     0.000000
      g0      :    -0.000636  g :    -0.001750
      g+1     :    -0.000557
      g-1     :    -0.000557
      g+2     :     0.000000
      g-2     :     0.000000
      g+3     :     0.000000
      g-3     :     0.000000
      g+4     :     0.000000
      g-4     :    -0.000000
      h0      :    -0.000106  h :    -0.000526
      h+1     :    -0.000210
      h-1     :    -0.000210
      h+2     :    -0.000000
      h-2     :     0.000000
      h+3     :     0.000000
      h-3     :     0.000000
      h+4     :     0.000000
      h-4     :     0.000000
      h+5     :     0.000000
      h-5     :     0.000000
  2 S s       :     6.017441  s :     6.017441
      pz      :     2.994114  p :    10.021413
      px      :     3.513649
      py      :     3.513649
      dz2     :     0.051936  d :     0.106162
      dxz     :     0.027113
      dyz     :     0.027113
      dx2y2   :     0.000000
      dxy     :     0.000000
      f0      :     0.005261  f :     0.011899
      f+1     :     0.003319
      f-1     :     0.003319
      f+2     :    -0.000000
      f-2     :    -0.000000
      f+3     :     0.000000
      f-3     :     0.000000
      g0      :     0.000927  g :     0.000885
      g+1     :    -0.000021
      g-1     :    -0.000021
      g+2     :    -0.000000
      g-2     :    -0.000000
      g+3     :     0.000000
      g-3     :     0.000000
      g+4     :     0.000000
      g-4     :     0.000000
      h0      :     0.000141  h :     0.000034
      h+1     :    -0.000054
      h-1     :    -0.000054
      h+2     :    -0.000000
      h-2     :     0.000000
      h+3     :     0.000000
      h-3     :     0.000000
      h+4     :     0.000000
      h-4     :    -0.000000
      h+5     :     0.000000
      h-5     :     0.000000

SPIN
  0 C s       :    -0.000000  s :    -0.000000
      pz      :    -0.000000  p :    -0.000000
      px      :     0.000000
      py      :     0.000000
      dz2     :     0.000000  d :     0.000000
      dxz     :    -0.000000
      dyz     :    -0.000000
      dx2y2   :     0.000000
      dxy     :     0.000000
      f0      :    -0.000000  f :    -0.000000
      f+1     :     0.000000
      f-1     :    -0.000000
      f+2     :     0.000000
      f-2     :    -0.000000
      f+3     :    -0.000000
      f-3     :     0.000000
      g0      :     0.000000  g :     0.000000
      g+1     :     0.000000
      g-1     :    -0.000000
      g+2     :    -0.000000
      g-2     :    -0.000000
      g+3     :     0.000000
      g-3     :     0.000000
      g+4     :    -0.000000
      g-4     :    -0.000000
      h0      :     0.000000  h :     0.000000
      h+1     :     0.000000
      h-1     :     0.000000
      h+2     :    -0.000000
      h-2     :     0.000000
      h+3     :    -0.000000
      h-3     :     0.000000
      h+4     :     0.000000
      h-4     :     0.000000
      h+5     :     0.000000
      h-5     :    -0.000000
  1 O s       :    -0.000000  s :    -0.000000
      pz      :     0.000000  p :     0.000000
      px      :    -0.000000
      py      :     0.000000
      dz2     :    -0.000000  d :    -0.000000
      dxz     :    -0.000000
      dyz     :     0.000000
      dx2y2   :    -0.000000
      dxy     :    -0.000000
      f0      :    -0.000000  f :    -0.000000
      f+1     :    -0.000000
      f-1     :    -0.000000
      f+2     :    -0.000000
      f-2     :    -0.000000
      f+3     :     0.000000
      f-3     :    -0.000000
      g0      :     0.000000  g :     0.000000
      g+1     :     0.000000
      g-1     :    -0.000000
      g+2     :     0.000000
      g-2     :    -0.000000
      g+3     :    -0.000000
      g-3     :     0.000000
      g+4     :     0.000000
      g-4     :    -0.000000
      h0      :     0.000000  h :     0.000000
      h+1     :     0.000000
      h-1     :    -0.000000
      h+2     :     0.000000
      h-2     :    -0.000000
      h+3     :    -0.000000
      h-3     :     0.000000
      h+4     :    -0.000000
      h-4     :     0.000000
      h+5     :    -0.000000
      h-5     :    -0.000000
  2 S s       :     0.000000  s :     0.000000
      pz      :     0.000000  p :     0.000000
      px      :    -0.000000
      py      :    -0.000000
      dz2     :     0.000000  d :     0.000000
      dxz     :    -0.000000
      dyz     :    -0.000000
      dx2y2   :    -0.000000
      dxy     :    -0.000000
      f0      :    -0.000000  f :    -0.000000
      f+1     :    -0.000000
      f-1     :    -0.000000
      f+2     :     0.000000
      f-2     :    -0.000000
      f+3     :     0.000000
      f-3     :     0.000000
      g0      :    -0.000000  g :    -0.000000
      g+1     :    -0.000000
      g-1     :    -0.000000
      g+2     :     0.000000
      g-2     :     0.000000
      g+3     :    -0.000000
      g-3     :     0.000000
      g+4     :     0.000000
      g-4     :    -0.000000
      h0      :    -0.000000  h :    -0.000000
      h+1     :    -0.000000
      h-1     :    -0.000000
      h+2     :    -0.000000
      h-2     :    -0.000000
      h+3     :    -0.000000
      h-3     :    -0.000000
      h+4     :     0.000000
      h-4     :     0.000000
      h+5     :    -0.000000
      h-5     :    -0.000000


                     *******************************
                     * LOEWDIN POPULATION ANALYSIS *
                     *******************************

-------------------------------------------
LOEWDIN ATOMIC CHARGES AND SPIN POPULATIONS
-------------------------------------------
   0 C :   -1.071213   -0.000000
   1 O :   -0.014573   -0.000000
   2 S :    1.085786    0.000000

----------------------------------------------------
LOEWDIN REDUCED ORBITAL CHARGES AND SPIN POPULATIONS
----------------------------------------------------
CHARGE
  0 C s       :     2.735826  s :     2.735826
      pz      :     1.234550  p :     2.643550
      px      :     0.704500
      py      :     0.704500
      dz2     :     0.411708  d :     1.235668
      dxz     :     0.411980
      dyz     :     0.411980
      dx2y2   :     0.000000
      dxy     :     0.000000
      f0      :     0.134237  f :     0.296153
      f+1     :     0.080958
      f-1     :     0.080958
      f+2     :     0.000000
      f-2     :     0.000000
      f+3     :     0.000000
      f-3     :     0.000000
      g0      :     0.033060  g :     0.128296
      g+1     :     0.047618
      g-1     :     0.047618
      g+2     :     0.000000
      g-2     :     0.000000
      g+3     :     0.000000
      g-3     :     0.000000
      g+4     :     0.000000
      g-4     :     0.000000
      h0      :     0.011593  h :     0.031721
      h+1     :     0.010064
      h-1     :     0.010064
      h+2     :     0.000000
      h-2     :     0.000000
      h+3     :     0.000000
      h-3     :     0.000000
      h+4     :     0.000000
      h-4     :     0.000000
      h+5     :     0.000000
      h-5     :     0.000000
  1 O s       :     3.188971  s :     3.188971
      pz      :     1.545586  p :     4.027013
      px      :     1.240713
      py      :     1.240713
      dz2     :     0.148542  d :     0.339944
      dxz     :     0.095701
      dyz     :     0.095701
      dx2y2   :     0.000000
      dxy     :     0.000000
      f0      :     0.074387  f :     0.218219
      f+1     :     0.071916
      f-1     :     0.071916
      f+2     :     0.000000
      f-2     :     0.000000
      f+3     :     0.000000
      f-3     :     0.000000
      g0      :     0.044345  g :     0.152444
      g+1     :     0.054049
      g-1     :     0.054049
      g+2     :     0.000000
      g-2     :     0.000000
      g+3     :     0.000000
      g-3     :     0.000000
      g+4     :     0.000000
      g-4     :     0.000000
      h0      :     0.021230  h :     0.087983
      h+1     :     0.033376
      h-1     :     0.033376
      h+2     :     0.000000
      h-2     :     0.000000
      h+3     :     0.000000
      h-3     :     0.000000
      h+4     :     0.000000
      h-4     :     0.000000
      h+5     :     0.000000
      h-5     :     0.000000
  2 S s       :     5.089238  s :     5.089238
      pz      :     3.054626  p :     9.266840
      px      :     3.106107
      py      :     3.106107
      dz2     :     0.145412  d :     0.244049
      dxz     :     0.049318
      dyz     :     0.049318
      dx2y2   :     0.000000
      dxy     :     0.000000
      f0      :     0.055909  f :     0.127934
      f+1     :     0.036013
      f-1     :     0.036013
      f+2     :     0.000000
      f-2     :     0.000000
      f+3     :     0.000000
      f-3     :     0.000000
      g0      :     0.040878  g :     0.105826
      g+1     :     0.032474
      g-1     :     0.032474
      g+2     :     0.000000
      g-2     :     0.000000
      g+3     :     0.000000
      g-3     :     0.000000
      g+4     :     0.000000
      g-4     :     0.000000
      h0      :     0.029902  h :     0.080326
      h+1     :     0.025212
      h-1     :     0.025212
      h+2     :     0.000000
      h-2     :     0.000000
      h+3     :     0.000000
      h-3     :     0.000000
      h+4     :     0.000000
      h-4     :     0.000000
      h+5     :     0.000000
      h-5     :     0.000000

SPIN
  0 C s       :    -0.000000  s :    -0.000000
      pz      :    -0.000000  p :    -0.000000
      px      :     0.000000
      py      :    -0.000000
      dz2     :     0.000000  d :     0.000000
      dxz     :    -0.000000
      dyz     :    -0.000000
      dx2y2   :     0.000000
      dxy     :     0.000000
      f0      :    -0.000000  f :    -0.000000
      f+1     :     0.000000
      f-1     :    -0.000000
      f+2     :     0.000000
      f-2     :    -0.000000
      f+3     :    -0.000000
      f-3     :     0.000000
      g0      :     0.000000  g :     0.000000
      g+1     :     0.000000
      g-1     :     0.000000
      g+2     :    -0.000000
      g-2     :    -0.000000
      g+3     :     0.000000
      g-3     :     0.000000
      g+4     :    -0.000000
      g-4     :    -0.000000
      h0      :     0.000000  h :     0.000000
      h+1     :     0.000000
      h-1     :    -0.000000
      h+2     :    -0.000000
      h-2     :     0.000000
      h+3     :    -0.000000
      h-3     :     0.000000
      h+4     :     0.000000
      h-4     :     0.000000
      h+5     :     0.000000
      h-5     :    -0.000000
  1 O s       :    -0.000000  s :    -0.000000
      pz      :     0.000000  p :     0.000000
      px      :     0.000000
      py      :     0.000000
      dz2     :    -0.000000  d :    -0.000000
      dxz     :     0.000000
      dyz     :     0.000000
      dx2y2   :    -0.000000
      dxy     :    -0.000000
      f0      :     0.000000  f :     0.000000
      f+1     :    -0.000000
      f-1     :     0.000000
      f+2     :    -0.000000
      f-2     :    -0.000000
      f+3     :     0.000000
      f-3     :    -0.000000
      g0      :    -0.000000  g :    -0.000000
      g+1     :    -0.000000
      g-1     :     0.000000
      g+2     :     0.000000
      g-2     :    -0.000000
      g+3     :    -0.000000
      g-3     :    -0.000000
      g+4     :     0.000000
      g-4     :    -0.000000
      h0      :     0.000000  h :     0.000000
      h+1     :     0.000000
      h-1     :    -0.000000
      h+2     :    -0.000000
      h-2     :    -0.000000
      h+3     :    -0.000000
      h-3     :     0.000000
      h+4     :    -0.000000
      h-4     :     0.000000
      h+5     :    -0.000000
      h-5     :    -0.000000
  2 S s       :     0.000000  s :     0.000000
      pz      :    -0.000000  p :     0.000000
      px      :     0.000000
      py      :     0.000000
      dz2     :    -0.000000  d :    -0.000000
      dxz     :    -0.000000
      dyz     :    -0.000000
      dx2y2   :    -0.000000
      dxy     :    -0.000000
      f0      :    -0.000000  f :    -0.000000
      f+1     :    -0.000000
      f-1     :     0.000000
      f+2     :     0.000000
      f-2     :    -0.000000
      f+3     :    -0.000000
      f-3     :     0.000000
      g0      :    -0.000000  g :    -0.000000
      g+1     :     0.000000
      g-1     :     0.000000
      g+2     :     0.000000
      g-2     :     0.000000
      g+3     :    -0.000000
      g-3     :     0.000000
      g+4     :     0.000000
      g-4     :    -0.000000
      h0      :     0.000000  h :     0.000000
      h+1     :    -0.000000
      h-1     :    -0.000000
      h+2     :     0.000000
      h-2     :     0.000000
      h+3     :    -0.000000
      h-3     :    -0.000000
      h+4     :     0.000000
      h-4     :     0.000000
      h+5     :    -0.000000
      h-5     :    -0.000000


                      *****************************
                      * MAYER POPULATION ANALYSIS *
                      *****************************

  NA   - Mulliken gross atomic population
  ZA   - Total nuclear charge
  QA   - Mulliken gross atomic charge
  VA   - Mayer's total valence
  BVA  - Mayer's bonded valence
  FA   - Mayer's free valence

  ATOM       NA         ZA         QA         VA         BVA        FA
  0 C      5.8271     6.0000     0.1729     4.0740     4.0740     0.0000
  1 O      8.0150     8.0000    -0.0150     2.2863     2.2863     0.0000
  2 S     16.1578    16.0000    -0.1578     2.2387     2.2387    -0.0000

  Mayer bond orders larger than 0.1
B(  0-C ,  1-O ) :   2.0608 B(  0-C ,  2-S ) :   2.0132 B(  1-O ,  2-S ) :   0.2255 


-------
TIMINGS
-------

Total SCF time: 0 days 0 hours 32 min 27 sec 

Total time                  ....    1947.327 sec
Sum of individual times     ....    1946.206 sec  ( 99.9%)

Fock matrix formation       ....    1941.169 sec  ( 99.7%)
  XC integration            ....      22.190 sec  (  1.1% of F)
    Basis function eval.    ....       1.388 sec  (  6.3% of XC)
    Density eval.           ....       4.684 sec  ( 21.1% of XC)
    XC-Functional eval.     ....       0.194 sec  (  0.9% of XC)
    XC-Potential eval.      ....      14.355 sec  ( 64.7% of XC)
Diagonalization             ....       2.212 sec  (  0.1%)
Density matrix formation    ....       0.039 sec  (  0.0%)
Population analysis         ....       0.155 sec  (  0.0%)
Initial guess               ....       0.923 sec  (  0.0%)
Orbital Transformation      ....       0.000 sec  (  0.0%)
Orbital Orthonormalization  ....       0.000 sec  (  0.0%)
DIIS solution               ....       1.254 sec  (  0.1%)
Grid generation             ....       0.455 sec  (  0.0%)

-------------------------   --------------------
FINAL SINGLE POINT ENERGY      -511.339627940708
-------------------------   --------------------


                            ***************************************
                            *     ORCA property calculations      *
                            ***************************************

                                    ---------------------
                                    Active property flags
                                    ---------------------
   (+) Dipole Moment
   (+) Polarizability


------------------------------------------------------------------------------
                       ORCA ELECTRIC PROPERTIES CALCULATION
------------------------------------------------------------------------------

Dipole Moment Calculation                       ... on
Quadrupole Moment Calculation                   ... off
Polarizability Calculation                      ... Analytic (CP-SCF)
GBWName                                         ... cso_pbe.gbw
Electron density file                           ... cso_pbe.scfp.tmp
The origin for moment calculation is the CENTER OF MASS  = ( 0.000000,  0.000000 -0.989527)

-------------
DIPOLE MOMENT
-------------
                                X             Y             Z
Electronic contribution:     -0.00000       0.00000      -0.35504
Nuclear contribution   :      0.00000       0.00000       0.05490
                        -----------------------------------------
Total Dipole Moment    :     -0.00000       0.00000      -0.30014
                        -----------------------------------------
Magnitude (a.u.)       :      0.30014
Magnitude (Debye)      :      0.76290



--------------------
Rotational spectrum 
--------------------
 
Rotational constants in cm-1:     0.000000     0.202912     0.202912 
Rotational constants in MHz :     0.000000  6083.144754  6083.144754 

 Dipole components along the rotational axes: 
x,y,z [a.u.] :    -0.300143     0.000000    -0.000000 
x,y,z [Debye]:    -0.762902     0.000000    -0.000000 

 
Transforming and storing MO dipole integrals   ... done

                ... starting polarizability calculation

Opening the Dipole integral file               ... (cso_pbe.dmo.tmp) done
Reading Dipole-MO integrals                    ... done
Solving CP-SCF equations                       ... 

           ************************************************************
           *        Program running with 4 parallel MPI-processes     *
           *              working on a common directory               *
           ************************************************************

------------------------------------------------------------------------------
                           ORCA CP-SCF CALCULATION
------------------------------------------------------------------------------

Input orbitals are from        ... cso_pbe.gbw
Input Perturbation             ... cso_pbe.cpv.tmp
Wavefunction output            ... cso_pbe.cpu.tmp
Perturbation mode              ... Real perturbation (singlet)
Solver                         ... POPLE
Max. number of iterations      ... 200
Convergence tolerance          ... 1.000e-06
Integral handling              ... Direct
Number of perturbations        ... 3
Number of operators            ... 2
Orbital ranges used for CP-SCF:
 Operator 0:  Orbitals   0... 14  to  15...430
 Operator 1:  Orbitals   0... 14  to  15...430
DFT calculation                         ... on
Exchange functional (SCF)               ... PBE
Exchange functional (CP-SCF)            ... PBE
   PBE kappa parameter  XKappa (SCF)    ...  0.804000
   PBE kappa parameter  XKappa (CP-SCF) ...  0.804000
   PBE mue parameter   XMuePBE (SCF)    ...  0.219520
   PBE mue parameter   XMuePBE (CP-SCF) ...  0.219520
Correlation functional (SCF)            ... PBE
Correlation functional (CP-SCF)         ... PBE
   PBE beta parameter CBetaPBE (SCF)    ...  0.066725
   PBE beta parameter CBetaPBE (CP-SCF) ...  0.066725
 LDA part of GGA corr.  LDAOpt (SCF)    ... PW91-LDA
 LDA part of GGA corr.  LDAOpt (CP-SCF) ... PW91-LDA
Variables per vector in CP-SCF ... 12480
Number of vectors sought       ... 3
Recalculating density on grid  ... done
Calculating the xc-kernel      ... done
     CP-SCF ITERATION   0: 
     CP-SCF ITERATION   1:      1.813186532157
     CP-SCF ITERATION   2:      0.152886551353
     CP-SCF ITERATION   3:      0.004708169612
     CP-SCF ITERATION   4:      0.000219925509
     CP-SCF ITERATION   5:      0.000004025938
     CP-SCF ITERATION   6:      0.000000096019
done
Reading CP-SCF coefficients                    ... done
Doing the polarizability tensor   ... done
Cleaning up                                    ... done

-------------------------
THE POLARIZABILITY TENSOR
-------------------------

The raw cartesian tensor (atomic units):
   26.44942      0.00000     -0.00000  
    0.00000     26.44942      0.00000  
   -0.00000      0.00000     51.77982  
diagonalized tensor: 
   26.44942     26.44942     51.77982  

    0.77425      0.63288     -0.00000  
   -0.63288      0.77425      0.00000  
    0.00000     -0.00000      1.00000  

Isotropic polarizability :  34.89289


Timings for individual modules:

Sum of individual times         ...     3131.748 sec (=  52.196 min)
GTO integral calculation        ...        3.248 sec (=   0.054 min)   0.1 %
SCF iterations                  ...     1947.625 sec (=  32.460 min)  62.2 %
Solution of CP-SCF eqns.        ...     1180.876 sec (=  19.681 min)  37.7 %
                             ****ORCA TERMINATED NORMALLY****
TOTAL RUN TIME: 0 days 0 hours 52 minutes 12 seconds 679 msec
