
                                 *****************
                                 * O   R   C   A *
                                 *****************

           --- An Ab Initio, DFT and Semiempirical electronic structure package ---

                  #######################################################
                  #                        -***-                        #
                  #          Department of theory and spectroscopy      #
                  #               Directorship: Frank Neese             #
                  #        Max Planck Institute fuer Kohlenforschung    #
                  #                Kaiser Wilhelm Platz 1               #
                  #                 D-45470 Muelheim/Ruhr               #
                  #                      Germany                        #
                  #                                                     #
                  #                  All rights reserved                #
                  #                        -***-                        #
                  #######################################################


                         Program Version 4.1.2  - RELEASE  -


 With contributions from (in alphabetic order):
   Daniel Aravena         : Magnetic Properties
   Michael Atanasov       : Ab Initio Ligand Field Theory
   Alexander A. Auer      : GIAO ZORA
   Ute Becker             : Parallelization
   Giovanni Bistoni       : ED, Open-shell LED
   Martin Brehm           : Molecular dynamics
   Dmytro Bykov           : SCF Hessian
   Vijay G. Chilkuri      : MRCI spin determinant printing
   Dipayan Datta          : RHF DLPNO-CCSD density
   Achintya Kumar Dutta   : EOM-CC, STEOM-CC
   Dmitry Ganyushin       : Spin-Orbit,Spin-Spin,Magnetic field MRCI
   Miquel Garcia          : C-PCM Hessian
   Yang Guo               : DLPNO-NEVPT2, CIM, IAO-localization
   Andreas Hansen         : Spin unrestricted coupled pair/coupled cluster methods
   Benjamin Helmich-Paris : CASSCF linear response (MC-RPA)
   Lee Huntington         : MR-EOM, pCC
   Robert Izsak           : Overlap fitted RIJCOSX, COSX-SCS-MP3, EOM
   Christian Kollmar      : KDIIS, OOCD, Brueckner-CCSD(T), CCSD density
   Simone Kossmann        : Meta GGA functionals, TD-DFT gradient, OOMP2, MP2 Hessian
   Martin Krupicka        : AUTO-CI
   Lucas Lang             : DCDCAS
   Dagmar Lenk            : GEPOL surface, SMD
   Dimitrios Liakos       : Extrapolation schemes; parallel MDCI
   Dimitrios Manganas     : ROCIS; embedding schemes
   Dimitrios Pantazis     : SARC Basis sets
   Taras Petrenko         : DFT Hessian,TD-DFT gradient, ASA, ECA, R-Raman, ABS, FL, XAS/XES, NRVS
   Peter Pinski           : DLPNO-MP2, DLPNO-MP2 Gradient
   Christoph Reimann      : Effective Core Potentials
   Marius Retegan         : Local ZFS, SOC
   Christoph Riplinger    : Optimizer, TS searches, QM/MM, DLPNO-CCSD(T), (RO)-DLPNO pert. Triples
   Tobias Risthaus        : Range-separated hybrids, TD-DFT gradient, RPA, STAB
   Michael Roemelt        : Restricted open shell CIS
   Masaaki Saitow         : Open-shell DLPNO
   Barbara Sandhoefer     : DKH picture change effects
   Avijit Sen             : IP-ROCIS
   Kantharuban Sivalingam : CASSCF convergence, NEVPT2, FIC-MRCI
   Bernardo de Souza      : ESD, SOC TD-DFT
   Georgi Stoychev        : AutoAux, RI-MP2 NMR
   Willem Van den Heuvel  : Paramagnetic NMR
   Boris Wezisla          : Elementary symmetry handling
   Frank Wennmohs         : Technical directorship


 We gratefully acknowledge several colleagues who have allowed us to
 interface, adapt or use parts of their codes:
   Stefan Grimme, W. Hujo, H. Kruse,             : VdW corrections, initial TS optimization,
                  C. Bannwarth                     DFT functionals, gCP, sTDA/sTD-DF
   Ed Valeev                                     : LibInt (2-el integral package), F12 methods
   Garnet Chan, S. Sharma, J. Yang, R. Olivares  : DMRG
   Ulf Ekstrom                                   : XCFun DFT Library
   Mihaly Kallay                                 : mrcc  (arbitrary order and MRCC methods)
   Andreas Klamt, Michael Diedenhofen            : otool_cosmo (COSMO solvation model)
   Jiri Pittner, Ondrej Demel                    : Mk-CCSD
   Frank Weinhold                                : gennbo (NPA and NBO analysis)
   Christopher J. Cramer and Donald G. Truhlar   : smd solvation model
   Lars Goerigk                                  : TD-DFT with DH, B97 family of functionals
   V. Asgeirsson, H. Jonsson                     : NEB implementation
   FAccTs GmbH                                   : IRC, NEB, NEB-TS, Multilevel


 Your calculation uses the libint2 library for the computation of 2-el integrals
 For citations please refer to: http://libint.valeyev.net

 This ORCA versions uses:
   CBLAS   interface :  Fast vector & matrix operations
   LAPACKE interface :  Fast linear algebra routines
   SCALAPACK package :  Parallel linear algebra routines


----- Orbital basis set information -----
Your calculation utilizes the basis: aug-pc-4
   H, C-F              : F. Jensen, J. Chem. Phys. 115, 9113 (2001).
                         F. Jensen, J. Chem. Phys. 116, 7372 (2002).
                         F. Jensen, J. Chem. Phys. 117, 9234 (2002).
   Si-Cl               : F. Jensen, T. Helgaker, J. Chem. Phys. 121, 3463 (2004).
   He-B, Ne-Mg, Al, Ar : F. Jensen, J. Phys. Chem. A 111, 11198 (2007).
   K, Ca, Ga-Kr        : F. Jensen, J. Chem. Phys. 136, 094110 (2012).
   Sc-Zn               : F. Jensen, J. Chem. Phys. 138, 014107 (2013).

================================================================================
                                        WARNINGS
                       Please study these warnings very carefully!
================================================================================


INFO   : the flag for use of LIBINT has been found!

================================================================================
                                       INPUT FILE
================================================================================
NAME = f2_pbe.inp
|  1> !uks pbe nori aug-pc-4 grid5 nofinalgrid verytightscf
|  2> 
|  3> %maxcore 1500
|  4> 
|  5> %pal nprocs 4 end
|  6> 
|  7> %scf
|  8> 	maxiter 200
|  9> end
| 10> %elprop
| 11> 	dipole true
| 12> 	 polar 1
| 13> 	 maxiter 200
| 14> end
| 15> 
| 16> * xyz 0 1
| 17> F 0.0000 0.0000 0.0000
| 18> F 0.0000 0.0000 1.4119
| 19> *
| 20> 
| 21>                          ****END OF INPUT****
================================================================================

                       ****************************
                       * Single Point Calculation *
                       ****************************

---------------------------------
CARTESIAN COORDINATES (ANGSTROEM)
---------------------------------
  F      0.000000    0.000000    0.000000
  F      0.000000    0.000000    1.411900

----------------------------
CARTESIAN COORDINATES (A.U.)
----------------------------
  NO LB      ZA    FRAG     MASS         X           Y           Z
   0 F     9.0000    0    18.998    0.000000    0.000000    0.000000
   1 F     9.0000    0    18.998    0.000000    0.000000    2.668104

--------------------------------
INTERNAL COORDINATES (ANGSTROEM)
--------------------------------
 F      0   0   0     0.000000000000     0.00000000     0.00000000
 F      1   0   0     1.411900000000     0.00000000     0.00000000

---------------------------
INTERNAL COORDINATES (A.U.)
---------------------------
 F      0   0   0     0.000000000000     0.00000000     0.00000000
 F      1   0   0     2.668104328483     0.00000000     0.00000000

---------------------
BASIS SET INFORMATION
---------------------
There are 1 groups of distinct atoms

 Group   1 Type F   : 27s12p7d4f3g2h contracted to 9s8p7d4f3g2h pattern {1191111111/51111111/1111111/1111/111/11}

Atom   0F    basis set group =>   1
Atom   1F    basis set group =>   1


           ************************************************************
           *        Program running with 4 parallel MPI-processes     *
           *              working on a common directory               *
           ************************************************************
------------------------------------------------------------------------------
                           ORCA GTO INTEGRAL CALCULATION
------------------------------------------------------------------------------

                         BASIS SET STATISTICS AND STARTUP INFO

 # of primitive gaussian shells          ...  110
 # of primitive gaussian functions       ...  350
 # of contracted shells                  ...   66
 # of contracted basis functions         ...  290
 Highest angular momentum                ...    5
 Maximum contraction depth               ...   11
 Integral package used                   ... LIBINT
 Integral threshhold            Thresh   ...  1.000e-12
 Primitive cut-off              TCut     ...  1.000e-14


------------------------------ INTEGRAL EVALUATION ----------------------------


 * One electron integrals 
 Pre-screening matrix                    ... done
 Shell pair data                         ... done (   0.001 sec)



           ************************************************************
           *        Program running with 4 parallel MPI-processes     *
           *              working on a common directory               *
           ************************************************************
-------------------------------------------------------------------------------
                                 ORCA SCF
-------------------------------------------------------------------------------

------------
SCF SETTINGS
------------
Hamiltonian:
 Density Functional     Method          .... DFT(GTOs)
 Exchange Functional    Exchange        .... PBE
   PBE kappa parameter   XKappa         ....  0.804000
   PBE mue parameter    XMuePBE         ....  0.219520
 Correlation Functional Correlation     .... PBE
   PBE beta parameter  CBetaPBE         ....  0.066725
 LDA part of GGA corr.  LDAOpt          .... PW91-LDA
 Gradients option       PostSCFGGA      .... off
   Density functional embedding theory  .... OFF
   NL short-range parameter             ....  6.400000


General Settings:
 Integral files         IntName         .... f2_pbe
 Hartree-Fock type      HFTyp           .... UHF
 Total Charge           Charge          ....    0
 Multiplicity           Mult            ....    1
 Number of Electrons    NEL             ....   18
 Basis Dimension        Dim             ....  290
 Nuclear Repulsion      ENuc            ....     30.3586329572 Eh

Convergence Acceleration:
 DIIS                   CNVDIIS         .... on
   Start iteration      DIISMaxIt       ....    12
   Startup error        DIISStart       ....  0.200000
   # of expansion vecs  DIISMaxEq       ....     5
   Bias factor          DIISBfac        ....   1.050
   Max. coefficient     DIISMaxC        ....  10.000
 Newton-Raphson         CNVNR           .... off
 SOSCF                  CNVSOSCF        .... off
 Level Shifting         CNVShift        .... on
   Level shift para.    LevelShift      ....    0.2500
   Turn off err/grad.   ShiftErr        ....    0.0010
 Zerner damping         CNVZerner       .... off
 Static damping         CNVDamp         .... on
   Fraction old density DampFac         ....    0.7000
   Max. Damping (<1)    DampMax         ....    0.9800
   Min. Damping (>=0)   DampMin         ....    0.0000
   Turn off err/grad.   DampErr         ....    0.1000
 Fernandez-Rico         CNVRico         .... off

SCF Procedure:
 Maximum # iterations   MaxIter         ....   200
 SCF integral mode      SCFMode         .... Direct
   Integral package                     .... LIBINT
 Reset frequency        DirectResetFreq ....    20
 Integral Threshold     Thresh          ....  1.000e-12 Eh
 Primitive CutOff       TCut            ....  1.000e-14 Eh

Convergence Tolerance:
 Convergence Check Mode ConvCheckMode   .... Total+1el-Energy
 Convergence forced     ConvForced      .... 0
 Energy Change          TolE            ....  1.000e-09 Eh
 1-El. energy change                    ....  1.000e-06 Eh
 DIIS Error             TolErr          ....  1.000e-08


Diagonalization of the overlap matrix:
Smallest eigenvalue                        ... 8.209e-06
Time for diagonalization                   ...    0.015 sec
Threshold for overlap eigenvalues          ... 1.000e-08
Number of eigenvalues below threshold      ... 0
Time for construction of square roots      ...    0.011 sec
Total time needed                          ...    0.026 sec

-------------------
DFT GRID GENERATION
-------------------

General Integration Accuracy     IntAcc      ...  5.010
Radial Grid Type                 RadialGrid  ... Gauss-Chebyshev
Angular Grid (max. acc.)         AngularGrid ... Lebedev-434
Angular grid pruning method      GridPruning ... 3 (G Style)
Weight generation scheme         WeightScheme... Becke
Basis function cutoff            BFCut       ...    1.0000e-12
Integration weight cutoff        WCut        ...    1.0000e-14
Grids for H and He will be reduced by one unit

# of grid points (after initial pruning)     ...  21636 (   0.0 sec)
# of grid points (after weights+screening)   ...  21566 (   0.0 sec)
nearest neighbour list constructed           ...    0.0 sec
Grid point re-assignment to atoms done       ...    0.0 sec
Grid point division into batches done        ...    0.2 sec
Reduced shell lists constructed in    0.2 sec

Total number of grid points                  ...    21566
Total number of batches                      ...      338
Average number of points per batch           ...       63
Average number of grid points per atom       ...    10783
Average number of shells per batch           ...    36.53 (55.36%)
Average number of basis functions per batch  ...   172.30 (59.41%)
Average number of large shells per batch     ...    30.78 (84.25%)
Average number of large basis fcns per batch ...   145.01 (84.16%)
Maximum spatial batch extension              ...  16.29, 16.29, 14.13 au
Average spatial batch extension              ...   1.32,  1.31,  1.16 au

Time for grid setup =    0.245 sec

------------------------------
INITIAL GUESS: MODEL POTENTIAL
------------------------------
Loading Hartree-Fock densities                     ... done
Calculating cut-offs                               ... done
Setting up the integral package                    ... done
Initializing the effective Hamiltonian             ... done
Starting the Coulomb interaction                   ... done (   0.0 sec)
Reading the grid                                   ... done
Mapping shells                                     ... done
Starting the XC term evaluation                    ... done (   0.2 sec)
  promolecular density results
     # of electrons  =     18.000000355
     EX              =    -19.908986526
     EC              =     -0.617949334
     EX+EC           =    -20.526935860
Transforming the Hamiltonian                       ... done (   0.0 sec)
Diagonalizing the Hamiltonian                      ... done (   0.0 sec)
Back transforming the eigenvectors                 ... done (   0.0 sec)
Now organizing SCF variables                       ... done
                      ------------------
                      INITIAL GUESS DONE (   0.6 sec)
                      ------------------
--------------
SCF ITERATIONS
--------------
ITER       Energy         Delta-E        Max-DP      RMS-DP      [F,P]     Damp
               ***  Starting incremental Fock matrix formation  ***
  0   -199.4282061766   0.000000000000 0.00187470  0.00002915  0.0693301 0.7000
  1   -199.4315622196  -0.003356043012 0.00127186  0.00002030  0.0454027 0.7000
                               ***Turning on DIIS***
  2   -199.4332808892  -0.001718669522 0.00226391  0.00003758  0.0307092 0.0000
  3   -199.4362895877  -0.003008698549 0.00090341  0.00001576  0.0143569 0.0000
  4   -199.4366144523  -0.000324864619 0.00020235  0.00000342  0.0024859 0.0000
  5   -199.4366222133  -0.000007761028 0.00006855  0.00000126  0.0008675 0.0000
  6   -199.4366230823  -0.000000868990 0.00002217  0.00000034  0.0003056 0.0000
  7   -199.4366231946  -0.000000112272 0.00000251  0.00000005  0.0000347 0.0000
  8   -199.4366231964  -0.000000001829 0.00000031  0.00000000  0.0000038 0.0000
  9   -199.4366231965  -0.000000000025 0.00000010  0.00000000  0.0000002 0.0000
                 **** Energy Check signals convergence ****

               *****************************************************
               *                     SUCCESS                       *
               *           SCF CONVERGED AFTER  10 CYCLES          *
               *****************************************************


----------------
TOTAL SCF ENERGY
----------------

Total Energy       :         -199.43662320 Eh           -5426.94642 eV

Components:
Nuclear Repulsion  :           30.35863296 Eh             826.10040 eV
Electronic Energy  :         -229.79525615 Eh           -6253.04682 eV
One Electron Energy:         -338.53172958 Eh           -9211.91669 eV
Two Electron Energy:          108.73647343 Eh            2958.86987 eV

Virial components:
Potential Energy   :         -398.34399628 Eh          -10839.49121 eV
Kinetic Energy     :          198.90737308 Eh            5412.54479 eV
Virial Ratio       :            2.00266079


DFT components:
N(Alpha)           :        8.999999277210 electrons
N(Beta)            :        8.999999277210 electrons
N(Total)           :       17.999998554420 electrons
E(X)               :      -19.951579147226 Eh       
E(C)               :       -0.612472323428 Eh       
E(XC)              :      -20.564051470654 Eh       
DFET-embed. en.    :        0.000000000000 Eh       

---------------
SCF CONVERGENCE
---------------

  Last Energy change         ...    2.8706e-12  Tolerance :   1.0000e-09
  Last MAX-Density change    ...    9.2575e-07  Tolerance :   1.0000e-08
  Last RMS-Density change    ...    1.0182e-08  Tolerance :   1.0000e-09
  Last DIIS Error            ...    1.1712e-08  Tolerance :   1.0000e-08

             **** THE GBW FILE WAS UPDATED (f2_pbe.gbw) ****
             **** DENSITY FILE WAS UPDATED (f2_pbe.scfp.tmp) ****
             **** ENERGY FILE WAS UPDATED (f2_pbe.en.tmp) ****
----------------------
UHF SPIN CONTAMINATION
----------------------

Warning: in a DFT calculation there is little theoretical justification to 
         calculate <S**2> as in Hartree-Fock theory. We will do it anyways
         but you should keep in mind that the values have only limited relevance

Expectation value of <S**2>     :    -0.000000
Ideal value S*(S+1) for S=0.0   :     0.000000
Deviation                       :    -0.000000

----------------
ORBITAL ENERGIES
----------------
                 SPIN UP ORBITALS
  NO   OCC          E(Eh)            E(eV) 
   0   1.0000     -24.363484      -662.9641 
   1   1.0000     -24.363483      -662.9641 
   2   1.0000      -1.247300       -33.9408 
   3   1.0000      -1.015393       -27.6303 
   4   1.0000      -0.567141       -15.4327 
   5   1.0000      -0.472141       -12.8476 
   6   1.0000      -0.472141       -12.8476 
   7   1.0000      -0.347410        -9.4535 
   8   1.0000      -0.347410        -9.4535 
   9   0.0000      -0.213237        -5.8025 
  10   0.0000       0.022099         0.6014 
  11   0.0000       0.033241         0.9045 
  12   0.0000       0.042401         1.1538 
  13   0.0000       0.042401         1.1538 
  14   0.0000       0.079090         2.1521 
  15   0.0000       0.079564         2.1650 
  16   0.0000       0.079564         2.1650 
  17   0.0000       0.142139         3.8678 
  18   0.0000       0.202208         5.5024 
  19   0.0000       0.202208         5.5024 
  20   0.0000       0.202601         5.5130 
  21   0.0000       0.202601         5.5130 
  22   0.0000       0.243356         6.6221 
  23   0.0000       0.243927         6.6376 
  24   0.0000       0.243927         6.6376 
  25   0.0000       0.248493         6.7619 
  26   0.0000       0.264228         7.1900 
  27   0.0000       0.264228         7.1900 
  28   0.0000       0.274071         7.4578 
  29   0.0000       0.274071         7.4578 
  30   0.0000       0.348025         9.4702 
  31   0.0000       0.384311        10.4576 
  32   0.0000       0.384434        10.4610 
  33   0.0000       0.384434        10.4610 
  34   0.0000       0.436569        11.8796 
  35   0.0000       0.436569        11.8796 
  36   0.0000       0.489745        13.3266 
  37   0.0000       0.489745        13.3266 
  38   0.0000       0.520116        14.1531 
  39   0.0000       0.555369        15.1124 
  40   0.0000       0.555370        15.1124 
  41   0.0000       0.560611        15.2550 
  42   0.0000       0.560611        15.2550 
  43   0.0000       0.574296        15.6274 
  44   0.0000       0.606360        16.4999 
  45   0.0000       0.606360        16.4999 
  46   0.0000       0.648299        17.6411 
  47   0.0000       0.648299        17.6411 
  48   0.0000       0.700638        19.0653 
  49   0.0000       0.700638        19.0653 
  50   0.0000       0.711185        19.3523 
  51   0.0000       0.711185        19.3523 
  52   0.0000       0.737772        20.0758 
  53   0.0000       0.748292        20.3621 
  54   0.0000       0.752971        20.4894 
  55   0.0000       0.752971        20.4894 
  56   0.0000       0.806889        21.9566 
  57   0.0000       0.806889        21.9566 
  58   0.0000       0.809687        22.0327 
  59   0.0000       0.831026        22.6134 
  60   0.0000       0.831026        22.6134 
  61   0.0000       0.885020        24.0826 
  62   0.0000       0.885020        24.0826 
  63   0.0000       0.886948        24.1351 
  64   0.0000       0.914520        24.8854 
  65   0.0000       0.914520        24.8854 
  66   0.0000       0.918976        25.0066 
  67   0.0000       0.918976        25.0066 
  68   0.0000       1.039440        28.2846 
  69   0.0000       1.039440        28.2846 
  70   0.0000       1.053653        28.6714 
  71   0.0000       1.053653        28.6714 
  72   0.0000       1.087586        29.5947 
  73   0.0000       1.103906        30.0388 
  74   0.0000       1.103906        30.0388 
  75   0.0000       1.126218        30.6460 
  76   0.0000       1.126218        30.6460 
  77   0.0000       1.153115        31.3779 
  78   0.0000       1.153115        31.3779 
  79   0.0000       1.199800        32.6482 
  80   0.0000       1.232286        33.5322 
  81   0.0000       1.232286        33.5322 
  82   0.0000       1.234344        33.5882 
  83   0.0000       1.234344        33.5882 
  84   0.0000       1.287914        35.0459 
  85   0.0000       1.287914        35.0459 
  86   0.0000       1.292787        35.1785 
  87   0.0000       1.292788        35.1785 
  88   0.0000       1.309024        35.6203 
  89   0.0000       1.309024        35.6203 
  90   0.0000       1.361259        37.0417 
  91   0.0000       1.361259        37.0417 
  92   0.0000       1.433974        39.0204 
  93   0.0000       1.451884        39.5078 
  94   0.0000       1.492031        40.6002 
  95   0.0000       1.492031        40.6002 
  96   0.0000       1.494441        40.6658 
  97   0.0000       1.494443        40.6659 
  98   0.0000       1.507542        41.0223 
  99   0.0000       1.507543        41.0223 
 100   0.0000       1.511029        41.1172 
 101   0.0000       1.511031        41.1172 
 102   0.0000       1.661351        45.2077 
 103   0.0000       1.688691        45.9516 
 104   0.0000       1.760113        47.8951 
 105   0.0000       1.760113        47.8951 
 106   0.0000       1.867506        50.8174 
 107   0.0000       1.943115        52.8749 
 108   0.0000       1.943115        52.8749 
 109   0.0000       2.011193        54.7273 
 110   0.0000       2.011193        54.7274 
 111   0.0000       2.029097        55.2145 
 112   0.0000       2.184951        59.4555 
 113   0.0000       2.184951        59.4555 
 114   0.0000       2.201914        59.9171 
 115   0.0000       2.232439        60.7478 
 116   0.0000       2.232439        60.7478 
 117   0.0000       2.301668        62.6316 
 118   0.0000       2.301671        62.6317 
 119   0.0000       2.330187        63.4076 
 120   0.0000       2.420528        65.8659 
 121   0.0000       2.420528        65.8659 
 122   0.0000       2.424219        65.9663 
 123   0.0000       2.424219        65.9663 
 124   0.0000       2.445385        66.5423 
 125   0.0000       2.672436        72.7207 
 126   0.0000       2.672436        72.7207 
 127   0.0000       2.763961        75.2112 
 128   0.0000       2.763961        75.2112 
 129   0.0000       2.831237        77.0419 
 130   0.0000       2.831237        77.0419 
 131   0.0000       2.911971        79.2387 
 132   0.0000       2.911976        79.2389 
 133   0.0000       3.174553        86.3840 
 134   0.0000       3.302425        89.8636 
 135   0.0000       3.516277        95.6828 
 136   0.0000       3.516277        95.6828 
 137   0.0000       4.339543       118.0850 
 138   0.0000       5.056900       137.6052 
 139   0.0000       5.102642       138.8499 
 140   0.0000       5.102642       138.8499 
 141   0.0000       5.125819       139.4806 
 142   0.0000       5.125829       139.4809 
 143   0.0000       5.181455       140.9946 
 144   0.0000       5.295635       144.1015 
 145   0.0000       5.295635       144.1015 
 146   0.0000       5.339618       145.2984 
 147   0.0000       5.339626       145.2986 
 148   0.0000       5.359345       145.8352 
 149   0.0000       5.475132       148.9859 
 150   0.0000       5.475132       148.9859 
 151   0.0000       5.588543       152.0720 
 152   0.0000       5.820975       158.3968 
 153   0.0000       5.820979       158.3969 
 154   0.0000       5.840021       158.9150 
 155   0.0000       5.840021       158.9150 
 156   0.0000       5.894524       160.3981 
 157   0.0000       5.908198       160.7702 
 158   0.0000       5.908198       160.7702 
 159   0.0000       6.155100       167.4888 
 160   0.0000       6.155100       167.4888 
 161   0.0000       6.328729       172.2135 
 162   0.0000       6.328729       172.2135 
 163   0.0000       6.383579       173.7060 
 164   0.0000       6.383593       173.7064 
 165   0.0000       6.416604       174.6047 
 166   0.0000       6.670171       181.5046 
 167   0.0000       6.670182       181.5049 
 168   0.0000       6.683958       181.8797 
 169   0.0000       6.792353       184.8293 
 170   0.0000       6.792353       184.8293 
 171   0.0000       6.863852       186.7749 
 172   0.0000       6.863852       186.7749 
 173   0.0000       7.039619       191.5578 
 174   0.0000       7.039719       191.5605 
 175   0.0000       7.107862       193.4148 
 176   0.0000       7.107960       193.4174 
 177   0.0000       7.373980       200.6562 
 178   0.0000       7.373980       200.6562 
 179   0.0000       7.411356       201.6732 
 180   0.0000       7.582681       206.3352 
 181   0.0000       7.582681       206.3352 
 182   0.0000       8.198286       223.0867 
 183   0.0000       8.198305       223.0872 
 184   0.0000       9.092850       247.4290 
 185   0.0000       9.532254       259.3858 
 186   0.0000       9.532254       259.3858 
 187   0.0000      10.354965       281.7729 
 188   0.0000      11.771364       320.3151 
 189   0.0000      11.771364       320.3151 
 190   0.0000      11.880901       323.2958 
 191   0.0000      11.965666       325.6023 
 192   0.0000      11.965679       325.6027 
 193   0.0000      12.156593       330.7977 
 194   0.0000      12.156657       330.7995 
 195   0.0000      12.234937       332.9296 
 196   0.0000      12.234937       332.9296 
 197   0.0000      12.243051       333.1503 
 198   0.0000      12.243051       333.1503 
 199   0.0000      12.272728       333.9579 
 200   0.0000      12.272778       333.9593 
 201   0.0000      12.531860       341.0092 
 202   0.0000      12.531896       341.0102 
 203   0.0000      12.635170       343.8205 
 204   0.0000      12.635170       343.8205 
 205   0.0000      12.649844       344.2197 
 206   0.0000      12.649844       344.2197 
 207   0.0000      12.712269       345.9184 
 208   0.0000      12.712308       345.9195 
 209   0.0000      12.777933       347.7052 
 210   0.0000      12.803050       348.3887 
 211   0.0000      12.803050       348.3887 
 212   0.0000      13.012707       354.0938 
 213   0.0000      13.060926       355.4059 
 214   0.0000      13.060926       355.4059 
 215   0.0000      13.760817       374.4509 
 216   0.0000      13.760826       374.4511 
 217   0.0000      13.879733       377.6867 
 218   0.0000      13.879733       377.6867 
 219   0.0000      14.068043       382.8109 
 220   0.0000      14.068043       382.8109 
 221   0.0000      14.150531       385.0555 
 222   0.0000      14.150992       385.0681 
 223   0.0000      14.529358       395.3639 
 224   0.0000      14.529358       395.3639 
 225   0.0000      14.714274       400.3957 
 226   0.0000      14.811839       403.0506 
 227   0.0000      14.811857       403.0511 
 228   0.0000      14.939453       406.5232 
 229   0.0000      14.945044       406.6753 
 230   0.0000      14.945044       406.6753 
 231   0.0000      14.953218       406.8978 
 232   0.0000      14.953218       406.8978 
 233   0.0000      15.100153       410.8960 
 234   0.0000      15.100153       410.8960 
 235   0.0000      15.277365       415.7182 
 236   0.0000      15.303882       416.4398 
 237   0.0000      15.303898       416.4402 
 238   0.0000      15.766444       429.0268 
 239   0.0000      16.685777       454.0431 
 240   0.0000      16.685777       454.0431 
 241   0.0000      18.789859       511.2981 
 242   0.0000      19.865263       540.5613 
 243   0.0000      19.865300       540.5623 
 244   0.0000      19.894953       541.3692 
 245   0.0000      19.894953       541.3692 
 246   0.0000      20.025567       544.9234 
 247   0.0000      20.025586       544.9239 
 248   0.0000      20.065963       546.0226 
 249   0.0000      20.065985       546.0232 
 250   0.0000      20.223567       550.3112 
 251   0.0000      20.223567       550.3112 
 252   0.0000      20.512299       558.1680 
 253   0.0000      20.512299       558.1680 
 254   0.0000      20.898969       568.6899 
 255   0.0000      20.899035       568.6916 
 256   0.0000      21.957346       597.4898 
 257   0.0000      22.293041       606.6245 
 258   0.0000      22.293041       606.6245 
 259   0.0000      22.936194       624.1256 
 260   0.0000      30.224940       822.4624 
 261   0.0000      30.224958       822.4629 
 262   0.0000      30.323003       825.1309 
 263   0.0000      30.323003       825.1309 
 264   0.0000      30.369644       826.4000 
 265   0.0000      30.369665       826.4006 
 266   0.0000      30.437553       828.2479 
 267   0.0000      30.516758       830.4032 
 268   0.0000      30.516758       830.4032 
 269   0.0000      32.003361       870.8557 
 270   0.0000      41.290633      1123.5752 
 271   0.0000      41.290633      1123.5752 
 272   0.0000      41.439459      1127.6250 
 273   0.0000      41.578184      1131.3999 
 274   0.0000      41.578184      1131.3999 
 275   0.0000      41.968764      1142.0281 
 276   0.0000      41.977764      1142.2730 
 277   0.0000      43.960946      1196.2382 
 278   0.0000      91.163330      2480.6803 
 279   0.0000      91.163345      2480.6807 
 280   0.0000      91.218361      2482.1778 
 281   0.0000      91.218361      2482.1778 
 282   0.0000      91.257943      2483.2549 
 283   0.0000      91.257958      2483.2553 
 284   0.0000      91.299642      2484.3896 
 285   0.0000      91.335227      2485.3579 
 286   0.0000      91.335227      2485.3579 
 287   0.0000      92.292641      2511.4104 
 288   0.0000     200.738973      5462.3851 
 289   0.0000     201.957875      5495.5532 

                 SPIN DOWN ORBITALS
  NO   OCC          E(Eh)            E(eV) 
   0   1.0000     -24.363484      -662.9641 
   1   1.0000     -24.363483      -662.9641 
   2   1.0000      -1.247300       -33.9408 
   3   1.0000      -1.015393       -27.6303 
   4   1.0000      -0.567141       -15.4327 
   5   1.0000      -0.472141       -12.8476 
   6   1.0000      -0.472141       -12.8476 
   7   1.0000      -0.347410        -9.4535 
   8   1.0000      -0.347410        -9.4535 
   9   0.0000      -0.213237        -5.8025 
  10   0.0000       0.022099         0.6014 
  11   0.0000       0.033241         0.9045 
  12   0.0000       0.042401         1.1538 
  13   0.0000       0.042401         1.1538 
  14   0.0000       0.079090         2.1521 
  15   0.0000       0.079564         2.1650 
  16   0.0000       0.079564         2.1650 
  17   0.0000       0.142139         3.8678 
  18   0.0000       0.202208         5.5024 
  19   0.0000       0.202208         5.5024 
  20   0.0000       0.202601         5.5130 
  21   0.0000       0.202601         5.5130 
  22   0.0000       0.243356         6.6221 
  23   0.0000       0.243927         6.6376 
  24   0.0000       0.243927         6.6376 
  25   0.0000       0.248493         6.7619 
  26   0.0000       0.264228         7.1900 
  27   0.0000       0.264228         7.1900 
  28   0.0000       0.274071         7.4578 
  29   0.0000       0.274071         7.4578 
  30   0.0000       0.348025         9.4702 
  31   0.0000       0.384311        10.4576 
  32   0.0000       0.384434        10.4610 
  33   0.0000       0.384434        10.4610 
  34   0.0000       0.436569        11.8796 
  35   0.0000       0.436569        11.8796 
  36   0.0000       0.489745        13.3266 
  37   0.0000       0.489745        13.3266 
  38   0.0000       0.520116        14.1531 
  39   0.0000       0.555369        15.1124 
  40   0.0000       0.555370        15.1124 
  41   0.0000       0.560611        15.2550 
  42   0.0000       0.560611        15.2550 
  43   0.0000       0.574296        15.6274 
  44   0.0000       0.606360        16.4999 
  45   0.0000       0.606360        16.4999 
  46   0.0000       0.648299        17.6411 
  47   0.0000       0.648299        17.6411 
  48   0.0000       0.700638        19.0653 
  49   0.0000       0.700638        19.0653 
  50   0.0000       0.711185        19.3523 
  51   0.0000       0.711185        19.3523 
  52   0.0000       0.737772        20.0758 
  53   0.0000       0.748292        20.3621 
  54   0.0000       0.752971        20.4894 
  55   0.0000       0.752971        20.4894 
  56   0.0000       0.806889        21.9566 
  57   0.0000       0.806889        21.9566 
  58   0.0000       0.809687        22.0327 
  59   0.0000       0.831026        22.6134 
  60   0.0000       0.831026        22.6134 
  61   0.0000       0.885020        24.0826 
  62   0.0000       0.885020        24.0826 
  63   0.0000       0.886948        24.1351 
  64   0.0000       0.914520        24.8854 
  65   0.0000       0.914520        24.8854 
  66   0.0000       0.918976        25.0066 
  67   0.0000       0.918976        25.0066 
  68   0.0000       1.039440        28.2846 
  69   0.0000       1.039440        28.2846 
  70   0.0000       1.053653        28.6714 
  71   0.0000       1.053653        28.6714 
  72   0.0000       1.087586        29.5947 
  73   0.0000       1.103906        30.0388 
  74   0.0000       1.103906        30.0388 
  75   0.0000       1.126218        30.6460 
  76   0.0000       1.126218        30.6460 
  77   0.0000       1.153115        31.3779 
  78   0.0000       1.153115        31.3779 
  79   0.0000       1.199800        32.6482 
  80   0.0000       1.232286        33.5322 
  81   0.0000       1.232286        33.5322 
  82   0.0000       1.234344        33.5882 
  83   0.0000       1.234344        33.5882 
  84   0.0000       1.287914        35.0459 
  85   0.0000       1.287914        35.0459 
  86   0.0000       1.292787        35.1785 
  87   0.0000       1.292788        35.1785 
  88   0.0000       1.309024        35.6203 
  89   0.0000       1.309024        35.6203 
  90   0.0000       1.361259        37.0417 
  91   0.0000       1.361259        37.0417 
  92   0.0000       1.433974        39.0204 
  93   0.0000       1.451884        39.5078 
  94   0.0000       1.492031        40.6002 
  95   0.0000       1.492031        40.6002 
  96   0.0000       1.494441        40.6658 
  97   0.0000       1.494443        40.6659 
  98   0.0000       1.507542        41.0223 
  99   0.0000       1.507543        41.0223 
 100   0.0000       1.511029        41.1172 
 101   0.0000       1.511031        41.1172 
 102   0.0000       1.661351        45.2077 
 103   0.0000       1.688691        45.9516 
 104   0.0000       1.760113        47.8951 
 105   0.0000       1.760113        47.8951 
 106   0.0000       1.867506        50.8174 
 107   0.0000       1.943115        52.8749 
 108   0.0000       1.943115        52.8749 
 109   0.0000       2.011193        54.7273 
 110   0.0000       2.011193        54.7274 
 111   0.0000       2.029097        55.2145 
 112   0.0000       2.184951        59.4555 
 113   0.0000       2.184951        59.4555 
 114   0.0000       2.201914        59.9171 
 115   0.0000       2.232439        60.7478 
 116   0.0000       2.232439        60.7478 
 117   0.0000       2.301668        62.6316 
 118   0.0000       2.301671        62.6317 
 119   0.0000       2.330187        63.4076 
 120   0.0000       2.420528        65.8659 
 121   0.0000       2.420528        65.8659 
 122   0.0000       2.424219        65.9663 
 123   0.0000       2.424219        65.9663 
 124   0.0000       2.445385        66.5423 
 125   0.0000       2.672436        72.7207 
 126   0.0000       2.672436        72.7207 
 127   0.0000       2.763961        75.2112 
 128   0.0000       2.763961        75.2112 
 129   0.0000       2.831237        77.0419 
 130   0.0000       2.831237        77.0419 
 131   0.0000       2.911971        79.2387 
 132   0.0000       2.911976        79.2389 
 133   0.0000       3.174553        86.3840 
 134   0.0000       3.302425        89.8636 
 135   0.0000       3.516277        95.6828 
 136   0.0000       3.516277        95.6828 
 137   0.0000       4.339543       118.0850 
 138   0.0000       5.056900       137.6052 
 139   0.0000       5.102642       138.8499 
 140   0.0000       5.102642       138.8499 
 141   0.0000       5.125819       139.4806 
 142   0.0000       5.125829       139.4809 
 143   0.0000       5.181455       140.9946 
 144   0.0000       5.295635       144.1015 
 145   0.0000       5.295635       144.1015 
 146   0.0000       5.339618       145.2984 
 147   0.0000       5.339626       145.2986 
 148   0.0000       5.359345       145.8352 
 149   0.0000       5.475132       148.9859 
 150   0.0000       5.475132       148.9859 
 151   0.0000       5.588543       152.0720 
 152   0.0000       5.820975       158.3968 
 153   0.0000       5.820979       158.3969 
 154   0.0000       5.840021       158.9150 
 155   0.0000       5.840021       158.9150 
 156   0.0000       5.894524       160.3981 
 157   0.0000       5.908198       160.7702 
 158   0.0000       5.908198       160.7702 
 159   0.0000       6.155100       167.4888 
 160   0.0000       6.155100       167.4888 
 161   0.0000       6.328729       172.2135 
 162   0.0000       6.328729       172.2135 
 163   0.0000       6.383579       173.7060 
 164   0.0000       6.383593       173.7064 
 165   0.0000       6.416604       174.6047 
 166   0.0000       6.670171       181.5046 
 167   0.0000       6.670182       181.5049 
 168   0.0000       6.683958       181.8797 
 169   0.0000       6.792353       184.8293 
 170   0.0000       6.792353       184.8293 
 171   0.0000       6.863852       186.7749 
 172   0.0000       6.863852       186.7749 
 173   0.0000       7.039619       191.5578 
 174   0.0000       7.039719       191.5605 
 175   0.0000       7.107862       193.4148 
 176   0.0000       7.107960       193.4174 
 177   0.0000       7.373980       200.6562 
 178   0.0000       7.373980       200.6562 
 179   0.0000       7.411356       201.6732 
 180   0.0000       7.582681       206.3352 
 181   0.0000       7.582681       206.3352 
 182   0.0000       8.198286       223.0867 
 183   0.0000       8.198305       223.0872 
 184   0.0000       9.092850       247.4290 
 185   0.0000       9.532254       259.3858 
 186   0.0000       9.532254       259.3858 
 187   0.0000      10.354965       281.7729 
 188   0.0000      11.771364       320.3151 
 189   0.0000      11.771364       320.3151 
 190   0.0000      11.880901       323.2958 
 191   0.0000      11.965666       325.6023 
 192   0.0000      11.965679       325.6027 
 193   0.0000      12.156593       330.7977 
 194   0.0000      12.156657       330.7995 
 195   0.0000      12.234937       332.9296 
 196   0.0000      12.234937       332.9296 
 197   0.0000      12.243051       333.1503 
 198   0.0000      12.243051       333.1503 
 199   0.0000      12.272728       333.9579 
 200   0.0000      12.272778       333.9593 
 201   0.0000      12.531860       341.0092 
 202   0.0000      12.531896       341.0102 
 203   0.0000      12.635170       343.8205 
 204   0.0000      12.635170       343.8205 
 205   0.0000      12.649844       344.2197 
 206   0.0000      12.649844       344.2197 
 207   0.0000      12.712269       345.9184 
 208   0.0000      12.712308       345.9195 
 209   0.0000      12.777933       347.7052 
 210   0.0000      12.803050       348.3887 
 211   0.0000      12.803050       348.3887 
 212   0.0000      13.012707       354.0938 
 213   0.0000      13.060926       355.4059 
 214   0.0000      13.060926       355.4059 
 215   0.0000      13.760817       374.4509 
 216   0.0000      13.760826       374.4511 
 217   0.0000      13.879733       377.6867 
 218   0.0000      13.879733       377.6867 
 219   0.0000      14.068043       382.8109 
 220   0.0000      14.068043       382.8109 
 221   0.0000      14.150531       385.0555 
 222   0.0000      14.150992       385.0681 
 223   0.0000      14.529358       395.3639 
 224   0.0000      14.529358       395.3639 
 225   0.0000      14.714274       400.3957 
 226   0.0000      14.811839       403.0506 
 227   0.0000      14.811857       403.0511 
 228   0.0000      14.939453       406.5232 
 229   0.0000      14.945044       406.6753 
 230   0.0000      14.945044       406.6753 
 231   0.0000      14.953218       406.8978 
 232   0.0000      14.953218       406.8978 
 233   0.0000      15.100153       410.8960 
 234   0.0000      15.100153       410.8960 
 235   0.0000      15.277365       415.7182 
 236   0.0000      15.303882       416.4398 
 237   0.0000      15.303898       416.4402 
 238   0.0000      15.766444       429.0268 
 239   0.0000      16.685777       454.0431 
 240   0.0000      16.685777       454.0431 
 241   0.0000      18.789859       511.2981 
 242   0.0000      19.865263       540.5613 
 243   0.0000      19.865300       540.5623 
 244   0.0000      19.894953       541.3692 
 245   0.0000      19.894953       541.3692 
 246   0.0000      20.025567       544.9234 
 247   0.0000      20.025586       544.9239 
 248   0.0000      20.065963       546.0226 
 249   0.0000      20.065985       546.0232 
 250   0.0000      20.223567       550.3112 
 251   0.0000      20.223567       550.3112 
 252   0.0000      20.512299       558.1680 
 253   0.0000      20.512299       558.1680 
 254   0.0000      20.898969       568.6899 
 255   0.0000      20.899035       568.6916 
 256   0.0000      21.957346       597.4898 
 257   0.0000      22.293041       606.6245 
 258   0.0000      22.293041       606.6245 
 259   0.0000      22.936194       624.1256 
 260   0.0000      30.224940       822.4624 
 261   0.0000      30.224958       822.4629 
 262   0.0000      30.323003       825.1309 
 263   0.0000      30.323003       825.1309 
 264   0.0000      30.369644       826.4000 
 265   0.0000      30.369665       826.4006 
 266   0.0000      30.437553       828.2479 
 267   0.0000      30.516758       830.4032 
 268   0.0000      30.516758       830.4032 
 269   0.0000      32.003361       870.8557 
 270   0.0000      41.290633      1123.5752 
 271   0.0000      41.290633      1123.5752 
 272   0.0000      41.439459      1127.6250 
 273   0.0000      41.578184      1131.3999 
 274   0.0000      41.578184      1131.3999 
 275   0.0000      41.968764      1142.0281 
 276   0.0000      41.977764      1142.2730 
 277   0.0000      43.960946      1196.2382 
 278   0.0000      91.163330      2480.6803 
 279   0.0000      91.163345      2480.6807 
 280   0.0000      91.218361      2482.1778 
 281   0.0000      91.218361      2482.1778 
 282   0.0000      91.257943      2483.2549 
 283   0.0000      91.257958      2483.2553 
 284   0.0000      91.299642      2484.3896 
 285   0.0000      91.335227      2485.3579 
 286   0.0000      91.335227      2485.3579 
 287   0.0000      92.292641      2511.4104 
 288   0.0000     200.738973      5462.3851 
 289   0.0000     201.957875      5495.5532 

                    ********************************
                    * MULLIKEN POPULATION ANALYSIS *
                    ********************************

--------------------------------------------
MULLIKEN ATOMIC CHARGES AND SPIN POPULATIONS
--------------------------------------------
   0 F :    0.000001   -0.000000
   1 F :   -0.000001    0.000000
Sum of atomic charges         :   -0.0000000
Sum of atomic spin populations:    0.0000000

-----------------------------------------------------
MULLIKEN REDUCED ORBITAL CHARGES AND SPIN POPULATIONS
-----------------------------------------------------
CHARGE
  0 F s       :     3.989945  s :     3.989945
      pz      :     0.999339  p :     4.969832
      px      :     1.985246
      py      :     1.985246
      dz2     :     0.009001  d :     0.034506
      dxz     :     0.012752
      dyz     :     0.012752
      dx2y2   :     0.000000
      dxy     :    -0.000000
      f0      :     0.001597  f :     0.005812
      f+1     :     0.002107
      f-1     :     0.002107
      f+2     :    -0.000000
      f-2     :     0.000000
      f+3     :     0.000000
      f-3     :     0.000000
      g0      :     0.000093  g :     0.000005
      g+1     :    -0.000044
      g-1     :    -0.000044
      g+2     :    -0.000000
      g-2     :    -0.000000
      g+3     :     0.000000
      g-3     :     0.000000
      g+4     :     0.000000
      g-4     :     0.000000
      h0      :     0.000024  h :    -0.000101
      h+1     :    -0.000062
      h-1     :    -0.000062
      h+2     :    -0.000000
      h-2     :    -0.000000
      h+3     :     0.000000
      h-3     :     0.000000
      h+4     :     0.000000
      h-4     :     0.000000
      h+5     :     0.000000
      h-5     :     0.000000
  1 F s       :     3.989946  s :     3.989946
      pz      :     0.999339  p :     4.969832
      px      :     1.985246
      py      :     1.985246
      dz2     :     0.009002  d :     0.034506
      dxz     :     0.012752
      dyz     :     0.012752
      dx2y2   :     0.000000
      dxy     :     0.000000
      f0      :     0.001597  f :     0.005812
      f+1     :     0.002107
      f-1     :     0.002107
      f+2     :     0.000000
      f-2     :     0.000000
      f+3     :     0.000000
      f-3     :     0.000000
      g0      :     0.000093  g :     0.000005
      g+1     :    -0.000044
      g-1     :    -0.000044
      g+2     :     0.000000
      g-2     :     0.000000
      g+3     :     0.000000
      g-3     :     0.000000
      g+4     :     0.000000
      g-4     :     0.000000
      h0      :     0.000024  h :    -0.000101
      h+1     :    -0.000062
      h-1     :    -0.000062
      h+2     :    -0.000000
      h-2     :    -0.000000
      h+3     :     0.000000
      h-3     :     0.000000
      h+4     :     0.000000
      h-4     :    -0.000000
      h+5     :     0.000000
      h-5     :     0.000000

SPIN
  0 F s       :    -0.000000  s :    -0.000000
      pz      :     0.000000  p :    -0.000000
      px      :     0.000000
      py      :    -0.000000
      dz2     :     0.000000  d :     0.000000
      dxz     :    -0.000000
      dyz     :    -0.000000
      dx2y2   :     0.000000
      dxy     :     0.000000
      f0      :     0.000000  f :    -0.000000
      f+1     :    -0.000000
      f-1     :    -0.000000
      f+2     :     0.000000
      f-2     :    -0.000000
      f+3     :    -0.000000
      f-3     :     0.000000
      g0      :    -0.000000  g :    -0.000000
      g+1     :    -0.000000
      g-1     :    -0.000000
      g+2     :     0.000000
      g-2     :    -0.000000
      g+3     :     0.000000
      g-3     :    -0.000000
      g+4     :    -0.000000
      g-4     :    -0.000000
      h0      :    -0.000000  h :    -0.000000
      h+1     :    -0.000000
      h-1     :    -0.000000
      h+2     :    -0.000000
      h-2     :     0.000000
      h+3     :     0.000000
      h-3     :    -0.000000
      h+4     :     0.000000
      h-4     :     0.000000
      h+5     :     0.000000
      h-5     :     0.000000
  1 F s       :     0.000000  s :     0.000000
      pz      :     0.000000  p :     0.000000
      px      :    -0.000000
      py      :     0.000000
      dz2     :     0.000000  d :     0.000000
      dxz     :    -0.000000
      dyz     :     0.000000
      dx2y2   :    -0.000000
      dxy     :     0.000000
      f0      :    -0.000000  f :    -0.000000
      f+1     :    -0.000000
      f-1     :     0.000000
      f+2     :    -0.000000
      f-2     :    -0.000000
      f+3     :    -0.000000
      f-3     :     0.000000
      g0      :    -0.000000  g :    -0.000000
      g+1     :    -0.000000
      g-1     :     0.000000
      g+2     :     0.000000
      g-2     :    -0.000000
      g+3     :     0.000000
      g-3     :    -0.000000
      g+4     :     0.000000
      g-4     :     0.000000
      h0      :    -0.000000  h :    -0.000000
      h+1     :    -0.000000
      h-1     :     0.000000
      h+2     :    -0.000000
      h-2     :    -0.000000
      h+3     :     0.000000
      h-3     :    -0.000000
      h+4     :    -0.000000
      h-4     :     0.000000
      h+5     :     0.000000
      h-5     :     0.000000


                     *******************************
                     * LOEWDIN POPULATION ANALYSIS *
                     *******************************

-------------------------------------------
LOEWDIN ATOMIC CHARGES AND SPIN POPULATIONS
-------------------------------------------
   0 F :    0.000000   -0.000000
   1 F :   -0.000000    0.000000

----------------------------------------------------
LOEWDIN REDUCED ORBITAL CHARGES AND SPIN POPULATIONS
----------------------------------------------------
CHARGE
  0 F s       :     3.572673  s :     3.572673
      pz      :     1.111360  p :     4.677357
      px      :     1.782998
      py      :     1.782998
      dz2     :     0.167405  d :     0.349817
      dxz     :     0.091206
      dyz     :     0.091206
      dx2y2   :     0.000000
      dxy     :     0.000000
      f0      :     0.088866  f :     0.222980
      f+1     :     0.067057
      f-1     :     0.067057
      f+2     :     0.000000
      f-2     :     0.000000
      f+3     :     0.000000
      f-3     :     0.000000
      g0      :     0.040033  g :     0.114316
      g+1     :     0.037141
      g-1     :     0.037141
      g+2     :     0.000000
      g-2     :     0.000000
      g+3     :     0.000000
      g-3     :     0.000000
      g+4     :     0.000000
      g-4     :     0.000000
      h0      :     0.019662  h :     0.062858
      h+1     :     0.021598
      h-1     :     0.021598
      h+2     :     0.000000
      h-2     :     0.000000
      h+3     :     0.000000
      h-3     :     0.000000
      h+4     :     0.000000
      h-4     :     0.000000
      h+5     :     0.000000
      h-5     :     0.000000
  1 F s       :     3.572673  s :     3.572673
      pz      :     1.111360  p :     4.677357
      px      :     1.782998
      py      :     1.782998
      dz2     :     0.167405  d :     0.349817
      dxz     :     0.091206
      dyz     :     0.091206
      dx2y2   :     0.000000
      dxy     :     0.000000
      f0      :     0.088866  f :     0.222980
      f+1     :     0.067057
      f-1     :     0.067057
      f+2     :     0.000000
      f-2     :     0.000000
      f+3     :     0.000000
      f-3     :     0.000000
      g0      :     0.040033  g :     0.114316
      g+1     :     0.037141
      g-1     :     0.037141
      g+2     :     0.000000
      g-2     :     0.000000
      g+3     :     0.000000
      g-3     :     0.000000
      g+4     :     0.000000
      g-4     :     0.000000
      h0      :     0.019662  h :     0.062858
      h+1     :     0.021598
      h-1     :     0.021598
      h+2     :     0.000000
      h-2     :     0.000000
      h+3     :     0.000000
      h-3     :     0.000000
      h+4     :     0.000000
      h-4     :     0.000000
      h+5     :     0.000000
      h-5     :     0.000000

SPIN
  0 F s       :    -0.000000  s :    -0.000000
      pz      :     0.000000  p :     0.000000
      px      :     0.000000
      py      :    -0.000000
      dz2     :     0.000000  d :    -0.000000
      dxz     :     0.000000
      dyz     :    -0.000000
      dx2y2   :     0.000000
      dxy     :     0.000000
      f0      :     0.000000  f :     0.000000
      f+1     :     0.000000
      f-1     :    -0.000000
      f+2     :    -0.000000
      f-2     :    -0.000000
      f+3     :     0.000000
      f-3     :    -0.000000
      g0      :    -0.000000  g :    -0.000000
      g+1     :    -0.000000
      g-1     :     0.000000
      g+2     :    -0.000000
      g-2     :    -0.000000
      g+3     :    -0.000000
      g-3     :    -0.000000
      g+4     :    -0.000000
      g-4     :     0.000000
      h0      :    -0.000000  h :    -0.000000
      h+1     :    -0.000000
      h-1     :    -0.000000
      h+2     :    -0.000000
      h-2     :     0.000000
      h+3     :    -0.000000
      h-3     :    -0.000000
      h+4     :     0.000000
      h-4     :     0.000000
      h+5     :     0.000000
      h-5     :     0.000000
  1 F s       :     0.000000  s :     0.000000
      pz      :     0.000000  p :     0.000000
      px      :     0.000000
      py      :     0.000000
      dz2     :     0.000000  d :     0.000000
      dxz     :    -0.000000
      dyz     :     0.000000
      dx2y2   :    -0.000000
      dxy     :     0.000000
      f0      :    -0.000000  f :    -0.000000
      f+1     :    -0.000000
      f-1     :     0.000000
      f+2     :    -0.000000
      f-2     :    -0.000000
      f+3     :    -0.000000
      f-3     :     0.000000
      g0      :     0.000000  g :     0.000000
      g+1     :    -0.000000
      g-1     :    -0.000000
      g+2     :    -0.000000
      g-2     :    -0.000000
      g+3     :     0.000000
      g-3     :    -0.000000
      g+4     :     0.000000
      g-4     :     0.000000
      h0      :     0.000000  h :     0.000000
      h+1     :     0.000000
      h-1     :     0.000000
      h+2     :    -0.000000
      h-2     :     0.000000
      h+3     :    -0.000000
      h-3     :    -0.000000
      h+4     :    -0.000000
      h-4     :     0.000000
      h+5     :     0.000000
      h-5     :     0.000000


                      *****************************
                      * MAYER POPULATION ANALYSIS *
                      *****************************

  NA   - Mulliken gross atomic population
  ZA   - Total nuclear charge
  QA   - Mulliken gross atomic charge
  VA   - Mayer's total valence
  BVA  - Mayer's bonded valence
  FA   - Mayer's free valence

  ATOM       NA         ZA         QA         VA         BVA        FA
  0 F      9.0000     9.0000     0.0000     0.9734     0.9734    -0.0000
  1 F      9.0000     9.0000    -0.0000     0.9734     0.9734     0.0000

  Mayer bond orders larger than 0.1
B(  0-F ,  1-F ) :   0.9734 

-------
TIMINGS
-------

Total SCF time: 0 days 0 hours 3 min 40 sec 

Total time                  ....     220.459 sec
Sum of individual times     ....     219.826 sec  ( 99.7%)

Fock matrix formation       ....     218.297 sec  ( 99.0%)
  XC integration            ....       4.968 sec  (  2.3% of F)
    Basis function eval.    ....       0.367 sec  (  7.4% of XC)
    Density eval.           ....       0.990 sec  ( 19.9% of XC)
    XC-Functional eval.     ....       0.075 sec  (  1.5% of XC)
    XC-Potential eval.      ....       3.138 sec  ( 63.2% of XC)
Diagonalization             ....       0.532 sec  (  0.2%)
Density matrix formation    ....       0.011 sec  (  0.0%)
Population analysis         ....       0.063 sec  (  0.0%)
Initial guess               ....       0.346 sec  (  0.2%)
Orbital Transformation      ....       0.000 sec  (  0.0%)
Orbital Orthonormalization  ....       0.000 sec  (  0.0%)
DIIS solution               ....       0.333 sec  (  0.2%)
Grid generation             ....       0.245 sec  (  0.1%)

-------------------------   --------------------
FINAL SINGLE POINT ENERGY      -199.436623196460
-------------------------   --------------------


                            ***************************************
                            *     ORCA property calculations      *
                            ***************************************

                                    ---------------------
                                    Active property flags
                                    ---------------------
   (+) Dipole Moment
   (+) Polarizability


------------------------------------------------------------------------------
                       ORCA ELECTRIC PROPERTIES CALCULATION
------------------------------------------------------------------------------

Dipole Moment Calculation                       ... on
Quadrupole Moment Calculation                   ... off
Polarizability Calculation                      ... Analytic (CP-SCF)
GBWName                                         ... f2_pbe.gbw
Electron density file                           ... f2_pbe.scfp.tmp
The origin for moment calculation is the CENTER OF MASS  = ( 0.000000,  0.000000  1.334052)

-------------
DIPOLE MOMENT
-------------
                                X             Y             Z
Electronic contribution:      0.00000       0.00000      -0.00000
Nuclear contribution   :      0.00000       0.00000      -0.00000
                        -----------------------------------------
Total Dipole Moment    :      0.00000       0.00000      -0.00000
                        -----------------------------------------
Magnitude (a.u.)       :      0.00000
Magnitude (Debye)      :      0.00000



--------------------
Rotational spectrum 
--------------------
 
Rotational constants in cm-1:     0.000000     0.890248     0.890248 
Rotational constants in MHz :     0.000000 26688.971617 26688.971617 

 Dipole components along the rotational axes: 
x,y,z [a.u.] :    -0.000000     0.000000     0.000000 
x,y,z [Debye]:    -0.000000     0.000000     0.000000 

 
Transforming and storing MO dipole integrals   ... done

                ... starting polarizability calculation

Opening the Dipole integral file               ... (f2_pbe.dmo.tmp) done
Reading Dipole-MO integrals                    ... done
Solving CP-SCF equations                       ... 

           ************************************************************
           *        Program running with 4 parallel MPI-processes     *
           *              working on a common directory               *
           ************************************************************

------------------------------------------------------------------------------
                           ORCA CP-SCF CALCULATION
------------------------------------------------------------------------------

Input orbitals are from        ... f2_pbe.gbw
Input Perturbation             ... f2_pbe.cpv.tmp
Wavefunction output            ... f2_pbe.cpu.tmp
Perturbation mode              ... Real perturbation (singlet)
Solver                         ... POPLE
Max. number of iterations      ... 200
Convergence tolerance          ... 1.000e-06
Integral handling              ... Direct
Number of perturbations        ... 3
Number of operators            ... 2
Orbital ranges used for CP-SCF:
 Operator 0:  Orbitals   0...  8  to   9...289
 Operator 1:  Orbitals   0...  8  to   9...289
DFT calculation                         ... on
Exchange functional (SCF)               ... PBE
Exchange functional (CP-SCF)            ... PBE
   PBE kappa parameter  XKappa (SCF)    ...  0.804000
   PBE kappa parameter  XKappa (CP-SCF) ...  0.804000
   PBE mue parameter   XMuePBE (SCF)    ...  0.219520
   PBE mue parameter   XMuePBE (CP-SCF) ...  0.219520
Correlation functional (SCF)            ... PBE
Correlation functional (CP-SCF)         ... PBE
   PBE beta parameter CBetaPBE (SCF)    ...  0.066725
   PBE beta parameter CBetaPBE (CP-SCF) ...  0.066725
 LDA part of GGA corr.  LDAOpt (SCF)    ... PW91-LDA
 LDA part of GGA corr.  LDAOpt (CP-SCF) ... PW91-LDA
Variables per vector in CP-SCF ... 5058
Number of vectors sought       ... 3
Recalculating density on grid  ... done
Calculating the xc-kernel      ... done
     CP-SCF ITERATION   0: 
     CP-SCF ITERATION   1:      0.067922626162
     CP-SCF ITERATION   2:      0.000978854800
     CP-SCF ITERATION   3:      0.000001745132
     CP-SCF ITERATION   4:      0.000000025988
done
Reading CP-SCF coefficients                    ... done
Doing the polarizability tensor   ... done
Cleaning up                                    ... done

-------------------------
THE POLARIZABILITY TENSOR
-------------------------

The raw cartesian tensor (atomic units):
    7.06285      0.00000      0.00000  
    0.00000      7.06285      0.00000  
    0.00000      0.00000     12.75658  
diagonalized tensor: 
    7.06285      7.06285     12.75658  

    0.34669      0.93798      0.00000  
   -0.93798      0.34669      0.00000  
    0.00000     -0.00000      1.00000  

Isotropic polarizability :   8.96076


Timings for individual modules:

Sum of individual times         ...      388.180 sec (=   6.470 min)
GTO integral calculation        ...        1.382 sec (=   0.023 min)   0.4 %
SCF iterations                  ...      220.778 sec (=   3.680 min)  56.9 %
Solution of CP-SCF eqns.        ...      166.020 sec (=   2.767 min)  42.8 %
                             ****ORCA TERMINATED NORMALLY****
TOTAL RUN TIME: 0 days 0 hours 6 minutes 29 seconds 2 msec
