
                                 *****************
                                 * O   R   C   A *
                                 *****************

           --- An Ab Initio, DFT and Semiempirical electronic structure package ---

                  #######################################################
                  #                        -***-                        #
                  #          Department of theory and spectroscopy      #
                  #               Directorship: Frank Neese             #
                  #        Max Planck Institute fuer Kohlenforschung    #
                  #                Kaiser Wilhelm Platz 1               #
                  #                 D-45470 Muelheim/Ruhr               #
                  #                      Germany                        #
                  #                                                     #
                  #                  All rights reserved                #
                  #                        -***-                        #
                  #######################################################


                         Program Version 4.1.2  - RELEASE  -


 With contributions from (in alphabetic order):
   Daniel Aravena         : Magnetic Properties
   Michael Atanasov       : Ab Initio Ligand Field Theory
   Alexander A. Auer      : GIAO ZORA
   Ute Becker             : Parallelization
   Giovanni Bistoni       : ED, Open-shell LED
   Martin Brehm           : Molecular dynamics
   Dmytro Bykov           : SCF Hessian
   Vijay G. Chilkuri      : MRCI spin determinant printing
   Dipayan Datta          : RHF DLPNO-CCSD density
   Achintya Kumar Dutta   : EOM-CC, STEOM-CC
   Dmitry Ganyushin       : Spin-Orbit,Spin-Spin,Magnetic field MRCI
   Miquel Garcia          : C-PCM Hessian
   Yang Guo               : DLPNO-NEVPT2, CIM, IAO-localization
   Andreas Hansen         : Spin unrestricted coupled pair/coupled cluster methods
   Benjamin Helmich-Paris : CASSCF linear response (MC-RPA)
   Lee Huntington         : MR-EOM, pCC
   Robert Izsak           : Overlap fitted RIJCOSX, COSX-SCS-MP3, EOM
   Christian Kollmar      : KDIIS, OOCD, Brueckner-CCSD(T), CCSD density
   Simone Kossmann        : Meta GGA functionals, TD-DFT gradient, OOMP2, MP2 Hessian
   Martin Krupicka        : AUTO-CI
   Lucas Lang             : DCDCAS
   Dagmar Lenk            : GEPOL surface, SMD
   Dimitrios Liakos       : Extrapolation schemes; parallel MDCI
   Dimitrios Manganas     : ROCIS; embedding schemes
   Dimitrios Pantazis     : SARC Basis sets
   Taras Petrenko         : DFT Hessian,TD-DFT gradient, ASA, ECA, R-Raman, ABS, FL, XAS/XES, NRVS
   Peter Pinski           : DLPNO-MP2, DLPNO-MP2 Gradient
   Christoph Reimann      : Effective Core Potentials
   Marius Retegan         : Local ZFS, SOC
   Christoph Riplinger    : Optimizer, TS searches, QM/MM, DLPNO-CCSD(T), (RO)-DLPNO pert. Triples
   Tobias Risthaus        : Range-separated hybrids, TD-DFT gradient, RPA, STAB
   Michael Roemelt        : Restricted open shell CIS
   Masaaki Saitow         : Open-shell DLPNO
   Barbara Sandhoefer     : DKH picture change effects
   Avijit Sen             : IP-ROCIS
   Kantharuban Sivalingam : CASSCF convergence, NEVPT2, FIC-MRCI
   Bernardo de Souza      : ESD, SOC TD-DFT
   Georgi Stoychev        : AutoAux, RI-MP2 NMR
   Willem Van den Heuvel  : Paramagnetic NMR
   Boris Wezisla          : Elementary symmetry handling
   Frank Wennmohs         : Technical directorship


 We gratefully acknowledge several colleagues who have allowed us to
 interface, adapt or use parts of their codes:
   Stefan Grimme, W. Hujo, H. Kruse,             : VdW corrections, initial TS optimization,
                  C. Bannwarth                     DFT functionals, gCP, sTDA/sTD-DF
   Ed Valeev                                     : LibInt (2-el integral package), F12 methods
   Garnet Chan, S. Sharma, J. Yang, R. Olivares  : DMRG
   Ulf Ekstrom                                   : XCFun DFT Library
   Mihaly Kallay                                 : mrcc  (arbitrary order and MRCC methods)
   Andreas Klamt, Michael Diedenhofen            : otool_cosmo (COSMO solvation model)
   Jiri Pittner, Ondrej Demel                    : Mk-CCSD
   Frank Weinhold                                : gennbo (NPA and NBO analysis)
   Christopher J. Cramer and Donald G. Truhlar   : smd solvation model
   Lars Goerigk                                  : TD-DFT with DH, B97 family of functionals
   V. Asgeirsson, H. Jonsson                     : NEB implementation
   FAccTs GmbH                                   : IRC, NEB, NEB-TS, Multilevel


 Your calculation uses the libint2 library for the computation of 2-el integrals
 For citations please refer to: http://libint.valeyev.net

 This ORCA versions uses:
   CBLAS   interface :  Fast vector & matrix operations
   LAPACKE interface :  Fast linear algebra routines
   SCALAPACK package :  Parallel linear algebra routines


----- Orbital basis set information -----
Your calculation utilizes the basis: aug-pc-4
   H, C-F              : F. Jensen, J. Chem. Phys. 115, 9113 (2001).
                         F. Jensen, J. Chem. Phys. 116, 7372 (2002).
                         F. Jensen, J. Chem. Phys. 117, 9234 (2002).
   Si-Cl               : F. Jensen, T. Helgaker, J. Chem. Phys. 121, 3463 (2004).
   He-B, Ne-Mg, Al, Ar : F. Jensen, J. Phys. Chem. A 111, 11198 (2007).
   K, Ca, Ga-Kr        : F. Jensen, J. Chem. Phys. 136, 094110 (2012).
   Sc-Zn               : F. Jensen, J. Chem. Phys. 138, 014107 (2013).

================================================================================
                                        WARNINGS
                       Please study these warnings very carefully!
================================================================================


INFO   : the flag for use of LIBINT has been found!

================================================================================
                                       INPUT FILE
================================================================================
NAME = fcn_pbe.inp
|  1> !uks pbe nori aug-pc-4 grid5 nofinalgrid verytightscf
|  2> 
|  3> %maxcore 1500
|  4> 
|  5> %pal nprocs 4 end
|  6> 
|  7> %scf
|  8> 	maxiter 200
|  9> end
| 10> %elprop
| 11> 	dipole true
| 12> 	 polar 1
| 13> 	 maxiter 200
| 14> end
| 15> 
| 16> * xyz 0 1
| 17> C 0.0000 0.0000 0.0000
| 18> F 0.0000 0.0000 -1.2620
| 19> N 0.0000 0.0000 1.1590
| 20> *
| 21> 
| 22>                          ****END OF INPUT****
================================================================================

                       ****************************
                       * Single Point Calculation *
                       ****************************

---------------------------------
CARTESIAN COORDINATES (ANGSTROEM)
---------------------------------
  C      0.000000    0.000000    0.000000
  F      0.000000    0.000000   -1.262000
  N      0.000000    0.000000    1.159000

----------------------------
CARTESIAN COORDINATES (A.U.)
----------------------------
  NO LB      ZA    FRAG     MASS         X           Y           Z
   0 C     6.0000    0    12.011    0.000000    0.000000    0.000000
   1 F     9.0000    0    18.998    0.000000    0.000000   -2.384834
   2 N     7.0000    0    14.007    0.000000    0.000000    2.190193

--------------------------------
INTERNAL COORDINATES (ANGSTROEM)
--------------------------------
 C      0   0   0     0.000000000000     0.00000000     0.00000000
 F      1   0   0     1.262000000000     0.00000000     0.00000000
 N      1   2   0     1.159000000000   179.99999852     0.00000000

---------------------------
INTERNAL COORDINATES (A.U.)
---------------------------
 C      0   0   0     0.000000000000     0.00000000     0.00000000
 F      1   0   0     2.384834381009     0.00000000     0.00000000
 N      1   2   0     2.190192589215   179.99999852     0.00000000

---------------------
BASIS SET INFORMATION
---------------------
There are 3 groups of distinct atoms

 Group   1 Type C   : 28s12p7d4f3g2h contracted to 9s8p7d4f3g2h pattern {11101111111/51111111/1111111/1111/111/11}
 Group   2 Type F   : 27s12p7d4f3g2h contracted to 9s8p7d4f3g2h pattern {1191111111/51111111/1111111/1111/111/11}
 Group   3 Type N   : 27s12p7d4f3g2h contracted to 9s8p7d4f3g2h pattern {1191111111/51111111/1111111/1111/111/11}

Atom   0C    basis set group =>   1
Atom   1F    basis set group =>   2
Atom   2N    basis set group =>   3


           ************************************************************
           *        Program running with 4 parallel MPI-processes     *
           *              working on a common directory               *
           ************************************************************
------------------------------------------------------------------------------
                           ORCA GTO INTEGRAL CALCULATION
------------------------------------------------------------------------------

                         BASIS SET STATISTICS AND STARTUP INFO

 # of primitive gaussian shells          ...  166
 # of primitive gaussian functions       ...  526
 # of contracted shells                  ...   99
 # of contracted basis functions         ...  435
 Highest angular momentum                ...    5
 Maximum contraction depth               ...   11
 Integral package used                   ... LIBINT
 Integral threshhold            Thresh   ...  1.000e-12
 Primitive cut-off              TCut     ...  1.000e-14


------------------------------ INTEGRAL EVALUATION ----------------------------


 * One electron integrals 
 Pre-screening matrix                    ... done
 Shell pair data                         ... done (   0.002 sec)



           ************************************************************
           *        Program running with 4 parallel MPI-processes     *
           *              working on a common directory               *
           ************************************************************
-------------------------------------------------------------------------------
                                 ORCA SCF
-------------------------------------------------------------------------------

------------
SCF SETTINGS
------------
Hamiltonian:
 Density Functional     Method          .... DFT(GTOs)
 Exchange Functional    Exchange        .... PBE
   PBE kappa parameter   XKappa         ....  0.804000
   PBE mue parameter    XMuePBE         ....  0.219520
 Correlation Functional Correlation     .... PBE
   PBE beta parameter  CBetaPBE         ....  0.066725
 LDA part of GGA corr.  LDAOpt          .... PW91-LDA
 Gradients option       PostSCFGGA      .... off
   Density functional embedding theory  .... OFF
   NL short-range parameter             ....  6.400000


General Settings:
 Integral files         IntName         .... fcn_pbe
 Hartree-Fock type      HFTyp           .... UHF
 Total Charge           Charge          ....    0
 Multiplicity           Mult            ....    1
 Number of Electrons    NEL             ....   22
 Basis Dimension        Dim             ....  435
 Nuclear Repulsion      ENuc            ....     55.5898882522 Eh

Convergence Acceleration:
 DIIS                   CNVDIIS         .... on
   Start iteration      DIISMaxIt       ....    12
   Startup error        DIISStart       ....  0.200000
   # of expansion vecs  DIISMaxEq       ....     5
   Bias factor          DIISBfac        ....   1.050
   Max. coefficient     DIISMaxC        ....  10.000
 Newton-Raphson         CNVNR           .... off
 SOSCF                  CNVSOSCF        .... off
 Level Shifting         CNVShift        .... on
   Level shift para.    LevelShift      ....    0.2500
   Turn off err/grad.   ShiftErr        ....    0.0010
 Zerner damping         CNVZerner       .... off
 Static damping         CNVDamp         .... on
   Fraction old density DampFac         ....    0.7000
   Max. Damping (<1)    DampMax         ....    0.9800
   Min. Damping (>=0)   DampMin         ....    0.0000
   Turn off err/grad.   DampErr         ....    0.1000
 Fernandez-Rico         CNVRico         .... off

SCF Procedure:
 Maximum # iterations   MaxIter         ....   200
 SCF integral mode      SCFMode         .... Direct
   Integral package                     .... LIBINT
 Reset frequency        DirectResetFreq ....    20
 Integral Threshold     Thresh          ....  1.000e-12 Eh
 Primitive CutOff       TCut            ....  1.000e-14 Eh

Convergence Tolerance:
 Convergence Check Mode ConvCheckMode   .... Total+1el-Energy
 Convergence forced     ConvForced      .... 0
 Energy Change          TolE            ....  1.000e-09 Eh
 1-El. energy change                    ....  1.000e-06 Eh
 DIIS Error             TolErr          ....  1.000e-08


Diagonalization of the overlap matrix:
Smallest eigenvalue                        ... 4.256e-07
Time for diagonalization                   ...    0.038 sec
Threshold for overlap eigenvalues          ... 1.000e-08
Number of eigenvalues below threshold      ... 0
Time for construction of square roots      ...    0.031 sec
Total time needed                          ...    0.069 sec

-------------------
DFT GRID GENERATION
-------------------

General Integration Accuracy     IntAcc      ...  5.010
Radial Grid Type                 RadialGrid  ... Gauss-Chebyshev
Angular Grid (max. acc.)         AngularGrid ... Lebedev-434
Angular grid pruning method      GridPruning ... 3 (G Style)
Weight generation scheme         WeightScheme... Becke
Basis function cutoff            BFCut       ...    1.0000e-12
Integration weight cutoff        WCut        ...    1.0000e-14
Grids for H and He will be reduced by one unit

# of grid points (after initial pruning)     ...  32106 (   0.0 sec)
# of grid points (after weights+screening)   ...  31735 (   0.0 sec)
nearest neighbour list constructed           ...    0.0 sec
Grid point re-assignment to atoms done       ...    0.0 sec
Grid point division into batches done        ...    0.3 sec
Reduced shell lists constructed in    0.4 sec

Total number of grid points                  ...    31735
Total number of batches                      ...      497
Average number of points per batch           ...       63
Average number of grid points per atom       ...    10578
Average number of shells per batch           ...    81.88 (82.71%)
Average number of basis functions per batch  ...   374.66 (86.13%)
Average number of large shells per batch     ...    75.47 (92.17%)
Average number of large basis fcns per batch ...   350.21 (93.48%)
Maximum spatial batch extension              ...  21.30, 21.30,  2.27 au
Average spatial batch extension              ...   0.63,  0.60,  0.31 au

Time for grid setup =    0.416 sec

------------------------------
INITIAL GUESS: MODEL POTENTIAL
------------------------------
Loading Hartree-Fock densities                     ... done
Calculating cut-offs                               ... done
Setting up the integral package                    ... done
Initializing the effective Hamiltonian             ... done
Starting the Coulomb interaction                   ... done (   0.0 sec)
Reading the grid                                   ... done
Mapping shells                                     ... done
Starting the XC term evaluation                    ... done (   0.7 sec)
  promolecular density results
     # of electrons  =     21.999994772
     EX              =    -21.579938458
     EC              =     -0.729215372
     EX+EC           =    -22.309153830
Transforming the Hamiltonian                       ... done (   0.0 sec)
Diagonalizing the Hamiltonian                      ... done (   0.0 sec)
Back transforming the eigenvectors                 ... done (   0.0 sec)
Now organizing SCF variables                       ... done
                      ------------------
                      INITIAL GUESS DONE (   1.3 sec)
                      ------------------
--------------
SCF ITERATIONS
--------------
ITER       Energy         Delta-E        Max-DP      RMS-DP      [F,P]     Damp
               ***  Starting incremental Fock matrix formation  ***
  0   -192.3679020692   0.000000000000 0.02076249  0.00022448  0.3553402 0.7000
  1   -192.4652680649  -0.097365995740 0.00657752  0.00009881  0.0662748 0.7000
                               ***Turning on DIIS***
  2   -192.4745079736  -0.009239908713 0.02554940  0.00015432  0.0685355 0.0000
  3   -192.5337131306  -0.059205156979 0.00772276  0.00006938  0.0446046 0.0000
  4   -192.5357021698  -0.001989039206 0.00248778  0.00001883  0.0283233 0.0000
  5   -192.5365332632  -0.000831093423 0.00091689  0.00001131  0.0095819 0.0000
  6   -192.5366509185  -0.000117655272 0.00028020  0.00000396  0.0033853 0.0000
  7   -192.5366634873  -0.000012568740 0.00012778  0.00000146  0.0004848 0.0000
  8   -192.5366640387  -0.000000551488 0.00001700  0.00000018  0.0000563 0.0000
  9   -192.5366640451  -0.000000006377 0.00000468  0.00000004  0.0000182 0.0000
 10   -192.5366640458  -0.000000000649 0.00000452  0.00000004  0.0000046 0.0000
 11   -192.5366640458  -0.000000000018 0.00001056  0.00000008  0.0000015 0.0000
 12   -192.5366640458  -0.000000000009 0.00001798  0.00000018  0.0000005 0.0000
                 **** Energy Check signals convergence ****

               *****************************************************
               *                     SUCCESS                       *
               *           SCF CONVERGED AFTER  13 CYCLES          *
               *****************************************************


----------------
TOTAL SCF ENERGY
----------------

Total Energy       :         -192.53666405 Eh           -5239.18898 eV

Components:
Nuclear Repulsion  :           55.58988825 Eh            1512.67776 eV
Electronic Energy  :         -248.12655230 Eh           -6751.86675 eV
One Electron Energy:         -373.79229925 Eh          -10171.40557 eV
Two Electron Energy:          125.66574695 Eh            3419.53882 eV

Virial components:
Potential Energy   :         -384.51265272 Eh          -10463.12122 eV
Kinetic Energy     :          191.97598867 Eh            5223.93223 eV
Virial Ratio       :            2.00292055


DFT components:
N(Alpha)           :       10.999999896942 electrons
N(Beta)            :       10.999999896942 electrons
N(Total)           :       21.999999793884 electrons
E(X)               :      -21.762030235853 Eh       
E(C)               :       -0.733894116877 Eh       
E(XC)              :      -22.495924352729 Eh       
DFET-embed. en.    :        0.000000000000 Eh       

---------------
SCF CONVERGENCE
---------------

  Last Energy change         ...   -8.6118e-12  Tolerance :   1.0000e-09
  Last MAX-Density change    ...    4.8359e-05  Tolerance :   1.0000e-08
  Last RMS-Density change    ...    3.7214e-07  Tolerance :   1.0000e-09
  Last DIIS Error            ...    4.8610e-08  Tolerance :   1.0000e-08

             **** THE GBW FILE WAS UPDATED (fcn_pbe.gbw) ****
             **** DENSITY FILE WAS UPDATED (fcn_pbe.scfp.tmp) ****
             **** ENERGY FILE WAS UPDATED (fcn_pbe.en.tmp) ****
----------------------
UHF SPIN CONTAMINATION
----------------------

Warning: in a DFT calculation there is little theoretical justification to 
         calculate <S**2> as in Hartree-Fock theory. We will do it anyways
         but you should keep in mind that the values have only limited relevance

Expectation value of <S**2>     :    -0.000000
Ideal value S*(S+1) for S=0.0   :     0.000000
Deviation                       :    -0.000000

----------------
ORBITAL ENERGIES
----------------
                 SPIN UP ORBITALS
  NO   OCC          E(Eh)            E(eV) 
   0   1.0000     -24.387672      -663.6223 
   1   1.0000     -14.014062      -381.3420 
   2   1.0000     -10.024949      -272.7927 
   3   1.0000      -1.255731       -34.1702 
   4   1.0000      -0.859995       -23.4016 
   5   1.0000      -0.635354       -17.2888 
   6   1.0000      -0.512336       -13.9414 
   7   1.0000      -0.512336       -13.9414 
   8   1.0000      -0.350756        -9.5446 
   9   1.0000      -0.320605        -8.7241 
  10   1.0000      -0.320605        -8.7241 
  11   0.0000      -0.056733        -1.5438 
  12   0.0000      -0.009183        -0.2499 
  13   0.0000      -0.009183        -0.2499 
  14   0.0000       0.016563         0.4507 
  15   0.0000       0.016563         0.4507 
  16   0.0000       0.016722         0.4550 
  17   0.0000       0.025910         0.7050 
  18   0.0000       0.053557         1.4573 
  19   0.0000       0.055599         1.5129 
  20   0.0000       0.055599         1.5129 
  21   0.0000       0.065765         1.7895 
  22   0.0000       0.065765         1.7895 
  23   0.0000       0.067957         1.8492 
  24   0.0000       0.083643         2.2760 
  25   0.0000       0.083643         2.2760 
  26   0.0000       0.091087         2.4786 
  27   0.0000       0.109115         2.9692 
  28   0.0000       0.109640         2.9835 
  29   0.0000       0.109640         2.9835 
  30   0.0000       0.136395         3.7115 
  31   0.0000       0.153740         4.1835 
  32   0.0000       0.153740         4.1835 
  33   0.0000       0.177257         4.8234 
  34   0.0000       0.177257         4.8234 
  35   0.0000       0.189692         5.1618 
  36   0.0000       0.189692         5.1618 
  37   0.0000       0.194721         5.2986 
  38   0.0000       0.195248         5.3130 
  39   0.0000       0.195248         5.3130 
  40   0.0000       0.210896         5.7388 
  41   0.0000       0.210896         5.7388 
  42   0.0000       0.212110         5.7718 
  43   0.0000       0.218001         5.9321 
  44   0.0000       0.232853         6.3363 
  45   0.0000       0.232853         6.3363 
  46   0.0000       0.241438         6.5699 
  47   0.0000       0.262708         7.1487 
  48   0.0000       0.262708         7.1487 
  49   0.0000       0.289383         7.8745 
  50   0.0000       0.289383         7.8745 
  51   0.0000       0.309722         8.4280 
  52   0.0000       0.339337         9.2338 
  53   0.0000       0.339337         9.2338 
  54   0.0000       0.345643         9.4054 
  55   0.0000       0.345643         9.4054 
  56   0.0000       0.345760         9.4086 
  57   0.0000       0.345760         9.4086 
  58   0.0000       0.354564         9.6482 
  59   0.0000       0.375267        10.2115 
  60   0.0000       0.375267        10.2115 
  61   0.0000       0.381494        10.3810 
  62   0.0000       0.381494        10.3810 
  63   0.0000       0.413921        11.2634 
  64   0.0000       0.435360        11.8467 
  65   0.0000       0.435360        11.8467 
  66   0.0000       0.446794        12.1579 
  67   0.0000       0.447149        12.1675 
  68   0.0000       0.447149        12.1675 
  69   0.0000       0.453502        12.3404 
  70   0.0000       0.454916        12.3789 
  71   0.0000       0.454916        12.3789 
  72   0.0000       0.477960        13.0059 
  73   0.0000       0.477960        13.0059 
  74   0.0000       0.488877        13.3030 
  75   0.0000       0.492438        13.3999 
  76   0.0000       0.494280        13.4500 
  77   0.0000       0.494280        13.4500 
  78   0.0000       0.510435        13.8896 
  79   0.0000       0.510435        13.8897 
  80   0.0000       0.516598        14.0574 
  81   0.0000       0.516599        14.0574 
  82   0.0000       0.529246        14.4015 
  83   0.0000       0.529246        14.4015 
  84   0.0000       0.551222        14.9995 
  85   0.0000       0.551222        14.9995 
  86   0.0000       0.554440        15.0871 
  87   0.0000       0.554440        15.0871 
  88   0.0000       0.570602        15.5269 
  89   0.0000       0.570602        15.5269 
  90   0.0000       0.621997        16.9254 
  91   0.0000       0.647717        17.6253 
  92   0.0000       0.647717        17.6253 
  93   0.0000       0.664626        18.0854 
  94   0.0000       0.664626        18.0854 
  95   0.0000       0.691802        18.8249 
  96   0.0000       0.691802        18.8249 
  97   0.0000       0.696015        18.9395 
  98   0.0000       0.717448        19.5228 
  99   0.0000       0.730894        19.8886 
 100   0.0000       0.730894        19.8886 
 101   0.0000       0.741475        20.1766 
 102   0.0000       0.741475        20.1766 
 103   0.0000       0.761004        20.7080 
 104   0.0000       0.774023        21.0622 
 105   0.0000       0.774023        21.0622 
 106   0.0000       0.780649        21.2426 
 107   0.0000       0.780649        21.2426 
 108   0.0000       0.789035        21.4707 
 109   0.0000       0.789035        21.4707 
 110   0.0000       0.814940        22.1756 
 111   0.0000       0.881499        23.9868 
 112   0.0000       0.883533        24.0422 
 113   0.0000       0.883533        24.0422 
 114   0.0000       0.887031        24.1373 
 115   0.0000       0.887031        24.1373 
 116   0.0000       0.887922        24.1616 
 117   0.0000       0.887922        24.1616 
 118   0.0000       0.912094        24.8193 
 119   0.0000       0.922936        25.1144 
 120   0.0000       0.922936        25.1144 
 121   0.0000       0.934099        25.4181 
 122   0.0000       0.934099        25.4181 
 123   0.0000       0.947068        25.7710 
 124   0.0000       0.947068        25.7710 
 125   0.0000       0.959193        26.1010 
 126   0.0000       0.959193        26.1010 
 127   0.0000       0.971279        26.4298 
 128   0.0000       0.971279        26.4299 
 129   0.0000       0.972190        26.4546 
 130   0.0000       0.997499        27.1433 
 131   0.0000       1.000481        27.2245 
 132   0.0000       1.000481        27.2245 
 133   0.0000       1.080971        29.4147 
 134   0.0000       1.080972        29.4147 
 135   0.0000       1.095273        29.8039 
 136   0.0000       1.095273        29.8039 
 137   0.0000       1.096629        29.8408 
 138   0.0000       1.096629        29.8408 
 139   0.0000       1.126395        30.6508 
 140   0.0000       1.126395        30.6508 
 141   0.0000       1.140399        31.0318 
 142   0.0000       1.176031        32.0014 
 143   0.0000       1.176031        32.0014 
 144   0.0000       1.188618        32.3439 
 145   0.0000       1.243149        33.8278 
 146   0.0000       1.243149        33.8278 
 147   0.0000       1.272529        34.6273 
 148   0.0000       1.272529        34.6273 
 149   0.0000       1.273973        34.6666 
 150   0.0000       1.273974        34.6666 
 151   0.0000       1.301828        35.4245 
 152   0.0000       1.301828        35.4245 
 153   0.0000       1.324496        36.0414 
 154   0.0000       1.345432        36.6111 
 155   0.0000       1.358782        36.9743 
 156   0.0000       1.358782        36.9743 
 157   0.0000       1.396190        37.9923 
 158   0.0000       1.396190        37.9923 
 159   0.0000       1.459541        39.7161 
 160   0.0000       1.459541        39.7161 
 161   0.0000       1.474242        40.1162 
 162   0.0000       1.474242        40.1162 
 163   0.0000       1.488717        40.5100 
 164   0.0000       1.527381        41.5621 
 165   0.0000       1.539398        41.8891 
 166   0.0000       1.539398        41.8891 
 167   0.0000       1.599104        43.5138 
 168   0.0000       1.599104        43.5138 
 169   0.0000       1.625880        44.2424 
 170   0.0000       1.676770        45.6272 
 171   0.0000       1.676770        45.6272 
 172   0.0000       1.735742        47.2320 
 173   0.0000       1.735742        47.2320 
 174   0.0000       1.810362        49.2624 
 175   0.0000       1.869290        50.8660 
 176   0.0000       1.879002        51.1302 
 177   0.0000       1.879002        51.1302 
 178   0.0000       1.963031        53.4168 
 179   0.0000       1.963031        53.4168 
 180   0.0000       1.974541        53.7300 
 181   0.0000       1.974541        53.7300 
 182   0.0000       2.128372        57.9160 
 183   0.0000       2.128372        57.9160 
 184   0.0000       2.148090        58.4525 
 185   0.0000       2.148090        58.4525 
 186   0.0000       2.177489        59.2525 
 187   0.0000       2.280445        62.0541 
 188   0.0000       2.285485        62.1912 
 189   0.0000       2.285485        62.1912 
 190   0.0000       2.359327        64.2006 
 191   0.0000       2.359327        64.2006 
 192   0.0000       2.414019        65.6888 
 193   0.0000       2.414019        65.6888 
 194   0.0000       2.417247        65.7766 
 195   0.0000       2.446755        66.5796 
 196   0.0000       2.446755        66.5796 
 197   0.0000       2.471366        67.2493 
 198   0.0000       2.535643        68.9983 
 199   0.0000       2.535643        68.9983 
 200   0.0000       2.579961        70.2043 
 201   0.0000       2.579961        70.2043 
 202   0.0000       2.664625        72.5081 
 203   0.0000       2.812198        76.5238 
 204   0.0000       2.908508        79.1445 
 205   0.0000       2.908508        79.1445 
 206   0.0000       2.976473        80.9939 
 207   0.0000       3.058397        83.2232 
 208   0.0000       3.058397        83.2232 
 209   0.0000       3.095013        84.2196 
 210   0.0000       3.095013        84.2196 
 211   0.0000       3.393625        92.3452 
 212   0.0000       3.393625        92.3452 
 213   0.0000       3.410646        92.8084 
 214   0.0000       3.475484        94.5727 
 215   0.0000       3.475484        94.5727 
 216   0.0000       3.561783        96.9211 
 217   0.0000       3.735837       101.6573 
 218   0.0000       3.735837       101.6573 
 219   0.0000       3.898875       106.0938 
 220   0.0000       4.030675       109.6802 
 221   0.0000       4.040449       109.9462 
 222   0.0000       4.040450       109.9462 
 223   0.0000       4.098046       111.5135 
 224   0.0000       4.098046       111.5135 
 225   0.0000       4.113551       111.9354 
 226   0.0000       4.113551       111.9354 
 227   0.0000       4.127653       112.3191 
 228   0.0000       4.127653       112.3191 
 229   0.0000       4.202526       114.3565 
 230   0.0000       4.202526       114.3565 
 231   0.0000       4.255353       115.7940 
 232   0.0000       4.623298       125.8063 
 233   0.0000       4.623298       125.8063 
 234   0.0000       4.667789       127.0170 
 235   0.0000       4.667789       127.0170 
 236   0.0000       4.671423       127.1159 
 237   0.0000       4.700895       127.9178 
 238   0.0000       4.700895       127.9178 
 239   0.0000       4.812021       130.9417 
 240   0.0000       4.812021       130.9418 
 241   0.0000       4.842157       131.7618 
 242   0.0000       4.929170       134.1295 
 243   0.0000       4.929170       134.1295 
 244   0.0000       5.048441       137.3751 
 245   0.0000       5.048442       137.3751 
 246   0.0000       5.223745       142.1453 
 247   0.0000       5.223746       142.1454 
 248   0.0000       5.400532       146.9559 
 249   0.0000       5.400532       146.9559 
 250   0.0000       5.516590       150.1140 
 251   0.0000       5.540367       150.7610 
 252   0.0000       5.540367       150.7610 
 253   0.0000       5.576650       151.7484 
 254   0.0000       5.598883       152.3533 
 255   0.0000       5.598883       152.3533 
 256   0.0000       5.652108       153.8017 
 257   0.0000       5.652108       153.8017 
 258   0.0000       5.887678       160.2119 
 259   0.0000       5.952541       161.9769 
 260   0.0000       5.952541       161.9769 
 261   0.0000       6.075145       165.3131 
 262   0.0000       6.075145       165.3131 
 263   0.0000       6.305869       171.5914 
 264   0.0000       6.359398       173.0480 
 265   0.0000       6.359399       173.0480 
 266   0.0000       6.465272       175.9290 
 267   0.0000       6.709409       182.5723 
 268   0.0000       6.709409       182.5723 
 269   0.0000       6.807813       185.2500 
 270   0.0000       6.807813       185.2500 
 271   0.0000       6.832267       185.9154 
 272   0.0000       6.832268       185.9155 
 273   0.0000       6.995404       190.3546 
 274   0.0000       7.028002       191.2417 
 275   0.0000       7.028026       191.2423 
 276   0.0000       7.116019       193.6367 
 277   0.0000       7.116019       193.6367 
 278   0.0000       7.139705       194.2813 
 279   0.0000       7.249755       197.2759 
 280   0.0000       7.249756       197.2759 
 281   0.0000       7.292920       198.4504 
 282   0.0000       7.292920       198.4504 
 283   0.0000       7.755241       211.0308 
 284   0.0000       7.967540       216.8078 
 285   0.0000       7.967540       216.8078 
 286   0.0000       8.122206       221.0165 
 287   0.0000       8.431542       229.4339 
 288   0.0000       8.688319       236.4212 
 289   0.0000       8.688319       236.4212 
 290   0.0000       8.848784       240.7877 
 291   0.0000       8.848784       240.7877 
 292   0.0000       8.903274       242.2704 
 293   0.0000       9.218179       250.8394 
 294   0.0000       9.218179       250.8394 
 295   0.0000       9.795291       266.5434 
 296   0.0000       9.795291       266.5434 
 297   0.0000       9.859866       268.3006 
 298   0.0000      10.194314       277.4014 
 299   0.0000      10.194315       277.4014 
 300   0.0000      10.260554       279.2039 
 301   0.0000      10.260554       279.2039 
 302   0.0000      10.339861       281.3619 
 303   0.0000      10.339861       281.3619 
 304   0.0000      10.370830       282.2046 
 305   0.0000      10.423727       283.6440 
 306   0.0000      10.423728       283.6441 
 307   0.0000      10.428505       283.7740 
 308   0.0000      10.428505       283.7740 
 309   0.0000      10.681362       290.6546 
 310   0.0000      10.681362       290.6546 
 311   0.0000      11.101488       302.0869 
 312   0.0000      11.101490       302.0869 
 313   0.0000      11.171807       304.0003 
 314   0.0000      11.171807       304.0003 
 315   0.0000      11.184767       304.3530 
 316   0.0000      11.336801       308.4900 
 317   0.0000      11.397506       310.1419 
 318   0.0000      11.397506       310.1419 
 319   0.0000      11.404843       310.3416 
 320   0.0000      11.404843       310.3416 
 321   0.0000      11.544675       314.1466 
 322   0.0000      11.544677       314.1466 
 323   0.0000      11.648965       316.9844 
 324   0.0000      11.648967       316.9845 
 325   0.0000      11.774512       320.4008 
 326   0.0000      11.774515       320.4008 
 327   0.0000      11.829261       321.8906 
 328   0.0000      11.829261       321.8906 
 329   0.0000      11.836153       322.0781 
 330   0.0000      11.836157       322.0782 
 331   0.0000      12.006253       326.7068 
 332   0.0000      12.006254       326.7068 
 333   0.0000      12.076890       328.6289 
 334   0.0000      12.076890       328.6289 
 335   0.0000      12.210528       332.2653 
 336   0.0000      12.210573       332.2666 
 337   0.0000      12.259919       333.6094 
 338   0.0000      12.518653       340.6499 
 339   0.0000      12.518653       340.6499 
 340   0.0000      12.520638       340.7039 
 341   0.0000      12.578193       342.2700 
 342   0.0000      12.578193       342.2700 
 343   0.0000      12.634699       343.8076 
 344   0.0000      12.634705       343.8078 
 345   0.0000      12.679642       345.0306 
 346   0.0000      12.679642       345.0306 
 347   0.0000      13.008138       353.9694 
 348   0.0000      13.008138       353.9694 
 349   0.0000      13.279787       361.3614 
 350   0.0000      13.681502       372.2926 
 351   0.0000      13.681502       372.2926 
 352   0.0000      13.892953       378.0465 
 353   0.0000      14.121363       384.2618 
 354   0.0000      14.121364       384.2619 
 355   0.0000      14.133685       384.5971 
 356   0.0000      14.133685       384.5971 
 357   0.0000      14.267986       388.2516 
 358   0.0000      14.267988       388.2517 
 359   0.0000      14.540608       395.6700 
 360   0.0000      14.540608       395.6700 
 361   0.0000      14.544911       395.7872 
 362   0.0000      14.629126       398.0788 
 363   0.0000      14.629126       398.0788 
 364   0.0000      14.908678       405.6857 
 365   0.0000      14.908678       405.6857 
 366   0.0000      15.016628       408.6232 
 367   0.0000      15.016633       408.6234 
 368   0.0000      15.064594       409.9284 
 369   0.0000      15.064594       409.9284 
 370   0.0000      15.074468       410.1971 
 371   0.0000      15.370539       418.2536 
 372   0.0000      15.370548       418.2539 
 373   0.0000      15.857445       431.5030 
 374   0.0000      15.990233       435.1164 
 375   0.0000      15.990233       435.1164 
 376   0.0000      16.091007       437.8586 
 377   0.0000      16.427855       447.0247 
 378   0.0000      16.570129       450.8961 
 379   0.0000      16.570130       450.8961 
 380   0.0000      16.663719       453.4428 
 381   0.0000      16.663719       453.4428 
 382   0.0000      16.957557       461.4386 
 383   0.0000      16.957565       461.4388 
 384   0.0000      17.016009       463.0292 
 385   0.0000      17.706975       481.8313 
 386   0.0000      17.706975       481.8313 
 387   0.0000      18.379892       500.1423 
 388   0.0000      18.379892       500.1423 
 389   0.0000      18.455289       502.1939 
 390   0.0000      18.536588       504.4062 
 391   0.0000      20.002707       544.3013 
 392   0.0000      20.002873       544.3058 
 393   0.0000      20.164982       548.7170 
 394   0.0000      20.164982       548.7170 
 395   0.0000      20.167806       548.7939 
 396   0.0000      20.167806       548.7939 
 397   0.0000      20.642430       561.7091 
 398   0.0000      21.027680       572.1923 
 399   0.0000      21.027701       572.1928 
 400   0.0000      22.329037       607.6040 
 401   0.0000      22.329037       607.6040 
 402   0.0000      22.751375       619.0964 
 403   0.0000      24.159354       657.4094 
 404   0.0000      24.803541       674.9387 
 405   0.0000      26.375542       717.7150 
 406   0.0000      26.375542       717.7150 
 407   0.0000      28.376628       772.1673 
 408   0.0000      30.277376       823.8893 
 409   0.0000      30.277592       823.8952 
 410   0.0000      31.083174       845.8162 
 411   0.0000      31.083174       845.8162 
 412   0.0000      31.915277       868.4588 
 413   0.0000      31.915299       868.4594 
 414   0.0000      32.024995       871.4444 
 415   0.0000      33.142963       901.8659 
 416   0.0000      33.142963       901.8659 
 417   0.0000      35.952354       978.3133 
 418   0.0000      41.776234      1136.7891 
 419   0.0000      41.776234      1136.7891 
 420   0.0000      42.172009      1147.5587 
 421   0.0000      44.880598      1221.2631 
 422   0.0000      47.710788      1298.2765 
 423   0.0000      47.710829      1298.2777 
 424   0.0000      48.137341      1309.8836 
 425   0.0000      48.137341      1309.8836 
 426   0.0000      49.038258      1334.3988 
 427   0.0000      76.882613      2092.0823 
 428   0.0000      91.188187      2481.3567 
 429   0.0000      91.188276      2481.3591 
 430   0.0000      91.717284      2495.7542 
 431   0.0000      91.717284      2495.7542 
 432   0.0000      92.594469      2519.6236 
 433   0.0000     105.384693      2867.6633 
 434   0.0000     202.824468      5519.1344 

                 SPIN DOWN ORBITALS
  NO   OCC          E(Eh)            E(eV) 
   0   1.0000     -24.387672      -663.6223 
   1   1.0000     -14.014062      -381.3420 
   2   1.0000     -10.024949      -272.7927 
   3   1.0000      -1.255731       -34.1702 
   4   1.0000      -0.859995       -23.4016 
   5   1.0000      -0.635354       -17.2888 
   6   1.0000      -0.512336       -13.9414 
   7   1.0000      -0.512336       -13.9414 
   8   1.0000      -0.350756        -9.5446 
   9   1.0000      -0.320605        -8.7241 
  10   1.0000      -0.320605        -8.7241 
  11   0.0000      -0.056733        -1.5438 
  12   0.0000      -0.009183        -0.2499 
  13   0.0000      -0.009183        -0.2499 
  14   0.0000       0.016563         0.4507 
  15   0.0000       0.016563         0.4507 
  16   0.0000       0.016722         0.4550 
  17   0.0000       0.025910         0.7050 
  18   0.0000       0.053557         1.4573 
  19   0.0000       0.055599         1.5129 
  20   0.0000       0.055599         1.5129 
  21   0.0000       0.065765         1.7895 
  22   0.0000       0.065765         1.7895 
  23   0.0000       0.067957         1.8492 
  24   0.0000       0.083643         2.2760 
  25   0.0000       0.083643         2.2760 
  26   0.0000       0.091087         2.4786 
  27   0.0000       0.109115         2.9692 
  28   0.0000       0.109640         2.9835 
  29   0.0000       0.109640         2.9835 
  30   0.0000       0.136395         3.7115 
  31   0.0000       0.153740         4.1835 
  32   0.0000       0.153740         4.1835 
  33   0.0000       0.177257         4.8234 
  34   0.0000       0.177257         4.8234 
  35   0.0000       0.189692         5.1618 
  36   0.0000       0.189692         5.1618 
  37   0.0000       0.194721         5.2986 
  38   0.0000       0.195248         5.3130 
  39   0.0000       0.195248         5.3130 
  40   0.0000       0.210896         5.7388 
  41   0.0000       0.210896         5.7388 
  42   0.0000       0.212110         5.7718 
  43   0.0000       0.218001         5.9321 
  44   0.0000       0.232853         6.3363 
  45   0.0000       0.232853         6.3363 
  46   0.0000       0.241438         6.5699 
  47   0.0000       0.262708         7.1487 
  48   0.0000       0.262708         7.1487 
  49   0.0000       0.289383         7.8745 
  50   0.0000       0.289383         7.8745 
  51   0.0000       0.309722         8.4280 
  52   0.0000       0.339337         9.2338 
  53   0.0000       0.339337         9.2338 
  54   0.0000       0.345643         9.4054 
  55   0.0000       0.345643         9.4054 
  56   0.0000       0.345760         9.4086 
  57   0.0000       0.345760         9.4086 
  58   0.0000       0.354564         9.6482 
  59   0.0000       0.375267        10.2115 
  60   0.0000       0.375267        10.2115 
  61   0.0000       0.381494        10.3810 
  62   0.0000       0.381494        10.3810 
  63   0.0000       0.413921        11.2634 
  64   0.0000       0.435360        11.8467 
  65   0.0000       0.435360        11.8467 
  66   0.0000       0.446794        12.1579 
  67   0.0000       0.447149        12.1675 
  68   0.0000       0.447149        12.1675 
  69   0.0000       0.453502        12.3404 
  70   0.0000       0.454916        12.3789 
  71   0.0000       0.454916        12.3789 
  72   0.0000       0.477960        13.0059 
  73   0.0000       0.477960        13.0059 
  74   0.0000       0.488877        13.3030 
  75   0.0000       0.492438        13.3999 
  76   0.0000       0.494280        13.4500 
  77   0.0000       0.494280        13.4500 
  78   0.0000       0.510435        13.8896 
  79   0.0000       0.510435        13.8897 
  80   0.0000       0.516598        14.0574 
  81   0.0000       0.516599        14.0574 
  82   0.0000       0.529246        14.4015 
  83   0.0000       0.529246        14.4015 
  84   0.0000       0.551222        14.9995 
  85   0.0000       0.551222        14.9995 
  86   0.0000       0.554440        15.0871 
  87   0.0000       0.554440        15.0871 
  88   0.0000       0.570602        15.5269 
  89   0.0000       0.570602        15.5269 
  90   0.0000       0.621997        16.9254 
  91   0.0000       0.647717        17.6253 
  92   0.0000       0.647717        17.6253 
  93   0.0000       0.664626        18.0854 
  94   0.0000       0.664626        18.0854 
  95   0.0000       0.691802        18.8249 
  96   0.0000       0.691802        18.8249 
  97   0.0000       0.696015        18.9395 
  98   0.0000       0.717448        19.5228 
  99   0.0000       0.730894        19.8886 
 100   0.0000       0.730894        19.8886 
 101   0.0000       0.741475        20.1766 
 102   0.0000       0.741475        20.1766 
 103   0.0000       0.761004        20.7080 
 104   0.0000       0.774023        21.0622 
 105   0.0000       0.774023        21.0622 
 106   0.0000       0.780649        21.2426 
 107   0.0000       0.780649        21.2426 
 108   0.0000       0.789035        21.4707 
 109   0.0000       0.789035        21.4707 
 110   0.0000       0.814940        22.1756 
 111   0.0000       0.881499        23.9868 
 112   0.0000       0.883533        24.0422 
 113   0.0000       0.883533        24.0422 
 114   0.0000       0.887031        24.1373 
 115   0.0000       0.887031        24.1373 
 116   0.0000       0.887922        24.1616 
 117   0.0000       0.887922        24.1616 
 118   0.0000       0.912094        24.8193 
 119   0.0000       0.922936        25.1144 
 120   0.0000       0.922936        25.1144 
 121   0.0000       0.934099        25.4181 
 122   0.0000       0.934099        25.4181 
 123   0.0000       0.947068        25.7710 
 124   0.0000       0.947068        25.7710 
 125   0.0000       0.959193        26.1010 
 126   0.0000       0.959193        26.1010 
 127   0.0000       0.971279        26.4298 
 128   0.0000       0.971279        26.4299 
 129   0.0000       0.972190        26.4546 
 130   0.0000       0.997499        27.1433 
 131   0.0000       1.000481        27.2245 
 132   0.0000       1.000481        27.2245 
 133   0.0000       1.080971        29.4147 
 134   0.0000       1.080972        29.4147 
 135   0.0000       1.095273        29.8039 
 136   0.0000       1.095273        29.8039 
 137   0.0000       1.096629        29.8408 
 138   0.0000       1.096629        29.8408 
 139   0.0000       1.126395        30.6508 
 140   0.0000       1.126395        30.6508 
 141   0.0000       1.140399        31.0318 
 142   0.0000       1.176031        32.0014 
 143   0.0000       1.176031        32.0014 
 144   0.0000       1.188618        32.3439 
 145   0.0000       1.243149        33.8278 
 146   0.0000       1.243149        33.8278 
 147   0.0000       1.272529        34.6273 
 148   0.0000       1.272529        34.6273 
 149   0.0000       1.273973        34.6666 
 150   0.0000       1.273974        34.6666 
 151   0.0000       1.301828        35.4245 
 152   0.0000       1.301828        35.4245 
 153   0.0000       1.324496        36.0414 
 154   0.0000       1.345432        36.6111 
 155   0.0000       1.358782        36.9743 
 156   0.0000       1.358782        36.9743 
 157   0.0000       1.396190        37.9923 
 158   0.0000       1.396190        37.9923 
 159   0.0000       1.459541        39.7161 
 160   0.0000       1.459541        39.7161 
 161   0.0000       1.474242        40.1162 
 162   0.0000       1.474242        40.1162 
 163   0.0000       1.488717        40.5100 
 164   0.0000       1.527381        41.5621 
 165   0.0000       1.539398        41.8891 
 166   0.0000       1.539398        41.8891 
 167   0.0000       1.599104        43.5138 
 168   0.0000       1.599104        43.5138 
 169   0.0000       1.625880        44.2424 
 170   0.0000       1.676770        45.6272 
 171   0.0000       1.676770        45.6272 
 172   0.0000       1.735742        47.2320 
 173   0.0000       1.735742        47.2320 
 174   0.0000       1.810362        49.2624 
 175   0.0000       1.869290        50.8660 
 176   0.0000       1.879002        51.1302 
 177   0.0000       1.879002        51.1302 
 178   0.0000       1.963031        53.4168 
 179   0.0000       1.963031        53.4168 
 180   0.0000       1.974541        53.7300 
 181   0.0000       1.974541        53.7300 
 182   0.0000       2.128372        57.9160 
 183   0.0000       2.128372        57.9160 
 184   0.0000       2.148090        58.4525 
 185   0.0000       2.148090        58.4525 
 186   0.0000       2.177489        59.2525 
 187   0.0000       2.280445        62.0541 
 188   0.0000       2.285485        62.1912 
 189   0.0000       2.285485        62.1912 
 190   0.0000       2.359327        64.2006 
 191   0.0000       2.359327        64.2006 
 192   0.0000       2.414019        65.6888 
 193   0.0000       2.414019        65.6888 
 194   0.0000       2.417247        65.7766 
 195   0.0000       2.446755        66.5796 
 196   0.0000       2.446755        66.5796 
 197   0.0000       2.471366        67.2493 
 198   0.0000       2.535643        68.9983 
 199   0.0000       2.535643        68.9983 
 200   0.0000       2.579961        70.2043 
 201   0.0000       2.579961        70.2043 
 202   0.0000       2.664625        72.5081 
 203   0.0000       2.812198        76.5238 
 204   0.0000       2.908508        79.1445 
 205   0.0000       2.908508        79.1445 
 206   0.0000       2.976473        80.9939 
 207   0.0000       3.058397        83.2232 
 208   0.0000       3.058397        83.2232 
 209   0.0000       3.095013        84.2196 
 210   0.0000       3.095013        84.2196 
 211   0.0000       3.393625        92.3452 
 212   0.0000       3.393625        92.3452 
 213   0.0000       3.410646        92.8084 
 214   0.0000       3.475484        94.5727 
 215   0.0000       3.475484        94.5727 
 216   0.0000       3.561783        96.9211 
 217   0.0000       3.735837       101.6573 
 218   0.0000       3.735837       101.6573 
 219   0.0000       3.898875       106.0938 
 220   0.0000       4.030675       109.6802 
 221   0.0000       4.040449       109.9462 
 222   0.0000       4.040450       109.9462 
 223   0.0000       4.098046       111.5135 
 224   0.0000       4.098046       111.5135 
 225   0.0000       4.113551       111.9354 
 226   0.0000       4.113551       111.9354 
 227   0.0000       4.127653       112.3191 
 228   0.0000       4.127653       112.3191 
 229   0.0000       4.202526       114.3565 
 230   0.0000       4.202526       114.3565 
 231   0.0000       4.255353       115.7940 
 232   0.0000       4.623298       125.8063 
 233   0.0000       4.623298       125.8063 
 234   0.0000       4.667789       127.0170 
 235   0.0000       4.667789       127.0170 
 236   0.0000       4.671423       127.1159 
 237   0.0000       4.700895       127.9178 
 238   0.0000       4.700895       127.9178 
 239   0.0000       4.812021       130.9417 
 240   0.0000       4.812021       130.9418 
 241   0.0000       4.842157       131.7618 
 242   0.0000       4.929170       134.1295 
 243   0.0000       4.929170       134.1295 
 244   0.0000       5.048441       137.3751 
 245   0.0000       5.048442       137.3751 
 246   0.0000       5.223745       142.1453 
 247   0.0000       5.223746       142.1454 
 248   0.0000       5.400532       146.9559 
 249   0.0000       5.400532       146.9559 
 250   0.0000       5.516590       150.1140 
 251   0.0000       5.540367       150.7610 
 252   0.0000       5.540367       150.7610 
 253   0.0000       5.576650       151.7484 
 254   0.0000       5.598883       152.3533 
 255   0.0000       5.598883       152.3533 
 256   0.0000       5.652108       153.8017 
 257   0.0000       5.652108       153.8017 
 258   0.0000       5.887678       160.2119 
 259   0.0000       5.952541       161.9769 
 260   0.0000       5.952541       161.9769 
 261   0.0000       6.075145       165.3131 
 262   0.0000       6.075145       165.3131 
 263   0.0000       6.305869       171.5914 
 264   0.0000       6.359398       173.0480 
 265   0.0000       6.359399       173.0480 
 266   0.0000       6.465272       175.9290 
 267   0.0000       6.709409       182.5723 
 268   0.0000       6.709409       182.5723 
 269   0.0000       6.807813       185.2500 
 270   0.0000       6.807813       185.2500 
 271   0.0000       6.832267       185.9154 
 272   0.0000       6.832268       185.9155 
 273   0.0000       6.995404       190.3546 
 274   0.0000       7.028002       191.2417 
 275   0.0000       7.028026       191.2423 
 276   0.0000       7.116019       193.6367 
 277   0.0000       7.116019       193.6367 
 278   0.0000       7.139705       194.2813 
 279   0.0000       7.249755       197.2759 
 280   0.0000       7.249756       197.2759 
 281   0.0000       7.292920       198.4504 
 282   0.0000       7.292920       198.4504 
 283   0.0000       7.755241       211.0308 
 284   0.0000       7.967540       216.8078 
 285   0.0000       7.967540       216.8078 
 286   0.0000       8.122206       221.0165 
 287   0.0000       8.431542       229.4339 
 288   0.0000       8.688319       236.4212 
 289   0.0000       8.688319       236.4212 
 290   0.0000       8.848784       240.7877 
 291   0.0000       8.848784       240.7877 
 292   0.0000       8.903274       242.2704 
 293   0.0000       9.218179       250.8394 
 294   0.0000       9.218179       250.8394 
 295   0.0000       9.795291       266.5434 
 296   0.0000       9.795291       266.5434 
 297   0.0000       9.859866       268.3006 
 298   0.0000      10.194314       277.4014 
 299   0.0000      10.194315       277.4014 
 300   0.0000      10.260554       279.2039 
 301   0.0000      10.260554       279.2039 
 302   0.0000      10.339861       281.3619 
 303   0.0000      10.339861       281.3619 
 304   0.0000      10.370830       282.2046 
 305   0.0000      10.423727       283.6440 
 306   0.0000      10.423728       283.6441 
 307   0.0000      10.428505       283.7740 
 308   0.0000      10.428505       283.7740 
 309   0.0000      10.681362       290.6546 
 310   0.0000      10.681362       290.6546 
 311   0.0000      11.101488       302.0869 
 312   0.0000      11.101490       302.0869 
 313   0.0000      11.171807       304.0003 
 314   0.0000      11.171807       304.0003 
 315   0.0000      11.184767       304.3530 
 316   0.0000      11.336801       308.4900 
 317   0.0000      11.397506       310.1419 
 318   0.0000      11.397506       310.1419 
 319   0.0000      11.404843       310.3416 
 320   0.0000      11.404843       310.3416 
 321   0.0000      11.544675       314.1466 
 322   0.0000      11.544677       314.1466 
 323   0.0000      11.648965       316.9844 
 324   0.0000      11.648967       316.9845 
 325   0.0000      11.774512       320.4008 
 326   0.0000      11.774515       320.4008 
 327   0.0000      11.829261       321.8906 
 328   0.0000      11.829261       321.8906 
 329   0.0000      11.836153       322.0781 
 330   0.0000      11.836157       322.0782 
 331   0.0000      12.006253       326.7068 
 332   0.0000      12.006254       326.7068 
 333   0.0000      12.076890       328.6289 
 334   0.0000      12.076890       328.6289 
 335   0.0000      12.210528       332.2653 
 336   0.0000      12.210573       332.2666 
 337   0.0000      12.259919       333.6094 
 338   0.0000      12.518653       340.6499 
 339   0.0000      12.518653       340.6499 
 340   0.0000      12.520638       340.7039 
 341   0.0000      12.578193       342.2700 
 342   0.0000      12.578193       342.2700 
 343   0.0000      12.634699       343.8076 
 344   0.0000      12.634705       343.8078 
 345   0.0000      12.679642       345.0306 
 346   0.0000      12.679642       345.0306 
 347   0.0000      13.008138       353.9694 
 348   0.0000      13.008138       353.9694 
 349   0.0000      13.279787       361.3614 
 350   0.0000      13.681502       372.2926 
 351   0.0000      13.681502       372.2926 
 352   0.0000      13.892953       378.0465 
 353   0.0000      14.121363       384.2618 
 354   0.0000      14.121364       384.2619 
 355   0.0000      14.133685       384.5971 
 356   0.0000      14.133685       384.5971 
 357   0.0000      14.267986       388.2516 
 358   0.0000      14.267988       388.2517 
 359   0.0000      14.540608       395.6700 
 360   0.0000      14.540608       395.6700 
 361   0.0000      14.544911       395.7872 
 362   0.0000      14.629126       398.0788 
 363   0.0000      14.629126       398.0788 
 364   0.0000      14.908678       405.6857 
 365   0.0000      14.908678       405.6857 
 366   0.0000      15.016628       408.6232 
 367   0.0000      15.016633       408.6234 
 368   0.0000      15.064594       409.9284 
 369   0.0000      15.064594       409.9284 
 370   0.0000      15.074468       410.1971 
 371   0.0000      15.370539       418.2536 
 372   0.0000      15.370548       418.2539 
 373   0.0000      15.857445       431.5030 
 374   0.0000      15.990233       435.1164 
 375   0.0000      15.990233       435.1164 
 376   0.0000      16.091007       437.8586 
 377   0.0000      16.427855       447.0247 
 378   0.0000      16.570129       450.8961 
 379   0.0000      16.570130       450.8961 
 380   0.0000      16.663719       453.4428 
 381   0.0000      16.663719       453.4428 
 382   0.0000      16.957557       461.4386 
 383   0.0000      16.957565       461.4388 
 384   0.0000      17.016009       463.0292 
 385   0.0000      17.706975       481.8313 
 386   0.0000      17.706975       481.8313 
 387   0.0000      18.379892       500.1423 
 388   0.0000      18.379892       500.1423 
 389   0.0000      18.455289       502.1939 
 390   0.0000      18.536588       504.4062 
 391   0.0000      20.002707       544.3013 
 392   0.0000      20.002873       544.3058 
 393   0.0000      20.164982       548.7170 
 394   0.0000      20.164982       548.7170 
 395   0.0000      20.167806       548.7939 
 396   0.0000      20.167806       548.7939 
 397   0.0000      20.642430       561.7091 
 398   0.0000      21.027680       572.1923 
 399   0.0000      21.027701       572.1928 
 400   0.0000      22.329037       607.6040 
 401   0.0000      22.329037       607.6040 
 402   0.0000      22.751375       619.0964 
 403   0.0000      24.159354       657.4094 
 404   0.0000      24.803541       674.9387 
 405   0.0000      26.375542       717.7150 
 406   0.0000      26.375542       717.7150 
 407   0.0000      28.376628       772.1673 
 408   0.0000      30.277376       823.8893 
 409   0.0000      30.277592       823.8952 
 410   0.0000      31.083174       845.8162 
 411   0.0000      31.083174       845.8162 
 412   0.0000      31.915277       868.4588 
 413   0.0000      31.915299       868.4594 
 414   0.0000      32.024995       871.4444 
 415   0.0000      33.142963       901.8659 
 416   0.0000      33.142963       901.8659 
 417   0.0000      35.952354       978.3133 
 418   0.0000      41.776234      1136.7891 
 419   0.0000      41.776234      1136.7891 
 420   0.0000      42.172009      1147.5587 
 421   0.0000      44.880598      1221.2631 
 422   0.0000      47.710788      1298.2765 
 423   0.0000      47.710829      1298.2777 
 424   0.0000      48.137341      1309.8836 
 425   0.0000      48.137341      1309.8836 
 426   0.0000      49.038258      1334.3988 
 427   0.0000      76.882613      2092.0823 
 428   0.0000      91.188187      2481.3567 
 429   0.0000      91.188276      2481.3591 
 430   0.0000      91.717284      2495.7542 
 431   0.0000      91.717284      2495.7542 
 432   0.0000      92.594469      2519.6236 
 433   0.0000     105.384693      2867.6633 
 434   0.0000     202.824468      5519.1344 

                    ********************************
                    * MULLIKEN POPULATION ANALYSIS *
                    ********************************

--------------------------------------------
MULLIKEN ATOMIC CHARGES AND SPIN POPULATIONS
--------------------------------------------
   0 C :    0.196836   -0.000000
   1 F :   -0.271434    0.000000
   2 N :    0.074598    0.000000
Sum of atomic charges         :   -0.0000000
Sum of atomic spin populations:    0.0000000

-----------------------------------------------------
MULLIKEN REDUCED ORBITAL CHARGES AND SPIN POPULATIONS
-----------------------------------------------------
CHARGE
  0 C s       :     2.984186  s :     2.984186
      pz      :     0.782054  p :     2.611311
      px      :     0.914628
      py      :     0.914628
      dz2     :     0.033032  d :     0.184005
      dxz     :     0.075487
      dyz     :     0.075487
      dx2y2   :    -0.000000
      dxy     :     0.000000
      f0      :     0.008625  f :     0.019769
      f+1     :     0.005572
      f-1     :     0.005572
      f+2     :    -0.000000
      f-2     :     0.000000
      f+3     :     0.000000
      f-3     :     0.000000
      g0      :     0.000639  g :     0.003832
      g+1     :     0.001596
      g-1     :     0.001596
      g+2     :    -0.000000
      g-2     :     0.000000
      g+3     :     0.000000
      g-3     :     0.000000
      g+4     :     0.000000
      g-4     :     0.000000
      h0      :     0.000037  h :     0.000061
      h+1     :     0.000012
      h-1     :     0.000012
      h+2     :     0.000000
      h-2     :     0.000000
      h+3     :     0.000000
      h-3     :     0.000000
      h+4     :     0.000000
      h-4     :     0.000000
      h+5     :     0.000000
      h-5     :     0.000000
  1 F s       :     3.955881  s :     3.955881
      pz      :     1.456929  p :     5.254454
      px      :     1.898762
      py      :     1.898762
      dz2     :     0.014018  d :     0.056003
      dxz     :     0.020992
      dyz     :     0.020992
      dx2y2   :     0.000000
      dxy     :     0.000000
      f0      :     0.000573  f :     0.005413
      f+1     :     0.002420
      f-1     :     0.002420
      f+2     :    -0.000000
      f-2     :    -0.000000
      f+3     :     0.000000
      f-3     :     0.000000
      g0      :    -0.000112  g :    -0.000240
      g+1     :    -0.000064
      g-1     :    -0.000064
      g+2     :     0.000000
      g-2     :    -0.000000
      g+3     :     0.000000
      g-3     :     0.000000
      g+4     :     0.000000
      g-4     :    -0.000000
      h0      :    -0.000030  h :    -0.000077
      h+1     :    -0.000023
      h-1     :    -0.000023
      h+2     :     0.000000
      h-2     :    -0.000000
      h+3     :    -0.000000
      h-3     :    -0.000000
      h+4     :     0.000000
      h-4     :     0.000000
      h+5     :     0.000000
      h-5     :     0.000000
  2 N s       :     3.643236  s :     3.643236
      pz      :     1.113611  p :     3.234314
      px      :     1.060351
      py      :     1.060351
      dz2     :     0.006665  d :     0.040557
      dxz     :     0.016946
      dyz     :     0.016946
      dx2y2   :     0.000000
      dxy     :    -0.000000
      f0      :     0.000447  f :     0.006166
      f+1     :     0.002860
      f-1     :     0.002860
      f+2     :     0.000000
      f-2     :     0.000000
      f+3     :     0.000000
      f-3     :     0.000000
      g0      :     0.000154  g :     0.001100
      g+1     :     0.000473
      g-1     :     0.000473
      g+2     :    -0.000000
      g-2     :    -0.000000
      g+3     :     0.000000
      g-3     :     0.000000
      g+4     :     0.000000
      g-4     :    -0.000000
      h0      :     0.000054  h :     0.000029
      h+1     :    -0.000013
      h-1     :    -0.000013
      h+2     :     0.000000
      h-2     :     0.000000
      h+3     :     0.000000
      h-3     :     0.000000
      h+4     :     0.000000
      h-4     :     0.000000
      h+5     :     0.000000
      h-5     :     0.000000

SPIN
  0 C s       :    -0.000000  s :    -0.000000
      pz      :     0.000000  p :     0.000000
      px      :    -0.000000
      py      :    -0.000000
      dz2     :    -0.000000  d :    -0.000000
      dxz     :    -0.000000
      dyz     :    -0.000000
      dx2y2   :    -0.000000
      dxy     :     0.000000
      f0      :     0.000000  f :     0.000000
      f+1     :     0.000000
      f-1     :     0.000000
      f+2     :     0.000000
      f-2     :    -0.000000
      f+3     :    -0.000000
      f-3     :    -0.000000
      g0      :    -0.000000  g :    -0.000000
      g+1     :     0.000000
      g-1     :     0.000000
      g+2     :    -0.000000
      g-2     :     0.000000
      g+3     :    -0.000000
      g-3     :     0.000000
      g+4     :    -0.000000
      g-4     :    -0.000000
      h0      :     0.000000  h :     0.000000
      h+1     :     0.000000
      h-1     :     0.000000
      h+2     :    -0.000000
      h-2     :    -0.000000
      h+3     :     0.000000
      h-3     :    -0.000000
      h+4     :     0.000000
      h-4     :     0.000000
      h+5     :     0.000000
      h-5     :    -0.000000
  1 F s       :     0.000000  s :     0.000000
      pz      :     0.000000  p :     0.000000
      px      :     0.000000
      py      :     0.000000
      dz2     :     0.000000  d :     0.000000
      dxz     :     0.000000
      dyz     :     0.000000
      dx2y2   :     0.000000
      dxy     :    -0.000000
      f0      :    -0.000000  f :    -0.000000
      f+1     :     0.000000
      f-1     :     0.000000
      f+2     :     0.000000
      f-2     :    -0.000000
      f+3     :    -0.000000
      f-3     :    -0.000000
      g0      :    -0.000000  g :    -0.000000
      g+1     :     0.000000
      g-1     :    -0.000000
      g+2     :     0.000000
      g-2     :     0.000000
      g+3     :    -0.000000
      g-3     :    -0.000000
      g+4     :     0.000000
      g-4     :    -0.000000
      h0      :    -0.000000  h :    -0.000000
      h+1     :     0.000000
      h-1     :    -0.000000
      h+2     :     0.000000
      h-2     :     0.000000
      h+3     :     0.000000
      h-3     :    -0.000000
      h+4     :    -0.000000
      h-4     :     0.000000
      h+5     :     0.000000
      h-5     :    -0.000000
  2 N s       :     0.000000  s :     0.000000
      pz      :    -0.000000  p :    -0.000000
      px      :     0.000000
      py      :    -0.000000
      dz2     :     0.000000  d :     0.000000
      dxz     :     0.000000
      dyz     :    -0.000000
      dx2y2   :     0.000000
      dxy     :     0.000000
      f0      :     0.000000  f :     0.000000
      f+1     :     0.000000
      f-1     :    -0.000000
      f+2     :    -0.000000
      f-2     :     0.000000
      f+3     :    -0.000000
      f-3     :     0.000000
      g0      :     0.000000  g :     0.000000
      g+1     :     0.000000
      g-1     :     0.000000
      g+2     :    -0.000000
      g-2     :    -0.000000
      g+3     :    -0.000000
      g-3     :     0.000000
      g+4     :    -0.000000
      g-4     :     0.000000
      h0      :    -0.000000  h :    -0.000000
      h+1     :     0.000000
      h-1     :     0.000000
      h+2     :    -0.000000
      h-2     :     0.000000
      h+3     :    -0.000000
      h-3     :     0.000000
      h+4     :    -0.000000
      h-4     :     0.000000
      h+5     :    -0.000000
      h-5     :     0.000000


                     *******************************
                     * LOEWDIN POPULATION ANALYSIS *
                     *******************************

-------------------------------------------
LOEWDIN ATOMIC CHARGES AND SPIN POPULATIONS
-------------------------------------------
   0 C :   -0.411624   -0.000000
   1 F :    0.250702    0.000000
   2 N :    0.160922    0.000000

----------------------------------------------------
LOEWDIN REDUCED ORBITAL CHARGES AND SPIN POPULATIONS
----------------------------------------------------
CHARGE
  0 C s       :     2.603251  s :     2.603251
      pz      :     1.041377  p :     2.456031
      px      :     0.707327
      py      :     0.707327
      dz2     :     0.393688  d :     0.942399
      dxz     :     0.274356
      dyz     :     0.274356
      dx2y2   :     0.000000
      dxy     :     0.000000
      f0      :     0.131650  f :     0.285849
      f+1     :     0.077100
      f-1     :     0.077100
      f+2     :     0.000000
      f-2     :     0.000000
      f+3     :     0.000000
      f-3     :     0.000000
      g0      :     0.027667  g :     0.109917
      g+1     :     0.041125
      g-1     :     0.041125
      g+2     :     0.000000
      g-2     :     0.000000
      g+3     :     0.000000
      g-3     :     0.000000
      g+4     :     0.000000
      g-4     :     0.000000
      h0      :     0.006176  h :     0.014176
      h+1     :     0.004000
      h-1     :     0.004000
      h+2     :     0.000000
      h-2     :     0.000000
      h+3     :     0.000000
      h-3     :     0.000000
      h+4     :     0.000000
      h-4     :     0.000000
      h+5     :     0.000000
      h-5     :     0.000000
  1 F s       :     3.322254  s :     3.322254
      pz      :     1.549173  p :     4.763979
      px      :     1.607403
      py      :     1.607403
      dz2     :     0.110009  d :     0.291917
      dxz     :     0.090954
      dyz     :     0.090954
      dx2y2   :     0.000000
      dxy     :     0.000000
      f0      :     0.061664  f :     0.187775
      f+1     :     0.063056
      f-1     :     0.063056
      f+2     :     0.000000
      f-2     :     0.000000
      f+3     :     0.000000
      f-3     :     0.000000
      g0      :     0.035986  g :     0.114833
      g+1     :     0.039424
      g-1     :     0.039424
      g+2     :     0.000000
      g-2     :     0.000000
      g+3     :     0.000000
      g-3     :     0.000000
      g+4     :     0.000000
      g-4     :     0.000000
      h0      :     0.019372  h :     0.068540
      h+1     :     0.024584
      h-1     :     0.024584
      h+2     :     0.000000
      h-2     :     0.000000
      h+3     :     0.000000
      h-3     :     0.000000
      h+4     :     0.000000
      h-4     :     0.000000
      h+5     :     0.000000
      h-5     :     0.000000
  2 N s       :     3.081280  s :     3.081280
      pz      :     1.377275  p :     3.196749
      px      :     0.909737
      py      :     0.909737
      dz2     :     0.109455  d :     0.235835
      dxz     :     0.063190
      dyz     :     0.063190
      dx2y2   :     0.000000
      dxy     :     0.000000
      f0      :     0.054521  f :     0.139282
      f+1     :     0.042381
      f-1     :     0.042381
      f+2     :     0.000000
      f-2     :     0.000000
      f+3     :     0.000000
      f-3     :     0.000000
      g0      :     0.044630  g :     0.105913
      g+1     :     0.030642
      g-1     :     0.030642
      g+2     :     0.000000
      g-2     :     0.000000
      g+3     :     0.000000
      g-3     :     0.000000
      g+4     :     0.000000
      g-4     :     0.000000
      h0      :     0.030573  h :     0.080019
      h+1     :     0.024723
      h-1     :     0.024723
      h+2     :     0.000000
      h-2     :     0.000000
      h+3     :     0.000000
      h-3     :     0.000000
      h+4     :     0.000000
      h-4     :     0.000000
      h+5     :     0.000000
      h-5     :     0.000000

SPIN
  0 C s       :    -0.000000  s :    -0.000000
      pz      :     0.000000  p :     0.000000
      px      :    -0.000000
      py      :     0.000000
      dz2     :     0.000000  d :     0.000000
      dxz     :    -0.000000
      dyz     :     0.000000
      dx2y2   :    -0.000000
      dxy     :     0.000000
      f0      :     0.000000  f :     0.000000
      f+1     :     0.000000
      f-1     :     0.000000
      f+2     :    -0.000000
      f-2     :    -0.000000
      f+3     :    -0.000000
      f-3     :    -0.000000
      g0      :     0.000000  g :     0.000000
      g+1     :     0.000000
      g-1     :     0.000000
      g+2     :     0.000000
      g-2     :     0.000000
      g+3     :    -0.000000
      g-3     :     0.000000
      g+4     :    -0.000000
      g-4     :     0.000000
      h0      :     0.000000  h :     0.000000
      h+1     :     0.000000
      h-1     :    -0.000000
      h+2     :    -0.000000
      h-2     :     0.000000
      h+3     :    -0.000000
      h-3     :     0.000000
      h+4     :     0.000000
      h-4     :    -0.000000
      h+5     :     0.000000
      h-5     :    -0.000000
  1 F s       :    -0.000000  s :    -0.000000
      pz      :    -0.000000  p :    -0.000000
      px      :    -0.000000
      py      :    -0.000000
      dz2     :     0.000000  d :     0.000000
      dxz     :     0.000000
      dyz     :     0.000000
      dx2y2   :    -0.000000
      dxy     :    -0.000000
      f0      :     0.000000  f :     0.000000
      f+1     :    -0.000000
      f-1     :    -0.000000
      f+2     :     0.000000
      f-2     :    -0.000000
      f+3     :    -0.000000
      f-3     :    -0.000000
      g0      :     0.000000  g :     0.000000
      g+1     :    -0.000000
      g-1     :     0.000000
      g+2     :    -0.000000
      g-2     :     0.000000
      g+3     :    -0.000000
      g-3     :     0.000000
      g+4     :     0.000000
      g-4     :    -0.000000
      h0      :     0.000000  h :     0.000000
      h+1     :    -0.000000
      h-1     :    -0.000000
      h+2     :     0.000000
      h-2     :     0.000000
      h+3     :     0.000000
      h-3     :    -0.000000
      h+4     :    -0.000000
      h-4     :     0.000000
      h+5     :     0.000000
      h-5     :    -0.000000
  2 N s       :     0.000000  s :     0.000000
      pz      :     0.000000  p :     0.000000
      px      :     0.000000
      py      :    -0.000000
      dz2     :     0.000000  d :     0.000000
      dxz     :    -0.000000
      dyz     :     0.000000
      dx2y2   :     0.000000
      dxy     :     0.000000
      f0      :     0.000000  f :     0.000000
      f+1     :     0.000000
      f-1     :     0.000000
      f+2     :    -0.000000
      f-2     :     0.000000
      f+3     :     0.000000
      f-3     :     0.000000
      g0      :    -0.000000  g :    -0.000000
      g+1     :     0.000000
      g-1     :    -0.000000
      g+2     :    -0.000000
      g-2     :    -0.000000
      g+3     :    -0.000000
      g-3     :     0.000000
      g+4     :    -0.000000
      g-4     :     0.000000
      h0      :     0.000000  h :     0.000000
      h+1     :    -0.000000
      h-1     :     0.000000
      h+2     :    -0.000000
      h-2     :     0.000000
      h+3     :     0.000000
      h-3     :     0.000000
      h+4     :    -0.000000
      h-4     :     0.000000
      h+5     :    -0.000000
      h-5     :     0.000000


                      *****************************
                      * MAYER POPULATION ANALYSIS *
                      *****************************

  NA   - Mulliken gross atomic population
  ZA   - Total nuclear charge
  QA   - Mulliken gross atomic charge
  VA   - Mayer's total valence
  BVA  - Mayer's bonded valence
  FA   - Mayer's free valence

  ATOM       NA         ZA         QA         VA         BVA        FA
  0 C      5.8032     6.0000     0.1968     3.9083     3.9083    -0.0000
  1 F      9.2714     9.0000    -0.2714     1.2922     1.2922    -0.0000
  2 N      6.9254     7.0000     0.0746     3.0357     3.0357    -0.0000

  Mayer bond orders larger than 0.1
B(  0-C ,  1-F ) :   1.0824 B(  0-C ,  2-N ) :   2.8259 B(  1-F ,  2-N ) :   0.2098 


-------
TIMINGS
-------

Total SCF time: 0 days 0 hours 23 min 17 sec 

Total time                  ....    1397.498 sec
Sum of individual times     ....    1396.424 sec  ( 99.9%)

Fock matrix formation       ....    1391.888 sec  ( 99.6%)
  XC integration            ....      18.715 sec  (  1.3% of F)
    Basis function eval.    ....       1.159 sec  (  6.2% of XC)
    Density eval.           ....       4.151 sec  ( 22.2% of XC)
    XC-Functional eval.     ....       0.173 sec  (  0.9% of XC)
    XC-Potential eval.      ....      12.474 sec  ( 66.7% of XC)
Diagonalization             ....       1.952 sec  (  0.1%)
Density matrix formation    ....       0.029 sec  (  0.0%)
Population analysis         ....       0.177 sec  (  0.0%)
Initial guess               ....       0.905 sec  (  0.1%)
Orbital Transformation      ....       0.000 sec  (  0.0%)
Orbital Orthonormalization  ....       0.000 sec  (  0.0%)
DIIS solution               ....       1.058 sec  (  0.1%)
Grid generation             ....       0.416 sec  (  0.0%)

-------------------------   --------------------
FINAL SINGLE POINT ENERGY      -192.536664045807
-------------------------   --------------------


                            ***************************************
                            *     ORCA property calculations      *
                            ***************************************

                                    ---------------------
                                    Active property flags
                                    ---------------------
   (+) Dipole Moment
   (+) Polarizability


------------------------------------------------------------------------------
                       ORCA ELECTRIC PROPERTIES CALCULATION
------------------------------------------------------------------------------

Dipole Moment Calculation                       ... on
Quadrupole Moment Calculation                   ... off
Polarizability Calculation                      ... Analytic (CP-SCF)
GBWName                                         ... fcn_pbe.gbw
Electron density file                           ... fcn_pbe.scfp.tmp
The origin for moment calculation is the CENTER OF MASS  = ( 0.000000,  0.000000 -0.324975)

-------------
DIPOLE MOMENT
-------------
                                X             Y             Z
Electronic contribution:     -0.00000      -0.00000      -1.93117
Nuclear contribution   :      0.00000       0.00000       1.01728
                        -----------------------------------------
Total Dipole Moment    :     -0.00000      -0.00000      -0.91389
                        -----------------------------------------
Magnitude (a.u.)       :      0.91389
Magnitude (Debye)      :      2.32292



--------------------
Rotational spectrum 
--------------------
 
Rotational constants in cm-1:     0.000000     0.353105     0.353105 
Rotational constants in MHz :     0.000000 10585.833831 10585.833831 

 Dipole components along the rotational axes: 
x,y,z [a.u.] :    -0.913889    -0.000000    -0.000000 
x,y,z [Debye]:    -2.322922    -0.000000    -0.000000 

 
Transforming and storing MO dipole integrals   ... done

                ... starting polarizability calculation

Opening the Dipole integral file               ... (fcn_pbe.dmo.tmp) done
Reading Dipole-MO integrals                    ... done
Solving CP-SCF equations                       ... 

           ************************************************************
           *        Program running with 4 parallel MPI-processes     *
           *              working on a common directory               *
           ************************************************************

------------------------------------------------------------------------------
                           ORCA CP-SCF CALCULATION
------------------------------------------------------------------------------

Input orbitals are from        ... fcn_pbe.gbw
Input Perturbation             ... fcn_pbe.cpv.tmp
Wavefunction output            ... fcn_pbe.cpu.tmp
Perturbation mode              ... Real perturbation (singlet)
Solver                         ... POPLE
Max. number of iterations      ... 200
Convergence tolerance          ... 1.000e-06
Integral handling              ... Direct
Number of perturbations        ... 3
Number of operators            ... 2
Orbital ranges used for CP-SCF:
 Operator 0:  Orbitals   0... 10  to  11...434
 Operator 1:  Orbitals   0... 10  to  11...434
DFT calculation                         ... on
Exchange functional (SCF)               ... PBE
Exchange functional (CP-SCF)            ... PBE
   PBE kappa parameter  XKappa (SCF)    ...  0.804000
   PBE kappa parameter  XKappa (CP-SCF) ...  0.804000
   PBE mue parameter   XMuePBE (SCF)    ...  0.219520
   PBE mue parameter   XMuePBE (CP-SCF) ...  0.219520
Correlation functional (SCF)            ... PBE
Correlation functional (CP-SCF)         ... PBE
   PBE beta parameter CBetaPBE (SCF)    ...  0.066725
   PBE beta parameter CBetaPBE (CP-SCF) ...  0.066725
 LDA part of GGA corr.  LDAOpt (SCF)    ... PW91-LDA
 LDA part of GGA corr.  LDAOpt (CP-SCF) ... PW91-LDA
Variables per vector in CP-SCF ... 9328
Number of vectors sought       ... 3
Recalculating density on grid  ... done
Calculating the xc-kernel      ... done
     CP-SCF ITERATION   0: 
     CP-SCF ITERATION   1:      0.345198660741
     CP-SCF ITERATION   2:      0.026289742717
     CP-SCF ITERATION   3:      0.000979763688
     CP-SCF ITERATION   4:      0.000036396351
     CP-SCF ITERATION   5:      0.000000526400
done
Reading CP-SCF coefficients                    ... done
Doing the polarizability tensor   ... done
Cleaning up                                    ... done

-------------------------
THE POLARIZABILITY TENSOR
-------------------------

The raw cartesian tensor (atomic units):
   15.50324      0.00000     -0.00000  
    0.00000     15.50324     -0.00000  
   -0.00000     -0.00000     26.75434  
diagonalized tensor: 
   15.50324     15.50324     26.75434  

    0.63265     -0.77444     -0.00000  
   -0.77444     -0.63265     -0.00000  
   -0.00000     -0.00000      1.00000  

Isotropic polarizability :  19.25361


Timings for individual modules:

Sum of individual times         ...     2328.049 sec (=  38.801 min)
GTO integral calculation        ...        2.450 sec (=   0.041 min)   0.1 %
SCF iterations                  ...     1397.801 sec (=  23.297 min)  60.0 %
Solution of CP-SCF eqns.        ...      927.798 sec (=  15.463 min)  39.9 %
                             ****ORCA TERMINATED NORMALLY****
TOTAL RUN TIME: 0 days 0 hours 38 minutes 48 seconds 976 msec
