
                                 *****************
                                 * O   R   C   A *
                                 *****************

           --- An Ab Initio, DFT and Semiempirical electronic structure package ---

                  #######################################################
                  #                        -***-                        #
                  #          Department of theory and spectroscopy      #
                  #               Directorship: Frank Neese             #
                  #        Max Planck Institute fuer Kohlenforschung    #
                  #                Kaiser Wilhelm Platz 1               #
                  #                 D-45470 Muelheim/Ruhr               #
                  #                      Germany                        #
                  #                                                     #
                  #                  All rights reserved                #
                  #                        -***-                        #
                  #######################################################


                         Program Version 4.1.2  - RELEASE  -


 With contributions from (in alphabetic order):
   Daniel Aravena         : Magnetic Properties
   Michael Atanasov       : Ab Initio Ligand Field Theory
   Alexander A. Auer      : GIAO ZORA
   Ute Becker             : Parallelization
   Giovanni Bistoni       : ED, Open-shell LED
   Martin Brehm           : Molecular dynamics
   Dmytro Bykov           : SCF Hessian
   Vijay G. Chilkuri      : MRCI spin determinant printing
   Dipayan Datta          : RHF DLPNO-CCSD density
   Achintya Kumar Dutta   : EOM-CC, STEOM-CC
   Dmitry Ganyushin       : Spin-Orbit,Spin-Spin,Magnetic field MRCI
   Miquel Garcia          : C-PCM Hessian
   Yang Guo               : DLPNO-NEVPT2, CIM, IAO-localization
   Andreas Hansen         : Spin unrestricted coupled pair/coupled cluster methods
   Benjamin Helmich-Paris : CASSCF linear response (MC-RPA)
   Lee Huntington         : MR-EOM, pCC
   Robert Izsak           : Overlap fitted RIJCOSX, COSX-SCS-MP3, EOM
   Christian Kollmar      : KDIIS, OOCD, Brueckner-CCSD(T), CCSD density
   Simone Kossmann        : Meta GGA functionals, TD-DFT gradient, OOMP2, MP2 Hessian
   Martin Krupicka        : AUTO-CI
   Lucas Lang             : DCDCAS
   Dagmar Lenk            : GEPOL surface, SMD
   Dimitrios Liakos       : Extrapolation schemes; parallel MDCI
   Dimitrios Manganas     : ROCIS; embedding schemes
   Dimitrios Pantazis     : SARC Basis sets
   Taras Petrenko         : DFT Hessian,TD-DFT gradient, ASA, ECA, R-Raman, ABS, FL, XAS/XES, NRVS
   Peter Pinski           : DLPNO-MP2, DLPNO-MP2 Gradient
   Christoph Reimann      : Effective Core Potentials
   Marius Retegan         : Local ZFS, SOC
   Christoph Riplinger    : Optimizer, TS searches, QM/MM, DLPNO-CCSD(T), (RO)-DLPNO pert. Triples
   Tobias Risthaus        : Range-separated hybrids, TD-DFT gradient, RPA, STAB
   Michael Roemelt        : Restricted open shell CIS
   Masaaki Saitow         : Open-shell DLPNO
   Barbara Sandhoefer     : DKH picture change effects
   Avijit Sen             : IP-ROCIS
   Kantharuban Sivalingam : CASSCF convergence, NEVPT2, FIC-MRCI
   Bernardo de Souza      : ESD, SOC TD-DFT
   Georgi Stoychev        : AutoAux, RI-MP2 NMR
   Willem Van den Heuvel  : Paramagnetic NMR
   Boris Wezisla          : Elementary symmetry handling
   Frank Wennmohs         : Technical directorship


 We gratefully acknowledge several colleagues who have allowed us to
 interface, adapt or use parts of their codes:
   Stefan Grimme, W. Hujo, H. Kruse,             : VdW corrections, initial TS optimization,
                  C. Bannwarth                     DFT functionals, gCP, sTDA/sTD-DF
   Ed Valeev                                     : LibInt (2-el integral package), F12 methods
   Garnet Chan, S. Sharma, J. Yang, R. Olivares  : DMRG
   Ulf Ekstrom                                   : XCFun DFT Library
   Mihaly Kallay                                 : mrcc  (arbitrary order and MRCC methods)
   Andreas Klamt, Michael Diedenhofen            : otool_cosmo (COSMO solvation model)
   Jiri Pittner, Ondrej Demel                    : Mk-CCSD
   Frank Weinhold                                : gennbo (NPA and NBO analysis)
   Christopher J. Cramer and Donald G. Truhlar   : smd solvation model
   Lars Goerigk                                  : TD-DFT with DH, B97 family of functionals
   V. Asgeirsson, H. Jonsson                     : NEB implementation
   FAccTs GmbH                                   : IRC, NEB, NEB-TS, Multilevel


 Your calculation uses the libint2 library for the computation of 2-el integrals
 For citations please refer to: http://libint.valeyev.net

 This ORCA versions uses:
   CBLAS   interface :  Fast vector & matrix operations
   LAPACKE interface :  Fast linear algebra routines
   SCALAPACK package :  Parallel linear algebra routines


----- Orbital basis set information -----
Your calculation utilizes the basis: aug-pc-4
   H, C-F              : F. Jensen, J. Chem. Phys. 115, 9113 (2001).
                         F. Jensen, J. Chem. Phys. 116, 7372 (2002).
                         F. Jensen, J. Chem. Phys. 117, 9234 (2002).
   Si-Cl               : F. Jensen, T. Helgaker, J. Chem. Phys. 121, 3463 (2004).
   He-B, Ne-Mg, Al, Ar : F. Jensen, J. Phys. Chem. A 111, 11198 (2007).
   K, Ca, Ga-Kr        : F. Jensen, J. Chem. Phys. 136, 094110 (2012).
   Sc-Zn               : F. Jensen, J. Chem. Phys. 138, 014107 (2013).

================================================================================
                                        WARNINGS
                       Please study these warnings very carefully!
================================================================================


INFO   : the flag for use of LIBINT has been found!

================================================================================
                                       INPUT FILE
================================================================================
NAME = fco_pbe.inp
|  1> !uks pbe nori aug-pc-4 grid5 nofinalgrid verytightscf
|  2> 
|  3> %maxcore 1500
|  4> 
|  5> %pal nprocs 4 end
|  6> 
|  7> %scf
|  8> 	maxiter 200
|  9> end
| 10> %elprop
| 11> 	dipole true
| 12> 	 polar 1
| 13> 	 maxiter 200
| 14> end
| 15> 
| 16> * xyz 0 2
| 17> F -1.0211 -0.4211 0.0000
| 18> C 0.0000 0.4249 0.0000
| 19> O 1.1487 0.1550 0.0000
| 20> *
| 21> 
| 22>                          ****END OF INPUT****
================================================================================

                       ****************************
                       * Single Point Calculation *
                       ****************************

---------------------------------
CARTESIAN COORDINATES (ANGSTROEM)
---------------------------------
  F     -1.021100   -0.421100    0.000000
  C      0.000000    0.424900    0.000000
  O      1.148700    0.155000    0.000000

----------------------------
CARTESIAN COORDINATES (A.U.)
----------------------------
  NO LB      ZA    FRAG     MASS         X           Y           Z
   0 F     9.0000    0    18.998   -1.929599   -0.795764    0.000000
   1 C     6.0000    0    12.011    0.000000    0.802945    0.000000
   2 O     8.0000    0    15.999    2.170728    0.292908    0.000000

--------------------------------
INTERNAL COORDINATES (ANGSTROEM)
--------------------------------
 F      0   0   0     0.000000000000     0.00000000     0.00000000
 C      1   0   0     1.326032130078     0.00000000     0.00000000
 O      2   1   0     1.179982076135   127.13518348     0.00000000

---------------------------
INTERNAL COORDINATES (A.U.)
---------------------------
 F      0   0   0     0.000000000000     0.00000000     0.00000000
 C      1   0   0     2.505837570628     0.00000000     0.00000000
 O      2   1   0     2.229842966831   127.13518348     0.00000000

---------------------
BASIS SET INFORMATION
---------------------
There are 3 groups of distinct atoms

 Group   1 Type F   : 27s12p7d4f3g2h contracted to 9s8p7d4f3g2h pattern {1191111111/51111111/1111111/1111/111/11}
 Group   2 Type C   : 28s12p7d4f3g2h contracted to 9s8p7d4f3g2h pattern {11101111111/51111111/1111111/1111/111/11}
 Group   3 Type O   : 27s12p7d4f3g2h contracted to 9s8p7d4f3g2h pattern {1191111111/51111111/1111111/1111/111/11}

Atom   0F    basis set group =>   1
Atom   1C    basis set group =>   2
Atom   2O    basis set group =>   3


           ************************************************************
           *        Program running with 4 parallel MPI-processes     *
           *              working on a common directory               *
           ************************************************************
------------------------------------------------------------------------------
                           ORCA GTO INTEGRAL CALCULATION
------------------------------------------------------------------------------

                         BASIS SET STATISTICS AND STARTUP INFO

 # of primitive gaussian shells          ...  166
 # of primitive gaussian functions       ...  526
 # of contracted shells                  ...   99
 # of contracted basis functions         ...  435
 Highest angular momentum                ...    5
 Maximum contraction depth               ...   11
 Integral package used                   ... LIBINT
 Integral threshhold            Thresh   ...  1.000e-12
 Primitive cut-off              TCut     ...  1.000e-14


------------------------------ INTEGRAL EVALUATION ----------------------------


 * One electron integrals 
 Pre-screening matrix                    ... done
 Shell pair data                         ... done (   0.002 sec)



           ************************************************************
           *        Program running with 4 parallel MPI-processes     *
           *              working on a common directory               *
           ************************************************************
-------------------------------------------------------------------------------
                                 ORCA SCF
-------------------------------------------------------------------------------

------------
SCF SETTINGS
------------
Hamiltonian:
 Density Functional     Method          .... DFT(GTOs)
 Exchange Functional    Exchange        .... PBE
   PBE kappa parameter   XKappa         ....  0.804000
   PBE mue parameter    XMuePBE         ....  0.219520
 Correlation Functional Correlation     .... PBE
   PBE beta parameter  CBetaPBE         ....  0.066725
 LDA part of GGA corr.  LDAOpt          .... PW91-LDA
 Gradients option       PostSCFGGA      .... off
   Density functional embedding theory  .... OFF
   NL short-range parameter             ....  6.400000


General Settings:
 Integral files         IntName         .... fco_pbe
 Hartree-Fock type      HFTyp           .... UHF
 Total Charge           Charge          ....    0
 Multiplicity           Mult            ....    2
 Number of Electrons    NEL             ....   23
 Basis Dimension        Dim             ....  435
 Nuclear Repulsion      ENuc            ....     60.0474165731 Eh

Convergence Acceleration:
 DIIS                   CNVDIIS         .... on
   Start iteration      DIISMaxIt       ....    12
   Startup error        DIISStart       ....  0.200000
   # of expansion vecs  DIISMaxEq       ....     5
   Bias factor          DIISBfac        ....   1.050
   Max. coefficient     DIISMaxC        ....  10.000
 Newton-Raphson         CNVNR           .... off
 SOSCF                  CNVSOSCF        .... off
 Level Shifting         CNVShift        .... on
   Level shift para.    LevelShift      ....    0.2500
   Turn off err/grad.   ShiftErr        ....    0.0010
 Zerner damping         CNVZerner       .... off
 Static damping         CNVDamp         .... on
   Fraction old density DampFac         ....    0.7000
   Max. Damping (<1)    DampMax         ....    0.9800
   Min. Damping (>=0)   DampMin         ....    0.0000
   Turn off err/grad.   DampErr         ....    0.1000
 Fernandez-Rico         CNVRico         .... off

SCF Procedure:
 Maximum # iterations   MaxIter         ....   200
 SCF integral mode      SCFMode         .... Direct
   Integral package                     .... LIBINT
 Reset frequency        DirectResetFreq ....    20
 Integral Threshold     Thresh          ....  1.000e-12 Eh
 Primitive CutOff       TCut            ....  1.000e-14 Eh

Convergence Tolerance:
 Convergence Check Mode ConvCheckMode   .... Total+1el-Energy
 Convergence forced     ConvForced      .... 0
 Energy Change          TolE            ....  1.000e-09 Eh
 1-El. energy change                    ....  1.000e-06 Eh
 DIIS Error             TolErr          ....  1.000e-08


Diagonalization of the overlap matrix:
Smallest eigenvalue                        ... 6.558e-07
Time for diagonalization                   ...    0.040 sec
Threshold for overlap eigenvalues          ... 1.000e-08
Number of eigenvalues below threshold      ... 0
Time for construction of square roots      ...    0.036 sec
Total time needed                          ...    0.078 sec

-------------------
DFT GRID GENERATION
-------------------

General Integration Accuracy     IntAcc      ...  5.010
Radial Grid Type                 RadialGrid  ... Gauss-Chebyshev
Angular Grid (max. acc.)         AngularGrid ... Lebedev-434
Angular grid pruning method      GridPruning ... 3 (G Style)
Weight generation scheme         WeightScheme... Becke
Basis function cutoff            BFCut       ...    1.0000e-12
Integration weight cutoff        WCut        ...    1.0000e-14
Grids for H and He will be reduced by one unit

# of grid points (after initial pruning)     ...  32358 (   0.0 sec)
# of grid points (after weights+screening)   ...  32067 (   0.0 sec)
nearest neighbour list constructed           ...    0.0 sec
Grid point re-assignment to atoms done       ...    0.0 sec
Grid point division into batches done        ...    0.3 sec
Reduced shell lists constructed in    0.4 sec

Total number of grid points                  ...    32067
Total number of batches                      ...      502
Average number of points per batch           ...       63
Average number of grid points per atom       ...    10689
Average number of shells per batch           ...    61.40 (62.02%)
Average number of basis functions per batch  ...   282.83 (65.02%)
Average number of large shells per batch     ...    52.50 (85.50%)
Average number of large basis fcns per batch ...   242.92 (85.89%)
Maximum spatial batch extension              ...  17.41, 16.27, 18.34 au
Average spatial batch extension              ...   1.08,  1.14,  1.12 au

Time for grid setup =    0.424 sec

------------------------------
INITIAL GUESS: MODEL POTENTIAL
------------------------------
Loading Hartree-Fock densities                     ... done
Calculating cut-offs                               ... done
Setting up the integral package                    ... done
Initializing the effective Hamiltonian             ... done
Starting the Coulomb interaction                   ... done (   0.0 sec)
Reading the grid                                   ... done
Mapping shells                                     ... done
Starting the XC term evaluation                    ... done (   0.7 sec)
  promolecular density results
     # of electrons  =     22.999999060
     EX              =    -23.200224794
     EC              =     -0.771514864
     EX+EC           =    -23.971739658
Transforming the Hamiltonian                       ... done (   0.0 sec)
Diagonalizing the Hamiltonian                      ... done (   0.0 sec)
Back transforming the eigenvectors                 ... done (   0.0 sec)
Now organizing SCF variables                       ... done
                      ------------------
                      INITIAL GUESS DONE (   1.3 sec)
                      ------------------
--------------
SCF ITERATIONS
--------------
ITER       Energy         Delta-E        Max-DP      RMS-DP      [F,P]     Damp
               ***  Starting incremental Fock matrix formation  ***
  0   -212.9081688033   0.000000000000 0.01766415  0.00017332  0.2733853 0.7000
  1   -212.9595297079  -0.051360904595 0.01118794  0.00009123  0.0418480 0.7000
                               ***Turning on DIIS***
  2   -212.9659149012  -0.006385193333 0.02204561  0.00016142  0.0492784 0.0000
  3   -212.9999329205  -0.034018019276 0.00432466  0.00003774  0.0353774 0.0000
  4   -213.0013782807  -0.001445360182 0.00142709  0.00001485  0.0195120 0.0000
  5   -213.0018937156  -0.000515434918 0.00092703  0.00001074  0.0096599 0.0000
  6   -213.0020177885  -0.000124072875 0.00102051  0.00000641  0.0023433 0.0000
  7   -213.0020291548  -0.000011366321 0.00053298  0.00000295  0.0011873 0.0000
  8   -213.0020324800  -0.000003325161 0.00021930  0.00000196  0.0004220 0.0000
  9   -213.0020337417  -0.000001261768 0.00009730  0.00000062  0.0002598 0.0000
 10   -213.0020338696  -0.000000127822 0.00001802  0.00000016  0.0000253 0.0000
 11   -213.0020338779  -0.000000008369 0.00000381  0.00000004  0.0000235 0.0000
 12   -213.0020338791  -0.000000001195 0.00000305  0.00000003  0.0000059 0.0000
 13   -213.0020338795  -0.000000000362 0.00000241  0.00000002  0.0000058 0.0000
 14   -213.0020338796  -0.000000000106 0.00000355  0.00000004  0.0000010 0.0000
 15   -213.0020338796  -0.000000000037 0.00001412  0.00000008  0.0000003 0.0000
 16   -213.0020338796  -0.000000000006 0.00002437  0.00000013  0.0000003 0.0000
                 **** Energy Check signals convergence ****

               *****************************************************
               *                     SUCCESS                       *
               *           SCF CONVERGED AFTER  17 CYCLES          *
               *****************************************************


----------------
TOTAL SCF ENERGY
----------------

Total Energy       :         -213.00203388 Eh           -5796.08001 eV

Components:
Nuclear Repulsion  :           60.04741657 Eh            1633.97327 eV
Electronic Energy  :         -273.04945045 Eh           -7430.05328 eV
One Electron Energy:         -412.13654357 Eh          -11214.80550 eV
Two Electron Energy:          139.08709312 Eh            3784.75222 eV

Virial components:
Potential Energy   :         -425.36937587 Eh          -11574.88917 eV
Kinetic Energy     :          212.36734199 Eh            5778.80916 eV
Virial Ratio       :            2.00298865


DFT components:
N(Alpha)           :       11.999997857283 electrons
N(Beta)            :       10.999997843334 electrons
N(Total)           :       22.999995700617 electrons
E(X)               :      -23.383450045384 Eh       
E(C)               :       -0.769521284926 Eh       
E(XC)              :      -24.152971330309 Eh       
DFET-embed. en.    :        0.000000000000 Eh       

---------------
SCF CONVERGENCE
---------------

  Last Energy change         ...    3.9222e-12  Tolerance :   1.0000e-09
  Last MAX-Density change    ...    1.0179e-05  Tolerance :   1.0000e-08
  Last RMS-Density change    ...    6.0027e-08  Tolerance :   1.0000e-09
  Last DIIS Error            ...    4.3061e-08  Tolerance :   1.0000e-08

             **** THE GBW FILE WAS UPDATED (fco_pbe.gbw) ****
             **** DENSITY FILE WAS UPDATED (fco_pbe.scfp.tmp) ****
             **** ENERGY FILE WAS UPDATED (fco_pbe.en.tmp) ****
----------------------
UHF SPIN CONTAMINATION
----------------------

Warning: in a DFT calculation there is little theoretical justification to 
         calculate <S**2> as in Hartree-Fock theory. We will do it anyways
         but you should keep in mind that the values have only limited relevance

Expectation value of <S**2>     :     0.752831
Ideal value S*(S+1) for S=0.5   :     0.750000
Deviation                       :     0.002831

----------------
ORBITAL ENERGIES
----------------
                 SPIN UP ORBITALS
  NO   OCC          E(Eh)            E(eV) 
   0   1.0000     -24.340954      -662.3510 
   1   1.0000     -18.830105      -512.3932 
   2   1.0000     -10.074588      -274.1435 
   3   1.0000      -1.202569       -32.7236 
   4   1.0000      -1.037647       -28.2358 
   5   1.0000      -0.610023       -16.5996 
   6   1.0000      -0.485630       -13.2147 
   7   1.0000      -0.484757       -13.1909 
   8   1.0000      -0.482819       -13.1382 
   9   1.0000      -0.381727       -10.3873 
  10   1.0000      -0.369276       -10.0485 
  11   1.0000      -0.242072        -6.5871 
  12   0.0000      -0.091911        -2.5010 
  13   0.0000      -0.007695        -0.2094 
  14   0.0000       0.011634         0.3166 
  15   0.0000       0.014441         0.3930 
  16   0.0000       0.014492         0.3943 
  17   0.0000       0.050650         1.3782 
  18   0.0000       0.052245         1.4216 
  19   0.0000       0.055612         1.5133 
  20   0.0000       0.059506         1.6192 
  21   0.0000       0.061965         1.6861 
  22   0.0000       0.062136         1.6908 
  23   0.0000       0.072522         1.9734 
  24   0.0000       0.080792         2.1985 
  25   0.0000       0.082418         2.2427 
  26   0.0000       0.102732         2.7955 
  27   0.0000       0.115873         3.1531 
  28   0.0000       0.123664         3.3651 
  29   0.0000       0.132452         3.6042 
  30   0.0000       0.136183         3.7057 
  31   0.0000       0.140185         3.8146 
  32   0.0000       0.150223         4.0878 
  33   0.0000       0.177301         4.8246 
  34   0.0000       0.180282         4.9057 
  35   0.0000       0.183150         4.9838 
  36   0.0000       0.192621         5.2415 
  37   0.0000       0.194048         5.2803 
  38   0.0000       0.204354         5.5608 
  39   0.0000       0.212156         5.7731 
  40   0.0000       0.224421         6.1068 
  41   0.0000       0.230468         6.2713 
  42   0.0000       0.238784         6.4976 
  43   0.0000       0.242646         6.6027 
  44   0.0000       0.244824         6.6620 
  45   0.0000       0.248886         6.7725 
  46   0.0000       0.252579         6.8730 
  47   0.0000       0.258704         7.0397 
  48   0.0000       0.264553         7.1988 
  49   0.0000       0.292935         7.9712 
  50   0.0000       0.294306         8.0085 
  51   0.0000       0.298322         8.1177 
  52   0.0000       0.307048         8.3552 
  53   0.0000       0.312269         8.4973 
  54   0.0000       0.329560         8.9678 
  55   0.0000       0.331587         9.0229 
  56   0.0000       0.336761         9.1637 
  57   0.0000       0.337706         9.1894 
  58   0.0000       0.369753        10.0615 
  59   0.0000       0.385748        10.4967 
  60   0.0000       0.399115        10.8605 
  61   0.0000       0.402020        10.9395 
  62   0.0000       0.402144        10.9429 
  63   0.0000       0.413091        11.2408 
  64   0.0000       0.421591        11.4721 
  65   0.0000       0.430310        11.7093 
  66   0.0000       0.434010        11.8100 
  67   0.0000       0.440589        11.9890 
  68   0.0000       0.442606        12.0439 
  69   0.0000       0.460973        12.5437 
  70   0.0000       0.470776        12.8105 
  71   0.0000       0.477921        13.0049 
  72   0.0000       0.486322        13.2335 
  73   0.0000       0.497828        13.5466 
  74   0.0000       0.500427        13.6173 
  75   0.0000       0.508064        13.8251 
  76   0.0000       0.510845        13.9008 
  77   0.0000       0.525287        14.2938 
  78   0.0000       0.526733        14.3331 
  79   0.0000       0.534572        14.5464 
  80   0.0000       0.539807        14.6889 
  81   0.0000       0.542586        14.7645 
  82   0.0000       0.544356        14.8127 
  83   0.0000       0.550190        14.9714 
  84   0.0000       0.552955        15.0467 
  85   0.0000       0.573778        15.6133 
  86   0.0000       0.583378        15.8745 
  87   0.0000       0.594108        16.1665 
  88   0.0000       0.600238        16.3333 
  89   0.0000       0.611766        16.6470 
  90   0.0000       0.615457        16.7474 
  91   0.0000       0.625086        17.0095 
  92   0.0000       0.628429        17.1004 
  93   0.0000       0.644049        17.5255 
  94   0.0000       0.664832        18.0910 
  95   0.0000       0.669901        18.2289 
  96   0.0000       0.676311        18.4034 
  97   0.0000       0.692772        18.8513 
  98   0.0000       0.711333        19.3564 
  99   0.0000       0.715009        19.4564 
 100   0.0000       0.727982        19.8094 
 101   0.0000       0.743719        20.2376 
 102   0.0000       0.749879        20.4053 
 103   0.0000       0.769860        20.9490 
 104   0.0000       0.778896        21.1948 
 105   0.0000       0.782676        21.2977 
 106   0.0000       0.813171        22.1275 
 107   0.0000       0.817329        22.2406 
 108   0.0000       0.833523        22.6813 
 109   0.0000       0.852989        23.2110 
 110   0.0000       0.874174        23.7875 
 111   0.0000       0.877203        23.8699 
 112   0.0000       0.882596        24.0166 
 113   0.0000       0.885401        24.0930 
 114   0.0000       0.898725        24.4556 
 115   0.0000       0.904427        24.6107 
 116   0.0000       0.919777        25.0284 
 117   0.0000       0.922613        25.1056 
 118   0.0000       0.935022        25.4432 
 119   0.0000       0.946146        25.7459 
 120   0.0000       0.950317        25.8595 
 121   0.0000       0.976477        26.5713 
 122   0.0000       0.983487        26.7620 
 123   0.0000       0.993078        27.0230 
 124   0.0000       1.002126        27.2692 
 125   0.0000       1.015014        27.6199 
 126   0.0000       1.016094        27.6493 
 127   0.0000       1.024794        27.8861 
 128   0.0000       1.026664        27.9369 
 129   0.0000       1.046902        28.4877 
 130   0.0000       1.057545        28.7773 
 131   0.0000       1.058463        28.8022 
 132   0.0000       1.071361        29.1532 
 133   0.0000       1.087154        29.5830 
 134   0.0000       1.096155        29.8279 
 135   0.0000       1.110000        30.2046 
 136   0.0000       1.129802        30.7435 
 137   0.0000       1.131088        30.7785 
 138   0.0000       1.150265        31.3003 
 139   0.0000       1.151426        31.3319 
 140   0.0000       1.169310        31.8186 
 141   0.0000       1.169934        31.8355 
 142   0.0000       1.189961        32.3805 
 143   0.0000       1.201035        32.6818 
 144   0.0000       1.229649        33.4605 
 145   0.0000       1.231365        33.5071 
 146   0.0000       1.278952        34.8021 
 147   0.0000       1.284652        34.9572 
 148   0.0000       1.301556        35.4171 
 149   0.0000       1.314073        35.7578 
 150   0.0000       1.322252        35.9803 
 151   0.0000       1.330204        36.1967 
 152   0.0000       1.344916        36.5970 
 153   0.0000       1.351406        36.7736 
 154   0.0000       1.365427        37.1552 
 155   0.0000       1.370359        37.2894 
 156   0.0000       1.379628        37.5416 
 157   0.0000       1.402797        38.1720 
 158   0.0000       1.441180        39.2165 
 159   0.0000       1.474548        40.1245 
 160   0.0000       1.493757        40.6472 
 161   0.0000       1.522298        41.4238 
 162   0.0000       1.528691        41.5978 
 163   0.0000       1.529972        41.6326 
 164   0.0000       1.542481        41.9730 
 165   0.0000       1.574401        42.8416 
 166   0.0000       1.609238        43.7896 
 167   0.0000       1.672790        45.5189 
 168   0.0000       1.768959        48.1358 
 169   0.0000       1.786200        48.6050 
 170   0.0000       1.808053        49.1996 
 171   0.0000       1.840372        50.0791 
 172   0.0000       1.890229        51.4358 
 173   0.0000       1.907543        51.9069 
 174   0.0000       1.918056        52.1930 
 175   0.0000       1.973488        53.7013 
 176   0.0000       1.978137        53.8278 
 177   0.0000       2.001714        54.4694 
 178   0.0000       2.025710        55.1224 
 179   0.0000       2.091108        56.9019 
 180   0.0000       2.108966        57.3879 
 181   0.0000       2.119450        57.6732 
 182   0.0000       2.155238        58.6470 
 183   0.0000       2.163535        58.8728 
 184   0.0000       2.231722        60.7282 
 185   0.0000       2.243511        61.0490 
 186   0.0000       2.273667        61.8696 
 187   0.0000       2.299590        62.5750 
 188   0.0000       2.328088        63.3505 
 189   0.0000       2.361419        64.2575 
 190   0.0000       2.404124        65.4195 
 191   0.0000       2.416731        65.7626 
 192   0.0000       2.452770        66.7433 
 193   0.0000       2.478725        67.4495 
 194   0.0000       2.480409        67.4954 
 195   0.0000       2.515031        68.4375 
 196   0.0000       2.546241        69.2867 
 197   0.0000       2.572698        70.0067 
 198   0.0000       2.581632        70.2498 
 199   0.0000       2.589746        70.4706 
 200   0.0000       2.634746        71.6951 
 201   0.0000       2.662193        72.4420 
 202   0.0000       2.742302        74.6218 
 203   0.0000       2.819484        76.7221 
 204   0.0000       2.819673        76.7272 
 205   0.0000       2.981048        81.1184 
 206   0.0000       3.003636        81.7331 
 207   0.0000       3.049593        82.9837 
 208   0.0000       3.185141        86.6721 
 209   0.0000       3.311188        90.1020 
 210   0.0000       3.333591        90.7116 
 211   0.0000       3.352944        91.2383 
 212   0.0000       3.428697        93.2996 
 213   0.0000       3.462326        94.2147 
 214   0.0000       3.563217        96.9601 
 215   0.0000       3.776749       102.7706 
 216   0.0000       3.998460       108.8036 
 217   0.0000       4.015574       109.2693 
 218   0.0000       4.043243       110.0222 
 219   0.0000       4.089287       111.2751 
 220   0.0000       4.115268       111.9821 
 221   0.0000       4.156716       113.1100 
 222   0.0000       4.220782       114.8533 
 223   0.0000       4.306866       117.1958 
 224   0.0000       4.359443       118.6265 
 225   0.0000       4.375934       119.0752 
 226   0.0000       4.397631       119.6656 
 227   0.0000       4.442948       120.8988 
 228   0.0000       4.544265       123.6557 
 229   0.0000       4.612514       125.5129 
 230   0.0000       4.713761       128.2680 
 231   0.0000       4.725977       128.6004 
 232   0.0000       4.764436       129.6469 
 233   0.0000       4.803758       130.7169 
 234   0.0000       4.816219       131.0560 
 235   0.0000       4.830237       131.4374 
 236   0.0000       4.912818       133.6846 
 237   0.0000       5.034225       136.9882 
 238   0.0000       5.121528       139.3639 
 239   0.0000       5.145648       140.0202 
 240   0.0000       5.218114       141.9921 
 241   0.0000       5.243129       142.6728 
 242   0.0000       5.312247       144.5536 
 243   0.0000       5.417641       147.4215 
 244   0.0000       5.427105       147.6790 
 245   0.0000       5.444408       148.1499 
 246   0.0000       5.452070       148.3584 
 247   0.0000       5.497490       149.5943 
 248   0.0000       5.540975       150.7776 
 249   0.0000       5.587510       152.0439 
 250   0.0000       5.615318       152.8006 
 251   0.0000       5.783596       157.3796 
 252   0.0000       5.817095       158.2912 
 253   0.0000       5.823469       158.4647 
 254   0.0000       5.894092       160.3864 
 255   0.0000       5.917715       161.0292 
 256   0.0000       5.925379       161.2378 
 257   0.0000       5.978092       162.6722 
 258   0.0000       5.984364       162.8428 
 259   0.0000       6.115344       166.4070 
 260   0.0000       6.128614       166.7681 
 261   0.0000       6.173004       167.9760 
 262   0.0000       6.207780       168.9223 
 263   0.0000       6.214865       169.1151 
 264   0.0000       6.367833       173.2776 
 265   0.0000       6.431475       175.0093 
 266   0.0000       6.433188       175.0560 
 267   0.0000       6.446420       175.4160 
 268   0.0000       6.489978       176.6013 
 269   0.0000       6.564050       178.6169 
 270   0.0000       6.627683       180.3484 
 271   0.0000       6.915801       188.1885 
 272   0.0000       7.053670       191.9401 
 273   0.0000       7.068776       192.3512 
 274   0.0000       7.121220       193.7783 
 275   0.0000       7.146450       194.4648 
 276   0.0000       7.280374       198.1091 
 277   0.0000       7.286405       198.2732 
 278   0.0000       7.358834       200.2441 
 279   0.0000       7.570227       205.9963 
 280   0.0000       7.751950       210.9413 
 281   0.0000       8.035702       218.6626 
 282   0.0000       8.202009       223.1880 
 283   0.0000       8.233966       224.0576 
 284   0.0000       8.287689       225.5195 
 285   0.0000       8.295553       225.7335 
 286   0.0000       8.640229       235.1126 
 287   0.0000       8.995478       244.7794 
 288   0.0000       9.079398       247.0630 
 289   0.0000       9.302016       253.1207 
 290   0.0000       9.392367       255.5793 
 291   0.0000       9.632841       262.1229 
 292   0.0000       9.867198       268.5001 
 293   0.0000       9.892786       269.1964 
 294   0.0000      10.172345       276.8036 
 295   0.0000      10.218078       278.0480 
 296   0.0000      10.281601       279.7766 
 297   0.0000      10.282556       279.8026 
 298   0.0000      10.293793       280.1084 
 299   0.0000      10.327379       281.0223 
 300   0.0000      10.373457       282.2761 
 301   0.0000      10.577233       287.8211 
 302   0.0000      10.584814       288.0274 
 303   0.0000      10.696971       291.0794 
 304   0.0000      10.725514       291.8561 
 305   0.0000      10.815526       294.3054 
 306   0.0000      10.973954       298.6165 
 307   0.0000      11.142630       303.2064 
 308   0.0000      11.151865       303.4577 
 309   0.0000      11.241913       305.9080 
 310   0.0000      11.288563       307.1774 
 311   0.0000      11.508149       313.1527 
 312   0.0000      11.577464       315.0388 
 313   0.0000      11.605759       315.8088 
 314   0.0000      11.639337       316.7225 
 315   0.0000      11.684775       317.9589 
 316   0.0000      11.734176       319.3032 
 317   0.0000      11.753482       319.8285 
 318   0.0000      11.767412       320.2076 
 319   0.0000      11.881489       323.3118 
 320   0.0000      11.980995       326.0195 
 321   0.0000      11.982004       326.0469 
 322   0.0000      12.043726       327.7265 
 323   0.0000      12.044925       327.7591 
 324   0.0000      12.112430       329.5960 
 325   0.0000      12.119448       329.7870 
 326   0.0000      12.151801       330.6673 
 327   0.0000      12.177425       331.3646 
 328   0.0000      12.247461       333.2704 
 329   0.0000      12.251854       333.3899 
 330   0.0000      12.399304       337.4022 
 331   0.0000      12.421722       338.0123 
 332   0.0000      12.498712       340.1072 
 333   0.0000      12.582035       342.3746 
 334   0.0000      12.613886       343.2413 
 335   0.0000      12.617591       343.3421 
 336   0.0000      12.617623       343.3430 
 337   0.0000      12.630973       343.7062 
 338   0.0000      12.646233       344.1215 
 339   0.0000      12.768606       347.4514 
 340   0.0000      12.792675       348.1064 
 341   0.0000      12.830671       349.1403 
 342   0.0000      12.955181       352.5284 
 343   0.0000      12.959955       352.6583 
 344   0.0000      13.000859       353.7714 
 345   0.0000      13.090491       356.2104 
 346   0.0000      13.137476       357.4889 
 347   0.0000      13.253396       360.6432 
 348   0.0000      13.303207       361.9987 
 349   0.0000      13.371702       363.8625 
 350   0.0000      13.615675       370.5013 
 351   0.0000      13.619458       370.6043 
 352   0.0000      13.673066       372.0630 
 353   0.0000      13.877922       377.6374 
 354   0.0000      14.060122       382.5954 
 355   0.0000      14.070461       382.8767 
 356   0.0000      14.200802       386.4235 
 357   0.0000      14.268245       388.2587 
 358   0.0000      14.330705       389.9583 
 359   0.0000      14.596981       397.2041 
 360   0.0000      14.623087       397.9144 
 361   0.0000      14.660654       398.9367 
 362   0.0000      14.951945       406.8631 
 363   0.0000      14.980448       407.6387 
 364   0.0000      15.215268       414.0285 
 365   0.0000      15.274524       415.6409 
 366   0.0000      15.371786       418.2876 
 367   0.0000      15.523372       422.4124 
 368   0.0000      15.629931       425.3120 
 369   0.0000      15.807055       430.1318 
 370   0.0000      15.822950       430.5644 
 371   0.0000      16.430130       447.0866 
 372   0.0000      16.610129       451.9846 
 373   0.0000      16.943497       461.0560 
 374   0.0000      16.943632       461.0597 
 375   0.0000      17.019296       463.1186 
 376   0.0000      17.234017       468.9614 
 377   0.0000      17.237839       469.0655 
 378   0.0000      17.297102       470.6781 
 379   0.0000      17.333347       471.6643 
 380   0.0000      18.023415       490.4420 
 381   0.0000      18.077807       491.9221 
 382   0.0000      18.388251       500.3697 
 383   0.0000      18.547720       504.7091 
 384   0.0000      18.596062       506.0246 
 385   0.0000      18.820566       512.1336 
 386   0.0000      18.885480       513.9000 
 387   0.0000      18.943594       515.4814 
 388   0.0000      20.044236       545.4314 
 389   0.0000      20.044441       545.4370 
 390   0.0000      20.181557       549.1681 
 391   0.0000      20.195713       549.5533 
 392   0.0000      20.689458       562.9888 
 393   0.0000      20.841052       567.1138 
 394   0.0000      20.892395       568.5110 
 395   0.0000      21.884391       595.5046 
 396   0.0000      22.023236       599.2827 
 397   0.0000      22.227385       604.8379 
 398   0.0000      22.991683       625.6355 
 399   0.0000      23.049385       627.2057 
 400   0.0000      23.114123       628.9673 
 401   0.0000      24.005371       653.2193 
 402   0.0000      24.287775       660.9040 
 403   0.0000      26.575577       723.1582 
 404   0.0000      30.227783       822.5398 
 405   0.0000      30.307335       824.7045 
 406   0.0000      30.373128       826.4948 
 407   0.0000      30.615746       833.0968 
 408   0.0000      30.833075       839.0106 
 409   0.0000      31.415430       854.8573 
 410   0.0000      31.943675       869.2316 
 411   0.0000      32.030030       871.5814 
 412   0.0000      32.057948       872.3411 
 413   0.0000      32.260787       877.8607 
 414   0.0000      32.768452       891.6749 
 415   0.0000      34.028768       925.9699 
 416   0.0000      34.303019       933.4326 
 417   0.0000      34.630205       942.3358 
 418   0.0000      41.676853      1134.0848 
 419   0.0000      41.750673      1136.0936 
 420   0.0000      42.058938      1144.4819 
 421   0.0000      44.088610      1199.7121 
 422   0.0000      66.541393      1810.6834 
 423   0.0000      66.573647      1811.5610 
 424   0.0000      67.095476      1825.7607 
 425   0.0000      67.254531      1830.0888 
 426   0.0000      68.744669      1870.6375 
 427   0.0000      75.017867      2041.3399 
 428   0.0000      91.225978      2482.3851 
 429   0.0000      91.263475      2483.4054 
 430   0.0000      91.438768      2488.1754 
 431   0.0000      91.565528      2491.6247 
 432   0.0000      92.278284      2511.0198 
 433   0.0000     143.412947      3902.4647 
 434   0.0000     202.482260      5509.8224 

                 SPIN DOWN ORBITALS
  NO   OCC          E(Eh)            E(eV) 
   0   1.0000     -24.335888      -662.2132 
   1   1.0000     -18.824646      -512.2447 
   2   1.0000     -10.063953      -273.8541 
   3   1.0000      -1.191753       -32.4292 
   4   1.0000      -1.026524       -27.9331 
   5   1.0000      -0.594080       -16.1657 
   6   1.0000      -0.477499       -12.9934 
   7   1.0000      -0.472450       -12.8560 
   8   1.0000      -0.459534       -12.5046 
   9   1.0000      -0.376830       -10.2541 
  10   1.0000      -0.350303        -9.5322 
  11   0.0000      -0.173848        -4.7307 
  12   0.0000      -0.065356        -1.7784 
  13   0.0000       0.002256         0.0614 
  14   0.0000       0.016971         0.4618 
  15   0.0000       0.019561         0.5323 
  16   0.0000       0.020323         0.5530 
  17   0.0000       0.054616         1.4862 
  18   0.0000       0.056108         1.5268 
  19   0.0000       0.058100         1.5810 
  20   0.0000       0.065129         1.7722 
  21   0.0000       0.066216         1.8018 
  22   0.0000       0.068532         1.8649 
  23   0.0000       0.080125         2.1803 
  24   0.0000       0.089824         2.4442 
  25   0.0000       0.091199         2.4816 
  26   0.0000       0.107523         2.9258 
  27   0.0000       0.122837         3.3426 
  28   0.0000       0.128649         3.5007 
  29   0.0000       0.139172         3.7871 
  30   0.0000       0.143284         3.8989 
  31   0.0000       0.144910         3.9432 
  32   0.0000       0.159294         4.3346 
  33   0.0000       0.184997         5.0340 
  34   0.0000       0.186890         5.0855 
  35   0.0000       0.188596         5.1320 
  36   0.0000       0.204220         5.5571 
  37   0.0000       0.204282         5.5588 
  38   0.0000       0.209505         5.7009 
  39   0.0000       0.216888         5.9018 
  40   0.0000       0.234339         6.3767 
  41   0.0000       0.238803         6.4982 
  42   0.0000       0.245434         6.6786 
  43   0.0000       0.249658         6.7935 
  44   0.0000       0.252026         6.8580 
  45   0.0000       0.254136         6.9154 
  46   0.0000       0.261594         7.1183 
  47   0.0000       0.263965         7.1828 
  48   0.0000       0.273361         7.4385 
  49   0.0000       0.301457         8.2030 
  50   0.0000       0.302553         8.2329 
  51   0.0000       0.306039         8.3278 
  52   0.0000       0.313813         8.5393 
  53   0.0000       0.318693         8.6721 
  54   0.0000       0.335551         9.1308 
  55   0.0000       0.340342         9.2612 
  56   0.0000       0.350377         9.5342 
  57   0.0000       0.350640         9.5414 
  58   0.0000       0.376981        10.2582 
  59   0.0000       0.393595        10.7103 
  60   0.0000       0.405625        11.0376 
  61   0.0000       0.407924        11.1002 
  62   0.0000       0.414149        11.2696 
  63   0.0000       0.420768        11.4497 
  64   0.0000       0.429828        11.6962 
  65   0.0000       0.437289        11.8992 
  66   0.0000       0.443872        12.0784 
  67   0.0000       0.451461        12.2849 
  68   0.0000       0.451580        12.2881 
  69   0.0000       0.471593        12.8327 
  70   0.0000       0.480736        13.0815 
  71   0.0000       0.486341        13.2340 
  72   0.0000       0.493893        13.4395 
  73   0.0000       0.505291        13.7497 
  74   0.0000       0.505441        13.7537 
  75   0.0000       0.514801        14.0084 
  76   0.0000       0.520552        14.1649 
  77   0.0000       0.536007        14.5855 
  78   0.0000       0.536846        14.6083 
  79   0.0000       0.541419        14.7328 
  80   0.0000       0.549229        14.9453 
  81   0.0000       0.555822        15.1247 
  82   0.0000       0.556273        15.1369 
  83   0.0000       0.562876        15.3166 
  84   0.0000       0.563576        15.3357 
  85   0.0000       0.583107        15.8672 
  86   0.0000       0.592845        16.1321 
  87   0.0000       0.603951        16.4343 
  88   0.0000       0.609126        16.5752 
  89   0.0000       0.622697        16.9445 
  90   0.0000       0.623242        16.9593 
  91   0.0000       0.636019        17.3070 
  92   0.0000       0.637994        17.3607 
  93   0.0000       0.654012        17.7966 
  94   0.0000       0.673171        18.3179 
  95   0.0000       0.680740        18.5239 
  96   0.0000       0.687376        18.7044 
  97   0.0000       0.703604        19.1460 
  98   0.0000       0.718416        19.5491 
  99   0.0000       0.722540        19.6613 
 100   0.0000       0.737339        20.0640 
 101   0.0000       0.752165        20.4674 
 102   0.0000       0.759608        20.6700 
 103   0.0000       0.779204        21.2032 
 104   0.0000       0.788001        21.4426 
 105   0.0000       0.790983        21.5237 
 106   0.0000       0.818951        22.2848 
 107   0.0000       0.824686        22.4408 
 108   0.0000       0.839480        22.8434 
 109   0.0000       0.860503        23.4155 
 110   0.0000       0.881765        23.9941 
 111   0.0000       0.882247        24.0072 
 112   0.0000       0.892440        24.2845 
 113   0.0000       0.892561        24.2878 
 114   0.0000       0.905224        24.6324 
 115   0.0000       0.910914        24.7872 
 116   0.0000       0.927391        25.2356 
 117   0.0000       0.932420        25.3724 
 118   0.0000       0.948879        25.8203 
 119   0.0000       0.957106        26.0442 
 120   0.0000       0.958352        26.0781 
 121   0.0000       0.983143        26.7527 
 122   0.0000       0.986648        26.8481 
 123   0.0000       1.000064        27.2131 
 124   0.0000       1.017440        27.6860 
 125   0.0000       1.020523        27.7698 
 126   0.0000       1.027380        27.9564 
 127   0.0000       1.031623        28.0719 
 128   0.0000       1.032854        28.1054 
 129   0.0000       1.053568        28.6690 
 130   0.0000       1.064815        28.9751 
 131   0.0000       1.065935        29.0056 
 132   0.0000       1.077557        29.3218 
 133   0.0000       1.095702        29.8156 
 134   0.0000       1.106492        30.1092 
 135   0.0000       1.118821        30.4447 
 136   0.0000       1.135715        30.9044 
 137   0.0000       1.136128        30.9156 
 138   0.0000       1.158566        31.5262 
 139   0.0000       1.161863        31.6159 
 140   0.0000       1.177488        32.0411 
 141   0.0000       1.179746        32.1025 
 142   0.0000       1.198466        32.6119 
 143   0.0000       1.207525        32.8584 
 144   0.0000       1.238325        33.6965 
 145   0.0000       1.239265        33.7221 
 146   0.0000       1.286411        35.0050 
 147   0.0000       1.295994        35.2658 
 148   0.0000       1.309259        35.6268 
 149   0.0000       1.320637        35.9364 
 150   0.0000       1.329511        36.1778 
 151   0.0000       1.338946        36.4346 
 152   0.0000       1.356862        36.9221 
 153   0.0000       1.362989        37.0888 
 154   0.0000       1.372260        37.3411 
 155   0.0000       1.379667        37.5426 
 156   0.0000       1.386838        37.7378 
 157   0.0000       1.413425        38.4613 
 158   0.0000       1.457299        39.6551 
 159   0.0000       1.483625        40.3715 
 160   0.0000       1.499685        40.8085 
 161   0.0000       1.532878        41.7117 
 162   0.0000       1.535005        41.7696 
 163   0.0000       1.537258        41.8309 
 164   0.0000       1.550624        42.1946 
 165   0.0000       1.586172        43.1619 
 166   0.0000       1.623717        44.1836 
 167   0.0000       1.680186        45.7202 
 168   0.0000       1.780652        48.4540 
 169   0.0000       1.802482        49.0480 
 170   0.0000       1.822569        49.5946 
 171   0.0000       1.847588        50.2754 
 172   0.0000       1.906019        51.8654 
 173   0.0000       1.914670        52.1008 
 174   0.0000       1.930289        52.5258 
 175   0.0000       1.984058        53.9890 
 176   0.0000       1.995080        54.2889 
 177   0.0000       2.014143        54.8076 
 178   0.0000       2.036928        55.4276 
 179   0.0000       2.102525        57.2126 
 180   0.0000       2.119367        57.6709 
 181   0.0000       2.127384        57.8890 
 182   0.0000       2.172310        59.1116 
 183   0.0000       2.174365        59.1675 
 184   0.0000       2.258003        61.4434 
 185   0.0000       2.259403        61.4815 
 186   0.0000       2.292352        62.3781 
 187   0.0000       2.315028        62.9951 
 188   0.0000       2.337614        63.6097 
 189   0.0000       2.380493        64.7765 
 190   0.0000       2.420553        65.8666 
 191   0.0000       2.431200        66.1563 
 192   0.0000       2.463698        67.0406 
 193   0.0000       2.493066        67.8398 
 194   0.0000       2.502624        68.0999 
 195   0.0000       2.522630        68.6443 
 196   0.0000       2.555739        69.5452 
 197   0.0000       2.578402        70.1619 
 198   0.0000       2.593019        70.5596 
 199   0.0000       2.607191        70.9453 
 200   0.0000       2.645795        71.9958 
 201   0.0000       2.677573        72.8605 
 202   0.0000       2.760722        75.1231 
 203   0.0000       2.829446        76.9931 
 204   0.0000       2.847297        77.4789 
 205   0.0000       3.000010        81.6344 
 206   0.0000       3.013610        82.0045 
 207   0.0000       3.059715        83.2591 
 208   0.0000       3.200815        87.0986 
 209   0.0000       3.330423        90.6254 
 210   0.0000       3.348252        91.1106 
 211   0.0000       3.362909        91.5094 
 212   0.0000       3.438466        93.5654 
 213   0.0000       3.478100        94.6439 
 214   0.0000       3.579714        97.4090 
 215   0.0000       3.790894       103.1555 
 216   0.0000       4.014797       109.2482 
 217   0.0000       4.026904       109.5776 
 218   0.0000       4.061061       110.5071 
 219   0.0000       4.108114       111.7875 
 220   0.0000       4.129217       112.3617 
 221   0.0000       4.174952       113.6062 
 222   0.0000       4.236841       115.2903 
 223   0.0000       4.349891       118.3666 
 224   0.0000       4.403347       119.8212 
 225   0.0000       4.406293       119.9013 
 226   0.0000       4.421966       120.3278 
 227   0.0000       4.453955       121.1983 
 228   0.0000       4.571541       124.3980 
 229   0.0000       4.638500       126.2200 
 230   0.0000       4.744926       129.1160 
 231   0.0000       4.747361       129.1823 
 232   0.0000       4.810375       130.8970 
 233   0.0000       4.843258       131.7918 
 234   0.0000       4.851963       132.0286 
 235   0.0000       4.858581       132.2087 
 236   0.0000       4.944608       134.5496 
 237   0.0000       5.058402       137.6461 
 238   0.0000       5.134238       139.7097 
 239   0.0000       5.165327       140.5557 
 240   0.0000       5.222584       142.1137 
 241   0.0000       5.261132       143.1627 
 242   0.0000       5.319737       144.7574 
 243   0.0000       5.430280       147.7654 
 244   0.0000       5.439392       148.0134 
 245   0.0000       5.463893       148.6801 
 246   0.0000       5.465918       148.7352 
 247   0.0000       5.516870       150.1217 
 248   0.0000       5.555308       151.1676 
 249   0.0000       5.605236       152.5262 
 250   0.0000       5.639526       153.4593 
 251   0.0000       5.796245       157.7239 
 252   0.0000       5.828627       158.6050 
 253   0.0000       5.841239       158.9482 
 254   0.0000       5.904701       160.6751 
 255   0.0000       5.931635       161.4080 
 256   0.0000       5.933832       161.4678 
 257   0.0000       5.983979       162.8323 
 258   0.0000       5.996251       163.1663 
 259   0.0000       6.122761       166.6088 
 260   0.0000       6.135514       166.9558 
 261   0.0000       6.201038       168.7388 
 262   0.0000       6.225606       169.4073 
 263   0.0000       6.232504       169.5951 
 264   0.0000       6.378491       173.5676 
 265   0.0000       6.444480       175.3632 
 266   0.0000       6.454717       175.6418 
 267   0.0000       6.454770       175.6432 
 268   0.0000       6.518188       177.3689 
 269   0.0000       6.588685       179.2872 
 270   0.0000       6.638973       180.6556 
 271   0.0000       6.932810       188.6514 
 272   0.0000       7.061429       192.1512 
 273   0.0000       7.070514       192.3985 
 274   0.0000       7.132344       194.0810 
 275   0.0000       7.164030       194.9432 
 276   0.0000       7.288881       198.3405 
 277   0.0000       7.302570       198.7130 
 278   0.0000       7.365817       200.4341 
 279   0.0000       7.574954       206.1250 
 280   0.0000       7.770316       211.4411 
 281   0.0000       8.048830       219.0198 
 282   0.0000       8.221941       223.7304 
 283   0.0000       8.248287       224.4473 
 284   0.0000       8.297966       225.7991 
 285   0.0000       8.306555       226.0328 
 286   0.0000       8.661939       235.7033 
 287   0.0000       9.010386       245.1851 
 288   0.0000       9.089411       247.3354 
 289   0.0000       9.322039       253.6656 
 290   0.0000       9.409786       256.0533 
 291   0.0000       9.651966       262.6433 
 292   0.0000       9.882196       268.9082 
 293   0.0000       9.900672       269.4110 
 294   0.0000      10.197137       277.4782 
 295   0.0000      10.255013       279.0531 
 296   0.0000      10.293905       280.1114 
 297   0.0000      10.323439       280.9150 
 298   0.0000      10.335249       281.2364 
 299   0.0000      10.364673       282.0371 
 300   0.0000      10.398181       282.9489 
 301   0.0000      10.630996       289.2841 
 302   0.0000      10.635428       289.4047 
 303   0.0000      10.711638       291.4785 
 304   0.0000      10.751511       292.5635 
 305   0.0000      10.834422       294.8196 
 306   0.0000      10.998059       299.2724 
 307   0.0000      11.148297       303.3606 
 308   0.0000      11.171453       303.9907 
 309   0.0000      11.260362       306.4100 
 310   0.0000      11.317908       307.9759 
 311   0.0000      11.537291       313.9456 
 312   0.0000      11.611077       315.9535 
 313   0.0000      11.644530       316.8638 
 314   0.0000      11.671342       317.5934 
 315   0.0000      11.743114       319.5464 
 316   0.0000      11.770989       320.3049 
 317   0.0000      11.787076       320.7426 
 318   0.0000      11.819719       321.6309 
 319   0.0000      11.908367       324.0431 
 320   0.0000      11.994181       326.3783 
 321   0.0000      11.994755       326.3939 
 322   0.0000      12.072831       328.5184 
 323   0.0000      12.084288       328.8302 
 324   0.0000      12.139165       330.3235 
 325   0.0000      12.139582       330.3348 
 326   0.0000      12.172754       331.2375 
 327   0.0000      12.197700       331.9163 
 328   0.0000      12.263237       333.6997 
 329   0.0000      12.292483       334.4955 
 330   0.0000      12.422041       338.0209 
 331   0.0000      12.459240       339.0332 
 332   0.0000      12.519832       340.6820 
 333   0.0000      12.600867       342.8870 
 334   0.0000      12.619433       343.3922 
 335   0.0000      12.620944       343.4334 
 336   0.0000      12.623431       343.5010 
 337   0.0000      12.636713       343.8624 
 338   0.0000      12.658407       344.4528 
 339   0.0000      12.800056       348.3072 
 340   0.0000      12.809494       348.5641 
 341   0.0000      12.843380       349.4861 
 342   0.0000      12.966428       352.8344 
 343   0.0000      12.978707       353.1686 
 344   0.0000      13.019553       354.2801 
 345   0.0000      13.114978       356.8767 
 346   0.0000      13.160742       358.1220 
 347   0.0000      13.268454       361.0530 
 348   0.0000      13.320445       362.4677 
 349   0.0000      13.393739       364.4622 
 350   0.0000      13.641206       371.1961 
 351   0.0000      13.642701       371.2368 
 352   0.0000      13.696711       372.7065 
 353   0.0000      13.888050       377.9131 
 354   0.0000      14.088291       383.3619 
 355   0.0000      14.099509       383.6672 
 356   0.0000      14.219871       386.9424 
 357   0.0000      14.280720       388.5981 
 358   0.0000      14.351340       390.5198 
 359   0.0000      14.606607       397.4660 
 360   0.0000      14.655784       398.8042 
 361   0.0000      14.670475       399.2039 
 362   0.0000      14.959315       407.0637 
 363   0.0000      14.987277       407.8245 
 364   0.0000      15.226934       414.3460 
 365   0.0000      15.295490       416.2115 
 366   0.0000      15.390866       418.8067 
 367   0.0000      15.542646       422.9369 
 368   0.0000      15.647335       425.7856 
 369   0.0000      15.828418       430.7131 
 370   0.0000      15.836941       430.9451 
 371   0.0000      16.477043       448.3631 
 372   0.0000      16.626963       452.4427 
 373   0.0000      16.961156       461.5365 
 374   0.0000      16.961629       461.5494 
 375   0.0000      17.039922       463.6798 
 376   0.0000      17.248885       469.3660 
 377   0.0000      17.257281       469.5945 
 378   0.0000      17.315294       471.1731 
 379   0.0000      17.347379       472.0462 
 380   0.0000      18.038398       490.8498 
 381   0.0000      18.091624       492.2981 
 382   0.0000      18.406132       500.8563 
 383   0.0000      18.558292       504.9968 
 384   0.0000      18.621638       506.7205 
 385   0.0000      18.840593       512.6786 
 386   0.0000      18.897008       514.2137 
 387   0.0000      18.959714       515.9201 
 388   0.0000      20.049882       545.5850 
 389   0.0000      20.050207       545.5939 
 390   0.0000      20.191284       549.4328 
 391   0.0000      20.205828       549.8285 
 392   0.0000      20.707179       563.4710 
 393   0.0000      20.854805       567.4881 
 394   0.0000      20.905759       568.8746 
 395   0.0000      21.901526       595.9708 
 396   0.0000      22.037339       599.6665 
 397   0.0000      22.245452       605.3295 
 398   0.0000      23.010537       626.1485 
 399   0.0000      23.067933       627.7104 
 400   0.0000      23.131334       629.4356 
 401   0.0000      24.010579       653.3611 
 402   0.0000      24.310931       661.5341 
 403   0.0000      26.589266       723.5307 
 404   0.0000      30.238799       822.8396 
 405   0.0000      30.314012       824.8862 
 406   0.0000      30.381057       826.7106 
 407   0.0000      30.630999       833.5119 
 408   0.0000      30.851680       839.5169 
 409   0.0000      31.435283       855.3975 
 410   0.0000      31.954545       869.5274 
 411   0.0000      32.048494       872.0839 
 412   0.0000      32.084723       873.0697 
 413   0.0000      32.289379       878.6387 
 414   0.0000      32.785755       892.1458 
 415   0.0000      34.053601       926.6456 
 416   0.0000      34.316317       933.7945 
 417   0.0000      34.649735       942.8672 
 418   0.0000      41.681299      1134.2058 
 419   0.0000      41.759264      1136.3273 
 420   0.0000      42.069421      1144.7672 
 421   0.0000      44.103142      1200.1075 
 422   0.0000      66.554317      1811.0350 
 423   0.0000      66.586595      1811.9134 
 424   0.0000      67.099284      1825.8643 
 425   0.0000      67.271964      1830.5632 
 426   0.0000      68.755190      1870.9238 
 427   0.0000      75.033256      2041.7587 
 428   0.0000      91.230359      2482.5043 
 429   0.0000      91.268879      2483.5525 
 430   0.0000      91.448854      2488.4498 
 431   0.0000      91.578081      2491.9663 
 432   0.0000      92.292160      2511.3974 
 433   0.0000     143.419056      3902.6309 
 434   0.0000     202.487512      5509.9653 

                    ********************************
                    * MULLIKEN POPULATION ANALYSIS *
                    ********************************

--------------------------------------------
MULLIKEN ATOMIC CHARGES AND SPIN POPULATIONS
--------------------------------------------
   0 F :   -0.260455    0.088184
   1 C :    0.460503    0.637910
   2 O :   -0.200048    0.273906
Sum of atomic charges         :   -0.0000000
Sum of atomic spin populations:    1.0000000

-----------------------------------------------------
MULLIKEN REDUCED ORBITAL CHARGES AND SPIN POPULATIONS
-----------------------------------------------------
CHARGE
  0 F s       :     3.988143  s :     3.988143
      pz      :     1.844890  p :     5.230647
      px      :     1.693108
      py      :     1.692650
      dz2     :     0.004296  d :     0.035552
      dxz     :     0.005714
      dyz     :     0.004132
      dx2y2   :     0.011665
      dxy     :     0.009745
      f0      :     0.000853  f :     0.005396
      f+1     :     0.000256
      f-1     :     0.000308
      f+2     :     0.000064
      f-2     :     0.001260
      f+3     :     0.001960
      f-3     :     0.000694
      g0      :     0.000048  g :     0.000693
      g+1     :     0.000044
      g-1     :     0.000072
      g+2     :    -0.000046
      g-2     :     0.000168
      g+3     :    -0.000045
      g-3     :     0.000206
      g+4     :     0.000023
      g-4     :     0.000222
      h0      :    -0.000011  h :     0.000025
      h+1     :     0.000007
      h-1     :     0.000010
      h+2     :    -0.000033
      h-2     :     0.000034
      h+3     :    -0.000034
      h-3     :     0.000030
      h+4     :    -0.000004
      h-4     :     0.000031
      h+5     :    -0.000006
      h-5     :     0.000002
  1 C s       :     3.241829  s :     3.241829
      pz      :     0.643803  p :     2.046948
      px      :     0.622590
      py      :     0.780555
      dz2     :     0.015272  d :     0.223108
      dxz     :     0.054144
      dyz     :     0.009718
      dx2y2   :     0.068949
      dxy     :     0.075025
      f0      :     0.002257  f :     0.023582
      f+1     :     0.001491
      f-1     :     0.000498
      f+2     :     0.002252
      f-2     :     0.003985
      f+3     :     0.007239
      f-3     :     0.005860
      g0      :     0.000113  g :     0.003783
      g+1     :     0.000688
      g-1     :     0.000195
      g+2     :     0.000219
      g-2     :     0.000264
      g+3     :     0.000258
      g-3     :     0.000432
      g+4     :     0.000814
      g-4     :     0.000800
      h0      :    -0.000000  h :     0.000246
      h+1     :     0.000018
      h-1     :     0.000000
      h+2     :    -0.000003
      h-2     :     0.000032
      h+3     :     0.000022
      h-3     :     0.000005
      h+4     :     0.000016
      h-4     :     0.000015
      h+5     :     0.000084
      h-5     :     0.000058
  2 O s       :     3.863885  s :     3.863885
      pz      :     1.406336  p :     4.287552
      px      :     1.324037
      py      :     1.557180
      dz2     :     0.003341  d :     0.040033
      dxz     :     0.014895
      dyz     :     0.000524
      dx2y2   :     0.005834
      dxy     :     0.015440
      f0      :     0.001341  f :     0.006863
      f+1     :     0.001031
      f-1     :     0.000373
      f+2     :     0.000745
      f-2     :     0.000505
      f+3     :     0.001163
      f-3     :     0.001704
      g0      :     0.000072  g :     0.001550
      g+1     :     0.000354
      g-1     :     0.000045
      g+2     :     0.000216
      g-2     :     0.000125
      g+3     :    -0.000016
      g-3     :     0.000189
      g+4     :     0.000321
      g-4     :     0.000243
      h0      :     0.000023  h :     0.000163
      h+1     :     0.000014
      h-1     :     0.000000
      h+2     :     0.000036
      h-2     :     0.000024
      h+3     :     0.000024
      h-3     :     0.000019
      h+4     :    -0.000017
      h-4     :     0.000015
      h+5     :    -0.000005
      h-5     :     0.000030

SPIN
  0 F s       :    -0.006436  s :    -0.006436
      pz      :    -0.007435  p :     0.086197
      px      :     0.007415
      py      :     0.086217
      dz2     :     0.001536  d :     0.006715
      dxz     :     0.001934
      dyz     :     0.000246
      dx2y2   :     0.001223
      dxy     :     0.001777
      f0      :     0.000267  f :     0.001301
      f+1     :    -0.000009
      f-1     :    -0.000035
      f+2     :     0.000384
      f-2     :     0.000177
      f+3     :     0.000549
      f-3     :    -0.000032
      g0      :    -0.000020  g :     0.000341
      g+1     :     0.000082
      g-1     :     0.000006
      g+2     :     0.000054
      g-2     :    -0.000045
      g+3     :     0.000050
      g-3     :     0.000088
      g+4     :    -0.000004
      g-4     :     0.000130
      h0      :     0.000002  h :     0.000066
      h+1     :     0.000003
      h-1     :    -0.000003
      h+2     :     0.000013
      h-2     :     0.000008
      h+3     :     0.000008
      h-3     :    -0.000005
      h+4     :     0.000004
      h-4     :     0.000023
      h+5     :    -0.000004
      h-5     :     0.000019
  1 C s       :     0.219837  s :     0.219837
      pz      :     0.027286  p :     0.377488
      px      :     0.094207
      py      :     0.255996
      dz2     :     0.004891  d :     0.042915
      dxz     :     0.000505
      dyz     :    -0.001352
      dx2y2   :     0.018652
      dxy     :     0.020219
      f0      :    -0.000462  f :    -0.002265
      f+1     :    -0.000058
      f-1     :    -0.000059
      f+2     :    -0.000784
      f-2     :     0.000212
      f+3     :     0.000069
      f-3     :    -0.001183
      g0      :    -0.000001  g :    -0.000028
      g+1     :    -0.000064
      g-1     :     0.000005
      g+2     :     0.000011
      g-2     :     0.000030
      g+3     :     0.000038
      g-3     :    -0.000038
      g+4     :     0.000024
      g-4     :    -0.000034
      h0      :     0.000001  h :    -0.000037
      h+1     :    -0.000004
      h-1     :    -0.000003
      h+2     :    -0.000001
      h-2     :    -0.000003
      h+3     :    -0.000000
      h-3     :    -0.000011
      h+4     :    -0.000018
      h-4     :    -0.000001
      h+5     :     0.000017
      h-5     :    -0.000015
  2 O s       :     0.055359  s :     0.055359
      pz      :    -0.022604  p :     0.213905
      px      :     0.029868
      py      :     0.206641
      dz2     :     0.001580  d :     0.006639
      dxz     :     0.001444
      dyz     :     0.000086
      dx2y2   :     0.002136
      dxy     :     0.001392
      f0      :     0.000153  f :    -0.001248
      f+1     :    -0.000006
      f-1     :     0.000049
      f+2     :    -0.000340
      f-2     :     0.000102
      f+3     :    -0.000519
      f-3     :    -0.000686
      g0      :    -0.000016  g :    -0.000649
      g+1     :    -0.000082
      g-1     :     0.000002
      g+2     :    -0.000054
      g-2     :    -0.000022
      g+3     :    -0.000043
      g-3     :     0.000086
      g+4     :    -0.000323
      g-4     :    -0.000197
      h0      :    -0.000012  h :    -0.000100
      h+1     :    -0.000002
      h-1     :    -0.000002
      h+2     :    -0.000006
      h-2     :     0.000007
      h+3     :    -0.000016
      h-3     :    -0.000008
      h+4     :     0.000008
      h-4     :     0.000026
      h+5     :    -0.000078
      h-5     :    -0.000016


                     *******************************
                     * LOEWDIN POPULATION ANALYSIS *
                     *******************************

-------------------------------------------
LOEWDIN ATOMIC CHARGES AND SPIN POPULATIONS
-------------------------------------------
   0 F :    0.115390    0.235672
   1 C :   -0.367483    0.492767
   2 O :    0.252093    0.271561

----------------------------------------------------
LOEWDIN REDUCED ORBITAL CHARGES AND SPIN POPULATIONS
----------------------------------------------------
CHARGE
  0 F s       :     3.389608  s :     3.389608
      pz      :     1.588607  p :     4.802140
      px      :     1.632760
      py      :     1.580773
      dz2     :     0.031680  d :     0.273920
      dxz     :     0.046694
      dyz     :     0.014817
      dx2y2   :     0.092380
      dxy     :     0.088349
      f0      :     0.020736  f :     0.192085
      f+1     :     0.020706
      f-1     :     0.008680
      f+2     :     0.011319
      f-2     :     0.020695
      f+3     :     0.069034
      f-3     :     0.040915
      g0      :     0.006049  g :     0.136045
      g+1     :     0.020547
      g-1     :     0.003868
      g+2     :     0.011384
      g-2     :     0.008397
      g+3     :     0.002086
      g-3     :     0.012808
      g+4     :     0.037699
      g-4     :     0.033208
      h0      :     0.007611  h :     0.090810
      h+1     :     0.005537
      h-1     :     0.001173
      h+2     :     0.006883
      h-2     :     0.006080
      h+3     :     0.007611
      h-3     :     0.006401
      h+4     :     0.000407
      h-4     :     0.006062
      h+5     :     0.024586
      h-5     :     0.018458
  1 C s       :     2.704700  s :     2.704700
      pz      :     0.542054  p :     2.186503
      px      :     0.904831
      py      :     0.739618
      dz2     :     0.098688  d :     0.959282
      dxz     :     0.205945
      dyz     :     0.036410
      dx2y2   :     0.276802
      dxy     :     0.341437
      f0      :     0.029223  f :     0.405269
      f+1     :     0.042233
      f-1     :     0.016052
      f+2     :     0.026250
      f-2     :     0.053391
      f+3     :     0.126277
      f-3     :     0.111843
      g0      :     0.004113  g :     0.095971
      g+1     :     0.017931
      g-1     :     0.003387
      g+2     :     0.006093
      g-2     :     0.009367
      g+3     :     0.004620
      g-3     :     0.006260
      g+4     :     0.021168
      g-4     :     0.023032
      h0      :     0.001053  h :     0.015758
      h+1     :     0.001239
      h-1     :     0.000441
      h+2     :     0.000779
      h-2     :     0.001550
      h+3     :     0.001155
      h-3     :     0.001458
      h+4     :     0.000951
      h-4     :     0.000665
      h+5     :     0.003424
      h-5     :     0.003043
  2 O s       :     3.194044  s :     3.194044
      pz      :     1.152060  p :     3.934780
      px      :     1.503550
      py      :     1.279169
      dz2     :     0.031526  d :     0.249685
      dxz     :     0.045966
      dyz     :     0.002039
      dx2y2   :     0.075762
      dxy     :     0.094392
      f0      :     0.015317  f :     0.158260
      f+1     :     0.021949
      f-1     :     0.004845
      f+2     :     0.020842
      f-2     :     0.004085
      f+3     :     0.038490
      f-3     :     0.052732
      g0      :     0.006539  g :     0.117775
      g+1     :     0.017929
      g-1     :     0.001190
      g+2     :     0.011170
      g-2     :     0.007510
      g+3     :     0.007896
      g-3     :     0.005574
      g+4     :     0.028641
      g-4     :     0.031326
      h0      :     0.006485  h :     0.093363
      h+1     :     0.006941
      h-1     :     0.000893
      h+2     :     0.009856
      h-2     :     0.002537
      h+3     :     0.006836
      h-3     :     0.007612
      h+4     :     0.002825
      h-4     :     0.005708
      h+5     :     0.023748
      h-5     :     0.019922

SPIN
  0 F s       :     0.039314  s :     0.039314
      pz      :    -0.001425  p :     0.119648
      px      :     0.015536
      py      :     0.105537
      dz2     :     0.005717  d :     0.037260
      dxz     :     0.001034
      dyz     :     0.001018
      dx2y2   :     0.013994
      dxy     :     0.015497
      f0      :     0.000535  f :     0.016946
      f+1     :     0.000137
      f-1     :     0.001566
      f+2     :    -0.000434
      f-2     :     0.000979
      f+3     :     0.010586
      f-3     :     0.003577
      g0      :     0.000095  g :     0.012530
      g+1     :     0.000070
      g-1     :     0.000223
      g+2     :     0.000459
      g-2     :     0.000212
      g+3     :    -0.000186
      g-3     :     0.000017
      g+4     :    -0.000031
      g-4     :     0.011670
      h0      :     0.000067  h :     0.009973
      h+1     :     0.000047
      h-1     :     0.000041
      h+2     :    -0.000199
      h-2     :     0.000155
      h+3     :     0.000204
      h-3     :     0.000900
      h+4     :    -0.000002
      h-4     :    -0.000263
      h+5     :     0.003626
      h-5     :     0.005397
  1 C s       :     0.146158  s :     0.146158
      pz      :     0.020883  p :     0.243409
      px      :     0.053387
      py      :     0.169140
      dz2     :     0.009548  d :     0.092494
      dxz     :    -0.003169
      dyz     :    -0.001742
      dx2y2   :     0.042713
      dxy     :     0.045145
      f0      :    -0.000957  f :     0.003195
      f+1     :     0.000593
      f-1     :     0.000524
      f+2     :    -0.001328
      f-2     :    -0.000110
      f+3     :     0.004122
      f-3     :     0.000351
      g0      :     0.000421  g :     0.006754
      g+1     :    -0.000060
      g-1     :    -0.000016
      g+2     :     0.000806
      g-2     :     0.000977
      g+3     :    -0.000066
      g-3     :    -0.000133
      g+4     :     0.001744
      g-4     :     0.003080
      h0      :    -0.000010  h :     0.000757
      h+1     :     0.000014
      h-1     :     0.000028
      h+2     :    -0.000014
      h-2     :     0.000003
      h+3     :     0.000083
      h-3     :     0.000074
      h+4     :     0.000002
      h-4     :    -0.000003
      h+5     :     0.000581
      h-5     :    -0.000000
  2 O s       :     0.031918  s :     0.031918
      pz      :    -0.018174  p :     0.166243
      px      :     0.032538
      py      :     0.151879
      dz2     :     0.003913  d :     0.044806
      dxz     :     0.001827
      dyz     :     0.000133
      dx2y2   :     0.002145
      dxy     :     0.036790
      f0      :     0.000499  f :     0.016142
      f+1     :     0.000622
      f-1     :     0.000954
      f+2     :     0.000420
      f-2     :     0.000204
      f+3     :     0.002507
      f-3     :     0.010936
      g0      :     0.000064  g :     0.007491
      g+1     :     0.000132
      g-1     :     0.000012
      g+2     :     0.000134
      g-2     :     0.000305
      g+3     :     0.000037
      g-3     :     0.000052
      g+4     :     0.004220
      g-4     :     0.002535
      h0      :     0.000018  h :     0.004961
      h+1     :     0.000027
      h-1     :     0.000013
      h+2     :     0.000015
      h-2     :     0.000001
      h+3     :     0.000397
      h-3     :     0.000135
      h+4     :    -0.000016
      h-4     :    -0.000028
      h+5     :     0.003492
      h-5     :     0.000908


                      *****************************
                      * MAYER POPULATION ANALYSIS *
                      *****************************

  NA   - Mulliken gross atomic population
  ZA   - Total nuclear charge
  QA   - Mulliken gross atomic charge
  VA   - Mayer's total valence
  BVA  - Mayer's bonded valence
  FA   - Mayer's free valence

  ATOM       NA         ZA         QA         VA         BVA        FA
  0 F      9.2605     9.0000    -0.2605     1.1482     1.1324     0.0158
  1 C      5.5395     6.0000     0.4605     3.6606     3.2494     0.4112
  2 O      8.2000     8.0000    -0.2000     2.3470     2.3100     0.0370

  Mayer bond orders larger than 0.1
B(  0-F ,  1-C ) :   1.0359 B(  1-C ,  2-O ) :   2.2135 

-------
TIMINGS
-------

Total SCF time: 0 days 0 hours 27 min 36 sec 

Total time                  ....    1656.149 sec
Sum of individual times     ....    1654.967 sec  ( 99.9%)

Fock matrix formation       ....    1649.556 sec  ( 99.6%)
  XC integration            ....      23.771 sec  (  1.4% of F)
    Basis function eval.    ....       1.532 sec  (  6.4% of XC)
    Density eval.           ....       5.379 sec  ( 22.6% of XC)
    XC-Functional eval.     ....       0.183 sec  (  0.8% of XC)
    XC-Potential eval.      ....      15.888 sec  ( 66.8% of XC)
Diagonalization             ....       2.532 sec  (  0.2%)
Density matrix formation    ....       0.046 sec  (  0.0%)
Population analysis         ....       0.185 sec  (  0.0%)
Initial guess               ....       0.894 sec  (  0.1%)
Orbital Transformation      ....       0.000 sec  (  0.0%)
Orbital Orthonormalization  ....       0.000 sec  (  0.0%)
DIIS solution               ....       1.331 sec  (  0.1%)
Grid generation             ....       0.424 sec  (  0.0%)

-------------------------   --------------------
FINAL SINGLE POINT ENERGY      -213.002033879635
-------------------------   --------------------


                            ***************************************
                            *     ORCA property calculations      *
                            ***************************************

                                    ---------------------
                                    Active property flags
                                    ---------------------
   (+) Dipole Moment
   (+) Polarizability


------------------------------------------------------------------------------
                       ORCA ELECTRIC PROPERTIES CALCULATION
------------------------------------------------------------------------------

Dipole Moment Calculation                       ... on
Quadrupole Moment Calculation                   ... off
Polarizability Calculation                      ... Analytic (CP-SCF)
GBWName                                         ... fco_pbe.gbw
Electron density file                           ... fco_pbe.scfp.tmp
The origin for moment calculation is the CENTER OF MASS  = (-0.041037, -0.016753  0.000000)

-------------
DIPOLE MOMENT
-------------
                                X             Y             Z
Electronic contribution:     -1.23850      -0.34430       0.00000
Nuclear contribution   :      0.94327       0.38437       0.00000
                        -----------------------------------------
Total Dipole Moment    :     -0.29523       0.04008       0.00000
                        -----------------------------------------
Magnitude (a.u.)       :      0.29794
Magnitude (Debye)      :      0.75729



--------------------
Rotational spectrum 
--------------------
 
Rotational constants in cm-1:     6.148275     0.382494     0.360092 
Rotational constants in MHz : 184320.655220 11466.873652 10795.282401 

 Dipole components along the rotational axes: 
x,y,z [a.u.] :     0.272548     0.120345     0.000000 
x,y,z [Debye]:     0.692763     0.305893     0.000000 

 
Transforming and storing MO dipole integrals   ... done

                ... starting polarizability calculation

Opening the Dipole integral file               ... (fco_pbe.dmo.tmp) done
Reading Dipole-MO integrals                    ... done
Solving CP-SCF equations                       ... 

           ************************************************************
           *        Program running with 4 parallel MPI-processes     *
           *              working on a common directory               *
           ************************************************************

------------------------------------------------------------------------------
                           ORCA CP-SCF CALCULATION
------------------------------------------------------------------------------

Input orbitals are from        ... fco_pbe.gbw
Input Perturbation             ... fco_pbe.cpv.tmp
Wavefunction output            ... fco_pbe.cpu.tmp
Perturbation mode              ... Real perturbation (singlet)
Solver                         ... POPLE
Max. number of iterations      ... 200
Convergence tolerance          ... 1.000e-06
Integral handling              ... Direct
Number of perturbations        ... 3
Number of operators            ... 2
Orbital ranges used for CP-SCF:
 Operator 0:  Orbitals   0... 11  to  12...434
 Operator 1:  Orbitals   0... 10  to  11...434
DFT calculation                         ... on
Exchange functional (SCF)               ... PBE
Exchange functional (CP-SCF)            ... PBE
   PBE kappa parameter  XKappa (SCF)    ...  0.804000
   PBE kappa parameter  XKappa (CP-SCF) ...  0.804000
   PBE mue parameter   XMuePBE (SCF)    ...  0.219520
   PBE mue parameter   XMuePBE (CP-SCF) ...  0.219520
Correlation functional (SCF)            ... PBE
Correlation functional (CP-SCF)         ... PBE
   PBE beta parameter CBetaPBE (SCF)    ...  0.066725
   PBE beta parameter CBetaPBE (CP-SCF) ...  0.066725
 LDA part of GGA corr.  LDAOpt (SCF)    ... PW91-LDA
 LDA part of GGA corr.  LDAOpt (CP-SCF) ... PW91-LDA
Variables per vector in CP-SCF ... 9740
Number of vectors sought       ... 3
Recalculating density on grid  ... done
Calculating the xc-kernel      ... done
     CP-SCF ITERATION   0: 
     CP-SCF ITERATION   1:      0.809968358028
     CP-SCF ITERATION   2:      0.139732585947
     CP-SCF ITERATION   3:      0.012096028175
     CP-SCF ITERATION   4:      0.001436447165
     CP-SCF ITERATION   5:      0.000125533237
     CP-SCF ITERATION   6:      0.000009003441
     CP-SCF ITERATION   7:      0.000000529175
done
Reading CP-SCF coefficients                    ... done
Doing the polarizability tensor   ... done
Cleaning up                                    ... done

-------------------------
THE POLARIZABILITY TENSOR
-------------------------

The raw cartesian tensor (atomic units):
   23.78356      0.25503     -0.00000  
    0.25503     17.78765     -0.00000  
   -0.00000     -0.00000     14.84005  
diagonalized tensor: 
   14.84005     17.77682     23.79439  

    0.00000     -0.04242     -0.99910  
    0.00000      0.99910     -0.04242  
    1.00000     -0.00000      0.00000  

Isotropic polarizability :  18.80375


Timings for individual modules:

Sum of individual times         ...     2836.558 sec (=  47.276 min)
GTO integral calculation        ...        2.557 sec (=   0.043 min)   0.1 %
SCF iterations                  ...     1656.434 sec (=  27.607 min)  58.4 %
Solution of CP-SCF eqns.        ...     1177.567 sec (=  19.626 min)  41.5 %
                             ****ORCA TERMINATED NORMALLY****
TOTAL RUN TIME: 0 days 0 hours 47 minutes 17 seconds 424 msec
