
                                 *****************
                                 * O   R   C   A *
                                 *****************

           --- An Ab Initio, DFT and Semiempirical electronic structure package ---

                  #######################################################
                  #                        -***-                        #
                  #          Department of theory and spectroscopy      #
                  #               Directorship: Frank Neese             #
                  #        Max Planck Institute fuer Kohlenforschung    #
                  #                Kaiser Wilhelm Platz 1               #
                  #                 D-45470 Muelheim/Ruhr               #
                  #                      Germany                        #
                  #                                                     #
                  #                  All rights reserved                #
                  #                        -***-                        #
                  #######################################################


                         Program Version 4.1.2  - RELEASE  -


 With contributions from (in alphabetic order):
   Daniel Aravena         : Magnetic Properties
   Michael Atanasov       : Ab Initio Ligand Field Theory
   Alexander A. Auer      : GIAO ZORA
   Ute Becker             : Parallelization
   Giovanni Bistoni       : ED, Open-shell LED
   Martin Brehm           : Molecular dynamics
   Dmytro Bykov           : SCF Hessian
   Vijay G. Chilkuri      : MRCI spin determinant printing
   Dipayan Datta          : RHF DLPNO-CCSD density
   Achintya Kumar Dutta   : EOM-CC, STEOM-CC
   Dmitry Ganyushin       : Spin-Orbit,Spin-Spin,Magnetic field MRCI
   Miquel Garcia          : C-PCM Hessian
   Yang Guo               : DLPNO-NEVPT2, CIM, IAO-localization
   Andreas Hansen         : Spin unrestricted coupled pair/coupled cluster methods
   Benjamin Helmich-Paris : CASSCF linear response (MC-RPA)
   Lee Huntington         : MR-EOM, pCC
   Robert Izsak           : Overlap fitted RIJCOSX, COSX-SCS-MP3, EOM
   Christian Kollmar      : KDIIS, OOCD, Brueckner-CCSD(T), CCSD density
   Simone Kossmann        : Meta GGA functionals, TD-DFT gradient, OOMP2, MP2 Hessian
   Martin Krupicka        : AUTO-CI
   Lucas Lang             : DCDCAS
   Dagmar Lenk            : GEPOL surface, SMD
   Dimitrios Liakos       : Extrapolation schemes; parallel MDCI
   Dimitrios Manganas     : ROCIS; embedding schemes
   Dimitrios Pantazis     : SARC Basis sets
   Taras Petrenko         : DFT Hessian,TD-DFT gradient, ASA, ECA, R-Raman, ABS, FL, XAS/XES, NRVS
   Peter Pinski           : DLPNO-MP2, DLPNO-MP2 Gradient
   Christoph Reimann      : Effective Core Potentials
   Marius Retegan         : Local ZFS, SOC
   Christoph Riplinger    : Optimizer, TS searches, QM/MM, DLPNO-CCSD(T), (RO)-DLPNO pert. Triples
   Tobias Risthaus        : Range-separated hybrids, TD-DFT gradient, RPA, STAB
   Michael Roemelt        : Restricted open shell CIS
   Masaaki Saitow         : Open-shell DLPNO
   Barbara Sandhoefer     : DKH picture change effects
   Avijit Sen             : IP-ROCIS
   Kantharuban Sivalingam : CASSCF convergence, NEVPT2, FIC-MRCI
   Bernardo de Souza      : ESD, SOC TD-DFT
   Georgi Stoychev        : AutoAux, RI-MP2 NMR
   Willem Van den Heuvel  : Paramagnetic NMR
   Boris Wezisla          : Elementary symmetry handling
   Frank Wennmohs         : Technical directorship


 We gratefully acknowledge several colleagues who have allowed us to
 interface, adapt or use parts of their codes:
   Stefan Grimme, W. Hujo, H. Kruse,             : VdW corrections, initial TS optimization,
                  C. Bannwarth                     DFT functionals, gCP, sTDA/sTD-DF
   Ed Valeev                                     : LibInt (2-el integral package), F12 methods
   Garnet Chan, S. Sharma, J. Yang, R. Olivares  : DMRG
   Ulf Ekstrom                                   : XCFun DFT Library
   Mihaly Kallay                                 : mrcc  (arbitrary order and MRCC methods)
   Andreas Klamt, Michael Diedenhofen            : otool_cosmo (COSMO solvation model)
   Jiri Pittner, Ondrej Demel                    : Mk-CCSD
   Frank Weinhold                                : gennbo (NPA and NBO analysis)
   Christopher J. Cramer and Donald G. Truhlar   : smd solvation model
   Lars Goerigk                                  : TD-DFT with DH, B97 family of functionals
   V. Asgeirsson, H. Jonsson                     : NEB implementation
   FAccTs GmbH                                   : IRC, NEB, NEB-TS, Multilevel


 Your calculation uses the libint2 library for the computation of 2-el integrals
 For citations please refer to: http://libint.valeyev.net

 This ORCA versions uses:
   CBLAS   interface :  Fast vector & matrix operations
   LAPACKE interface :  Fast linear algebra routines
   SCALAPACK package :  Parallel linear algebra routines


----- Orbital basis set information -----
Your calculation utilizes the basis: aug-pc-4
   H, C-F              : F. Jensen, J. Chem. Phys. 115, 9113 (2001).
                         F. Jensen, J. Chem. Phys. 116, 7372 (2002).
                         F. Jensen, J. Chem. Phys. 117, 9234 (2002).
   Si-Cl               : F. Jensen, T. Helgaker, J. Chem. Phys. 121, 3463 (2004).
   He-B, Ne-Mg, Al, Ar : F. Jensen, J. Phys. Chem. A 111, 11198 (2007).
   K, Ca, Ga-Kr        : F. Jensen, J. Chem. Phys. 136, 094110 (2012).
   Sc-Zn               : F. Jensen, J. Chem. Phys. 138, 014107 (2013).

================================================================================
                                        WARNINGS
                       Please study these warnings very carefully!
================================================================================


INFO   : the flag for use of LIBINT has been found!

================================================================================
                                       INPUT FILE
================================================================================
NAME = fno_pbe.inp
|  1> !uks pbe nori aug-pc-4 grid5 nofinalgrid verytightscf
|  2> 
|  3> %maxcore 1500
|  4> 
|  5> %pal nprocs 4 end
|  6> 
|  7> %scf
|  8> 	maxiter 200
|  9> end
| 10> %elprop
| 11> 	dipole true
| 12> 	 polar 1
| 13> 	 maxiter 200
| 14> end
| 15> 
| 16> * xyz 0 1
| 17> F -0.9545 -0.6093 0.0000
| 18> N 0.0000 0.5633 0.0000
| 19> O 1.0738 0.1926 0.0000
| 20> *
| 21> 
| 22>                          ****END OF INPUT****
================================================================================

                       ****************************
                       * Single Point Calculation *
                       ****************************

---------------------------------
CARTESIAN COORDINATES (ANGSTROEM)
---------------------------------
  F     -0.954500   -0.609300    0.000000
  N      0.000000    0.563300    0.000000
  O      1.073800    0.192600    0.000000

----------------------------
CARTESIAN COORDINATES (A.U.)
----------------------------
  NO LB      ZA    FRAG     MASS         X           Y           Z
   0 F     9.0000    0    18.998   -1.803744   -1.151410    0.000000
   1 N     7.0000    0    14.007    0.000000    1.064483    0.000000
   2 O     8.0000    0    15.999    2.029188    0.363961    0.000000

--------------------------------
INTERNAL COORDINATES (ANGSTROEM)
--------------------------------
 F      0   0   0     0.000000000000     0.00000000     0.00000000
 N      1   0   0     1.511972555968     0.00000000     0.00000000
 O      2   1   0     1.135986324742   110.09986542     0.00000000

---------------------------
INTERNAL COORDINATES (A.U.)
---------------------------
 F      0   0   0     0.000000000000     0.00000000     0.00000000
 N      1   0   0     2.857214052784     0.00000000     0.00000000
 O      2   1   0     2.146703045641   110.09986542     0.00000000

---------------------
BASIS SET INFORMATION
---------------------
There are 3 groups of distinct atoms

 Group   1 Type F   : 27s12p7d4f3g2h contracted to 9s8p7d4f3g2h pattern {1191111111/51111111/1111111/1111/111/11}
 Group   2 Type N   : 27s12p7d4f3g2h contracted to 9s8p7d4f3g2h pattern {1191111111/51111111/1111111/1111/111/11}
 Group   3 Type O   : 27s12p7d4f3g2h contracted to 9s8p7d4f3g2h pattern {1191111111/51111111/1111111/1111/111/11}

Atom   0F    basis set group =>   1
Atom   1N    basis set group =>   2
Atom   2O    basis set group =>   3


           ************************************************************
           *        Program running with 4 parallel MPI-processes     *
           *              working on a common directory               *
           ************************************************************
------------------------------------------------------------------------------
                           ORCA GTO INTEGRAL CALCULATION
------------------------------------------------------------------------------

                         BASIS SET STATISTICS AND STARTUP INFO

 # of primitive gaussian shells          ...  165
 # of primitive gaussian functions       ...  525
 # of contracted shells                  ...   99
 # of contracted basis functions         ...  435
 Highest angular momentum                ...    5
 Maximum contraction depth               ...   11
 Integral package used                   ... LIBINT
 Integral threshhold            Thresh   ...  1.000e-12
 Primitive cut-off              TCut     ...  1.000e-14


------------------------------ INTEGRAL EVALUATION ----------------------------


 * One electron integrals 
 Pre-screening matrix                    ... done
 Shell pair data                         ... done (   0.001 sec)



           ************************************************************
           *        Program running with 4 parallel MPI-processes     *
           *              working on a common directory               *
           ************************************************************
-------------------------------------------------------------------------------
                                 ORCA SCF
-------------------------------------------------------------------------------

------------
SCF SETTINGS
------------
Hamiltonian:
 Density Functional     Method          .... DFT(GTOs)
 Exchange Functional    Exchange        .... PBE
   PBE kappa parameter   XKappa         ....  0.804000
   PBE mue parameter    XMuePBE         ....  0.219520
 Correlation Functional Correlation     .... PBE
   PBE beta parameter  CBetaPBE         ....  0.066725
 LDA part of GGA corr.  LDAOpt          .... PW91-LDA
 Gradients option       PostSCFGGA      .... off
   Density functional embedding theory  .... OFF
   NL short-range parameter             ....  6.400000


General Settings:
 Integral files         IntName         .... fno_pbe
 Hartree-Fock type      HFTyp           .... UHF
 Total Charge           Charge          ....    0
 Multiplicity           Mult            ....    1
 Number of Electrons    NEL             ....   24
 Basis Dimension        Dim             ....  435
 Nuclear Repulsion      ENuc            ....     65.6048433411 Eh

Convergence Acceleration:
 DIIS                   CNVDIIS         .... on
   Start iteration      DIISMaxIt       ....    12
   Startup error        DIISStart       ....  0.200000
   # of expansion vecs  DIISMaxEq       ....     5
   Bias factor          DIISBfac        ....   1.050
   Max. coefficient     DIISMaxC        ....  10.000
 Newton-Raphson         CNVNR           .... off
 SOSCF                  CNVSOSCF        .... off
 Level Shifting         CNVShift        .... on
   Level shift para.    LevelShift      ....    0.2500
   Turn off err/grad.   ShiftErr        ....    0.0010
 Zerner damping         CNVZerner       .... off
 Static damping         CNVDamp         .... on
   Fraction old density DampFac         ....    0.7000
   Max. Damping (<1)    DampMax         ....    0.9800
   Min. Damping (>=0)   DampMin         ....    0.0000
   Turn off err/grad.   DampErr         ....    0.1000
 Fernandez-Rico         CNVRico         .... off

SCF Procedure:
 Maximum # iterations   MaxIter         ....   200
 SCF integral mode      SCFMode         .... Direct
   Integral package                     .... LIBINT
 Reset frequency        DirectResetFreq ....    20
 Integral Threshold     Thresh          ....  1.000e-12 Eh
 Primitive CutOff       TCut            ....  1.000e-14 Eh

Convergence Tolerance:
 Convergence Check Mode ConvCheckMode   .... Total+1el-Energy
 Convergence forced     ConvForced      .... 0
 Energy Change          TolE            ....  1.000e-09 Eh
 1-El. energy change                    ....  1.000e-06 Eh
 DIIS Error             TolErr          ....  1.000e-08


Diagonalization of the overlap matrix:
Smallest eigenvalue                        ... 1.251e-06
Time for diagonalization                   ...    0.038 sec
Threshold for overlap eigenvalues          ... 1.000e-08
Number of eigenvalues below threshold      ... 0
Time for construction of square roots      ...    0.032 sec
Total time needed                          ...    0.071 sec

-------------------
DFT GRID GENERATION
-------------------

General Integration Accuracy     IntAcc      ...  5.010
Radial Grid Type                 RadialGrid  ... Gauss-Chebyshev
Angular Grid (max. acc.)         AngularGrid ... Lebedev-434
Angular grid pruning method      GridPruning ... 3 (G Style)
Weight generation scheme         WeightScheme... Becke
Basis function cutoff            BFCut       ...    1.0000e-12
Integration weight cutoff        WCut        ...    1.0000e-14
Grids for H and He will be reduced by one unit

# of grid points (after initial pruning)     ...  32250 (   0.0 sec)
# of grid points (after weights+screening)   ...  32028 (   0.0 sec)
nearest neighbour list constructed           ...    0.0 sec
Grid point re-assignment to atoms done       ...    0.0 sec
Grid point division into batches done        ...    0.3 sec
Reduced shell lists constructed in    0.4 sec

Total number of grid points                  ...    32028
Total number of batches                      ...      502
Average number of points per batch           ...       63
Average number of grid points per atom       ...    10676
Average number of shells per batch           ...    61.65 (62.27%)
Average number of basis functions per batch  ...   285.50 (65.63%)
Average number of large shells per batch     ...    52.83 (85.69%)
Average number of large basis fcns per batch ...   245.80 (86.09%)
Maximum spatial batch extension              ...  16.42, 15.93, 15.30 au
Average spatial batch extension              ...   1.00,  1.00,  0.98 au

Time for grid setup =    0.402 sec

------------------------------
INITIAL GUESS: MODEL POTENTIAL
------------------------------
Loading Hartree-Fock densities                     ... done
Calculating cut-offs                               ... done
Setting up the integral package                    ... done
Initializing the effective Hamiltonian             ... done
Starting the Coulomb interaction                   ... done (   0.0 sec)
Reading the grid                                   ... done
Mapping shells                                     ... done
Starting the XC term evaluation                    ... done (   0.6 sec)
  promolecular density results
     # of electrons  =     23.999999840
     EX              =    -24.598482588
     EC              =     -0.813342973
     EX+EC           =    -25.411825561
Transforming the Hamiltonian                       ... done (   0.0 sec)
Diagonalizing the Hamiltonian                      ... done (   0.0 sec)
Back transforming the eigenvectors                 ... done (   0.0 sec)
Now organizing SCF variables                       ... done
                      ------------------
                      INITIAL GUESS DONE (   1.3 sec)
                      ------------------
--------------
SCF ITERATIONS
--------------
ITER       Energy         Delta-E        Max-DP      RMS-DP      [F,P]     Damp
               ***  Starting incremental Fock matrix formation  ***
  0   -229.5612577946   0.000000000000 0.00782162  0.00010862  0.1763984 0.7000
  1   -229.5958397418  -0.034581947206 0.00323940  0.00004710  0.0364620 0.7000
                               ***Turning on DIIS***
  2   -229.6013212893  -0.005481547450 0.00646037  0.00006324  0.0304606 0.0000
  3   -229.6248204950  -0.023499205730 0.00291287  0.00002810  0.0254671 0.0000
  4   -229.6253797094  -0.000559214410 0.00100894  0.00001053  0.0138863 0.0000
  5   -229.6255923503  -0.000212640842 0.00038413  0.00000515  0.0041366 0.0000
  6   -229.6256252293  -0.000032879021 0.00009614  0.00000132  0.0015828 0.0000
  7   -229.6256280915  -0.000002862187 0.00006012  0.00000090  0.0002477 0.0000
  8   -229.6256282114  -0.000000119863 0.00002072  0.00000031  0.0002492 0.0000
  9   -229.6256283602  -0.000000148815 0.00000445  0.00000007  0.0000657 0.0000
 10   -229.6256283658  -0.000000005604 0.00000181  0.00000002  0.0000259 0.0000
 11   -229.6256283662  -0.000000000432 0.00000089  0.00000001  0.0000119 0.0000
 12   -229.6256283665  -0.000000000280 0.00000037  0.00000000  0.0000014 0.0000
 13   -229.6256283665  -0.000000000004 0.00000205  0.00000002  0.0000003 0.0000
 14   -229.6256283665  -0.000000000009 0.00000487  0.00000004  0.0000002 0.0000
                 **** Energy Check signals convergence ****

               *****************************************************
               *                     SUCCESS                       *
               *           SCF CONVERGED AFTER  15 CYCLES          *
               *****************************************************


----------------
TOTAL SCF ENERGY
----------------

Total Energy       :         -229.62562837 Eh           -6248.43101 eV

Components:
Nuclear Repulsion  :           65.60484334 Eh            1785.19855 eV
Electronic Energy  :         -295.23047171 Eh           -8033.62956 eV
One Electron Energy:         -446.44445872 Eh          -12148.37133 eV
Two Electron Energy:          151.21398701 Eh            4114.74178 eV

Virial components:
Potential Energy   :         -458.62577534 Eh          -12479.84181 eV
Kinetic Energy     :          229.00014698 Eh            6231.41080 eV
Virial Ratio       :            2.00273136


DFT components:
N(Alpha)           :       11.999999584055 electrons
N(Beta)            :       11.999999584055 electrons
N(Total)           :       23.999999168110 electrons
E(X)               :      -24.745417234972 Eh       
E(C)               :       -0.812643694594 Eh       
E(XC)              :      -25.558060929566 Eh       
DFET-embed. en.    :        0.000000000000 Eh       

---------------
SCF CONVERGENCE
---------------

  Last Energy change         ...    3.5811e-12  Tolerance :   1.0000e-09
  Last MAX-Density change    ...    8.4490e-06  Tolerance :   1.0000e-08
  Last RMS-Density change    ...    6.4062e-08  Tolerance :   1.0000e-09
  Last DIIS Error            ...    9.1746e-08  Tolerance :   1.0000e-08

             **** THE GBW FILE WAS UPDATED (fno_pbe.gbw) ****
             **** DENSITY FILE WAS UPDATED (fno_pbe.scfp.tmp) ****
             **** ENERGY FILE WAS UPDATED (fno_pbe.en.tmp) ****
----------------------
UHF SPIN CONTAMINATION
----------------------

Warning: in a DFT calculation there is little theoretical justification to 
         calculate <S**2> as in Hartree-Fock theory. We will do it anyways
         but you should keep in mind that the values have only limited relevance

Expectation value of <S**2>     :     0.000000
Ideal value S*(S+1) for S=0.0   :     0.000000
Deviation                       :     0.000000

----------------
ORBITAL ENERGIES
----------------
                 SPIN UP ORBITALS
  NO   OCC          E(Eh)            E(eV) 
   0   1.0000     -24.263417      -660.2411 
   1   1.0000     -18.907306      -514.4939 
   2   1.0000     -14.214028      -386.7834 
   3   1.0000      -1.217993       -33.1433 
   4   1.0000      -1.070120       -29.1194 
   5   1.0000      -0.653527       -17.7834 
   6   1.0000      -0.538037       -14.6407 
   7   1.0000      -0.520923       -14.1750 
   8   1.0000      -0.491375       -13.3710 
   9   1.0000      -0.359579        -9.7846 
  10   1.0000      -0.341693        -9.2979 
  11   1.0000      -0.305942        -8.3251 
  12   0.0000      -0.174222        -4.7408 
  13   0.0000      -0.059085        -1.6078 
  14   0.0000      -0.003043        -0.0828 
  15   0.0000       0.020535         0.5588 
  16   0.0000       0.022080         0.6008 
  17   0.0000       0.023304         0.6341 
  18   0.0000       0.053691         1.4610 
  19   0.0000       0.057733         1.5710 
  20   0.0000       0.059458         1.6179 
  21   0.0000       0.066651         1.8137 
  22   0.0000       0.072972         1.9857 
  23   0.0000       0.091151         2.4803 
  24   0.0000       0.103385         2.8133 
  25   0.0000       0.110033         2.9941 
  26   0.0000       0.111406         3.0315 
  27   0.0000       0.119705         3.2573 
  28   0.0000       0.151933         4.1343 
  29   0.0000       0.156507         4.2588 
  30   0.0000       0.160082         4.3560 
  31   0.0000       0.173970         4.7340 
  32   0.0000       0.178453         4.8560 
  33   0.0000       0.180255         4.9050 
  34   0.0000       0.187192         5.0938 
  35   0.0000       0.193480         5.2649 
  36   0.0000       0.197766         5.3815 
  37   0.0000       0.223557         6.0833 
  38   0.0000       0.237541         6.4638 
  39   0.0000       0.251174         6.8348 
  40   0.0000       0.251326         6.8389 
  41   0.0000       0.283017         7.7013 
  42   0.0000       0.287387         7.8202 
  43   0.0000       0.296588         8.0706 
  44   0.0000       0.301464         8.2032 
  45   0.0000       0.301488         8.2039 
  46   0.0000       0.314561         8.5596 
  47   0.0000       0.323874         8.8130 
  48   0.0000       0.332500         9.0478 
  49   0.0000       0.336115         9.1462 
  50   0.0000       0.346218         9.4211 
  51   0.0000       0.356664         9.7053 
  52   0.0000       0.361128         9.8268 
  53   0.0000       0.365619         9.9490 
  54   0.0000       0.366687         9.9781 
  55   0.0000       0.372237        10.1291 
  56   0.0000       0.386900        10.5281 
  57   0.0000       0.413677        11.2567 
  58   0.0000       0.415664        11.3108 
  59   0.0000       0.420816        11.4510 
  60   0.0000       0.430846        11.7239 
  61   0.0000       0.434515        11.8238 
  62   0.0000       0.448737        12.2108 
  63   0.0000       0.455167        12.3857 
  64   0.0000       0.465136        12.6570 
  65   0.0000       0.476273        12.9601 
  66   0.0000       0.534505        14.5446 
  67   0.0000       0.540768        14.7150 
  68   0.0000       0.544381        14.8134 
  69   0.0000       0.548013        14.9122 
  70   0.0000       0.554309        15.0835 
  71   0.0000       0.570432        15.5222 
  72   0.0000       0.576054        15.6752 
  73   0.0000       0.584130        15.8950 
  74   0.0000       0.598839        16.2952 
  75   0.0000       0.608864        16.5680 
  76   0.0000       0.611798        16.6479 
  77   0.0000       0.617773        16.8105 
  78   0.0000       0.618901        16.8412 
  79   0.0000       0.627854        17.0848 
  80   0.0000       0.640070        17.4172 
  81   0.0000       0.644959        17.5502 
  82   0.0000       0.669309        18.2128 
  83   0.0000       0.673309        18.3217 
  84   0.0000       0.684656        18.6304 
  85   0.0000       0.689477        18.7616 
  86   0.0000       0.703517        19.1437 
  87   0.0000       0.712442        19.3865 
  88   0.0000       0.719524        19.5792 
  89   0.0000       0.725950        19.7541 
  90   0.0000       0.743603        20.2345 
  91   0.0000       0.756776        20.5929 
  92   0.0000       0.768238        20.9048 
  93   0.0000       0.777681        21.1618 
  94   0.0000       0.785339        21.3702 
  95   0.0000       0.788964        21.4688 
  96   0.0000       0.801765        21.8171 
  97   0.0000       0.813569        22.1383 
  98   0.0000       0.823053        22.3964 
  99   0.0000       0.826750        22.4970 
 100   0.0000       0.834855        22.7176 
 101   0.0000       0.845620        23.0105 
 102   0.0000       0.855725        23.2855 
 103   0.0000       0.866373        23.5752 
 104   0.0000       0.872892        23.7526 
 105   0.0000       0.887946        24.1622 
 106   0.0000       0.889285        24.1987 
 107   0.0000       0.890774        24.2392 
 108   0.0000       0.908778        24.7291 
 109   0.0000       0.909510        24.7490 
 110   0.0000       0.910738        24.7824 
 111   0.0000       0.935637        25.4600 
 112   0.0000       0.936934        25.4953 
 113   0.0000       0.961947        26.1759 
 114   0.0000       0.973102        26.4795 
 115   0.0000       0.976716        26.5778 
 116   0.0000       0.996226        27.1087 
 117   0.0000       1.007945        27.4276 
 118   0.0000       1.026214        27.9247 
 119   0.0000       1.053782        28.6749 
 120   0.0000       1.076060        29.2811 
 121   0.0000       1.079828        29.3836 
 122   0.0000       1.087509        29.5926 
 123   0.0000       1.100338        29.9417 
 124   0.0000       1.102906        30.0116 
 125   0.0000       1.112960        30.2852 
 126   0.0000       1.130626        30.7659 
 127   0.0000       1.139059        30.9954 
 128   0.0000       1.144624        31.1468 
 129   0.0000       1.163556        31.6620 
 130   0.0000       1.177657        32.0457 
 131   0.0000       1.192329        32.4449 
 132   0.0000       1.200559        32.6689 
 133   0.0000       1.203792        32.7569 
 134   0.0000       1.204188        32.7676 
 135   0.0000       1.224554        33.3218 
 136   0.0000       1.233554        33.5667 
 137   0.0000       1.234562        33.5941 
 138   0.0000       1.256117        34.1807 
 139   0.0000       1.262311        34.3492 
 140   0.0000       1.267243        34.4834 
 141   0.0000       1.283771        34.9332 
 142   0.0000       1.314262        35.7629 
 143   0.0000       1.318187        35.8697 
 144   0.0000       1.337515        36.3956 
 145   0.0000       1.350073        36.7374 
 146   0.0000       1.383685        37.6520 
 147   0.0000       1.399749        38.0891 
 148   0.0000       1.402547        38.1652 
 149   0.0000       1.409258        38.3479 
 150   0.0000       1.414464        38.4895 
 151   0.0000       1.436561        39.0908 
 152   0.0000       1.443834        39.2887 
 153   0.0000       1.460430        39.7403 
 154   0.0000       1.469808        39.9955 
 155   0.0000       1.482012        40.3276 
 156   0.0000       1.501604        40.8607 
 157   0.0000       1.522147        41.4197 
 158   0.0000       1.535743        41.7897 
 159   0.0000       1.546769        42.0897 
 160   0.0000       1.568652        42.6852 
 161   0.0000       1.583584        43.0915 
 162   0.0000       1.605655        43.6921 
 163   0.0000       1.665125        45.3104 
 164   0.0000       1.678173        45.6654 
 165   0.0000       1.688211        45.9385 
 166   0.0000       1.732151        47.1342 
 167   0.0000       1.768603        48.1261 
 168   0.0000       1.843706        50.1698 
 169   0.0000       1.897439        51.6319 
 170   0.0000       1.897760        51.6407 
 171   0.0000       1.918732        52.2113 
 172   0.0000       2.023901        55.0731 
 173   0.0000       2.068645        56.2907 
 174   0.0000       2.076540        56.5055 
 175   0.0000       2.128327        57.9147 
 176   0.0000       2.132557        58.0298 
 177   0.0000       2.143637        58.3313 
 178   0.0000       2.167681        58.9856 
 179   0.0000       2.198476        59.8236 
 180   0.0000       2.232330        60.7448 
 181   0.0000       2.245617        61.1064 
 182   0.0000       2.287073        62.2344 
 183   0.0000       2.356735        64.1300 
 184   0.0000       2.393644        65.1344 
 185   0.0000       2.422613        65.9227 
 186   0.0000       2.438073        66.3433 
 187   0.0000       2.499599        68.0175 
 188   0.0000       2.504237        68.1438 
 189   0.0000       2.530683        68.8634 
 190   0.0000       2.538454        69.0748 
 191   0.0000       2.601118        70.7800 
 192   0.0000       2.622694        71.3671 
 193   0.0000       2.627405        71.4953 
 194   0.0000       2.681148        72.9578 
 195   0.0000       2.734021        74.3965 
 196   0.0000       2.738792        74.5263 
 197   0.0000       2.863099        77.9089 
 198   0.0000       2.869617        78.0863 
 199   0.0000       2.958961        80.5174 
 200   0.0000       2.993416        81.4550 
 201   0.0000       3.043264        82.8114 
 202   0.0000       3.051257        83.0289 
 203   0.0000       3.068687        83.5032 
 204   0.0000       3.121875        84.9505 
 205   0.0000       3.176051        86.4247 
 206   0.0000       3.210538        87.3632 
 207   0.0000       3.276976        89.1710 
 208   0.0000       3.341486        90.9265 
 209   0.0000       3.416896        92.9785 
 210   0.0000       3.450394        93.8900 
 211   0.0000       3.497979        95.1848 
 212   0.0000       3.623532        98.6013 
 213   0.0000       3.770752       102.6074 
 214   0.0000       4.068914       110.7208 
 215   0.0000       4.088687       111.2588 
 216   0.0000       4.122316       112.1739 
 217   0.0000       4.165533       113.3499 
 218   0.0000       4.257920       115.8639 
 219   0.0000       4.296860       116.9235 
 220   0.0000       4.380850       119.2090 
 221   0.0000       4.434703       120.6744 
 222   0.0000       4.599048       125.1465 
 223   0.0000       4.618990       125.6891 
 224   0.0000       4.629101       125.9642 
 225   0.0000       4.663245       126.8934 
 226   0.0000       4.749388       129.2374 
 227   0.0000       4.958820       134.9363 
 228   0.0000       4.986434       135.6878 
 229   0.0000       5.060073       137.6916 
 230   0.0000       5.074030       138.0714 
 231   0.0000       5.188010       141.1729 
 232   0.0000       5.251016       142.8874 
 233   0.0000       5.310141       144.4963 
 234   0.0000       5.324450       144.8857 
 235   0.0000       5.356221       145.7502 
 236   0.0000       5.358132       145.8022 
 237   0.0000       5.398387       146.8976 
 238   0.0000       5.422889       147.5643 
 239   0.0000       5.434935       147.8921 
 240   0.0000       5.576912       151.7555 
 241   0.0000       5.692482       154.9003 
 242   0.0000       5.706697       155.2871 
 243   0.0000       5.719154       155.6261 
 244   0.0000       5.776103       157.1758 
 245   0.0000       5.824129       158.4826 
 246   0.0000       5.865158       159.5991 
 247   0.0000       5.906788       160.7319 
 248   0.0000       5.934129       161.4759 
 249   0.0000       5.961368       162.2171 
 250   0.0000       6.029973       164.0839 
 251   0.0000       6.064870       165.0335 
 252   0.0000       6.090025       165.7180 
 253   0.0000       6.159825       167.6174 
 254   0.0000       6.188399       168.3949 
 255   0.0000       6.207922       168.9262 
 256   0.0000       6.223830       169.3590 
 257   0.0000       6.308209       171.6551 
 258   0.0000       6.328556       172.2088 
 259   0.0000       6.521809       177.4675 
 260   0.0000       6.580806       179.0728 
 261   0.0000       6.606738       179.7785 
 262   0.0000       6.686294       181.9433 
 263   0.0000       6.724074       182.9713 
 264   0.0000       6.837277       186.0518 
 265   0.0000       6.972044       189.7190 
 266   0.0000       6.986531       190.1132 
 267   0.0000       7.013167       190.8380 
 268   0.0000       7.134614       194.1427 
 269   0.0000       7.142585       194.3596 
 270   0.0000       7.156173       194.7294 
 271   0.0000       7.189041       195.6237 
 272   0.0000       7.197969       195.8667 
 273   0.0000       7.231035       196.7665 
 274   0.0000       7.476091       203.4348 
 275   0.0000       7.555837       205.6048 
 276   0.0000       7.697054       209.4475 
 277   0.0000       7.713769       209.9023 
 278   0.0000       7.803622       212.3473 
 279   0.0000       7.876495       214.3303 
 280   0.0000       8.094298       220.2570 
 281   0.0000       8.247383       224.4227 
 282   0.0000       8.348003       227.1607 
 283   0.0000       8.431723       229.4388 
 284   0.0000       8.556637       232.8379 
 285   0.0000       8.966563       243.9926 
 286   0.0000       9.017040       245.3661 
 287   0.0000       9.098661       247.5872 
 288   0.0000       9.237973       251.3780 
 289   0.0000       9.368931       254.9416 
 290   0.0000       9.434963       256.7384 
 291   0.0000       9.859304       268.2853 
 292   0.0000      10.235296       278.5166 
 293   0.0000      10.352335       281.7014 
 294   0.0000      10.404980       283.1339 
 295   0.0000      10.675279       290.4891 
 296   0.0000      10.914827       297.0075 
 297   0.0000      10.930163       297.4249 
 298   0.0000      10.958789       298.2038 
 299   0.0000      11.024842       300.0012 
 300   0.0000      11.042777       300.4892 
 301   0.0000      11.132909       302.9419 
 302   0.0000      11.163866       303.7842 
 303   0.0000      11.177768       304.1625 
 304   0.0000      11.267746       306.6110 
 305   0.0000      11.283919       307.0511 
 306   0.0000      11.286850       307.1308 
 307   0.0000      11.340494       308.5905 
 308   0.0000      11.496143       312.8260 
 309   0.0000      11.577072       315.0281 
 310   0.0000      11.811008       321.3939 
 311   0.0000      11.927341       324.5594 
 312   0.0000      11.928387       324.5879 
 313   0.0000      11.954208       325.2905 
 314   0.0000      11.980932       326.0177 
 315   0.0000      12.204828       332.1103 
 316   0.0000      12.225615       332.6759 
 317   0.0000      12.273112       333.9684 
 318   0.0000      12.338566       335.7495 
 319   0.0000      12.368835       336.5731 
 320   0.0000      12.498374       340.0981 
 321   0.0000      12.554665       341.6298 
 322   0.0000      12.648519       344.1837 
 323   0.0000      12.664552       344.6200 
 324   0.0000      12.666922       344.6845 
 325   0.0000      12.680846       345.0634 
 326   0.0000      12.687303       345.2391 
 327   0.0000      12.690088       345.3148 
 328   0.0000      12.694114       345.4244 
 329   0.0000      12.746703       346.8554 
 330   0.0000      12.836903       349.3099 
 331   0.0000      12.903338       351.1177 
 332   0.0000      12.974465       353.0531 
 333   0.0000      13.024928       354.4263 
 334   0.0000      13.035944       354.7261 
 335   0.0000      13.087355       356.1250 
 336   0.0000      13.216665       359.6437 
 337   0.0000      13.311010       362.2110 
 338   0.0000      13.340695       363.0188 
 339   0.0000      13.492324       367.1448 
 340   0.0000      13.581762       369.5785 
 341   0.0000      13.724571       373.4646 
 342   0.0000      13.761126       374.4593 
 343   0.0000      14.010587       381.2474 
 344   0.0000      14.128476       384.4554 
 345   0.0000      14.249778       387.7562 
 346   0.0000      14.394324       391.6895 
 347   0.0000      14.432431       392.7264 
 348   0.0000      14.508020       394.7833 
 349   0.0000      14.615365       397.7043 
 350   0.0000      14.743487       401.1907 
 351   0.0000      14.882697       404.9788 
 352   0.0000      14.993694       407.9991 
 353   0.0000      15.010801       408.4647 
 354   0.0000      15.011610       408.4867 
 355   0.0000      15.040690       409.2780 
 356   0.0000      15.101144       410.9230 
 357   0.0000      15.185162       413.2093 
 358   0.0000      15.243081       414.7853 
 359   0.0000      15.291761       416.1100 
 360   0.0000      15.448294       420.3695 
 361   0.0000      15.579641       423.9436 
 362   0.0000      15.791879       429.7189 
 363   0.0000      15.828353       430.7114 
 364   0.0000      15.944973       433.8848 
 365   0.0000      16.110240       438.3819 
 366   0.0000      16.142477       439.2591 
 367   0.0000      16.191147       440.5835 
 368   0.0000      16.301004       443.5729 
 369   0.0000      16.504822       449.1190 
 370   0.0000      16.652868       453.1476 
 371   0.0000      16.883390       459.4204 
 372   0.0000      16.898331       459.8270 
 373   0.0000      16.941367       460.9980 
 374   0.0000      16.994634       462.4475 
 375   0.0000      17.187948       467.7078 
 376   0.0000      17.269768       469.9343 
 377   0.0000      17.919845       487.6238 
 378   0.0000      17.973902       489.0947 
 379   0.0000      18.525381       504.1013 
 380   0.0000      18.710854       509.1482 
 381   0.0000      18.819271       512.0984 
 382   0.0000      18.831859       512.4409 
 383   0.0000      18.942670       515.4563 
 384   0.0000      19.276804       524.5485 
 385   0.0000      20.116798       547.4059 
 386   0.0000      20.119338       547.4750 
 387   0.0000      20.151704       548.3557 
 388   0.0000      20.188079       549.3456 
 389   0.0000      20.444169       556.3141 
 390   0.0000      20.497355       557.7614 
 391   0.0000      20.637573       561.5769 
 392   0.0000      21.356721       581.1459 
 393   0.0000      21.445757       583.5687 
 394   0.0000      22.492315       612.0470 
 395   0.0000      22.958442       624.7310 
 396   0.0000      23.008924       626.1046 
 397   0.0000      23.982985       652.6102 
 398   0.0000      24.307729       661.4469 
 399   0.0000      24.557686       668.2486 
 400   0.0000      25.926674       705.5007 
 401   0.0000      26.191500       712.7069 
 402   0.0000      27.035125       735.6632 
 403   0.0000      28.841397       784.8143 
 404   0.0000      30.397634       827.1617 
 405   0.0000      30.473681       829.2310 
 406   0.0000      30.535867       830.9232 
 407   0.0000      30.678278       834.7984 
 408   0.0000      31.209286       849.2479 
 409   0.0000      31.381936       853.9459 
 410   0.0000      31.821877       865.9173 
 411   0.0000      32.016412       871.2109 
 412   0.0000      34.356958       934.9004 
 413   0.0000      41.637579      1133.0161 
 414   0.0000      41.750936      1136.1007 
 415   0.0000      41.888040      1139.8315 
 416   0.0000      43.130115      1173.6301 
 417   0.0000      47.582845      1294.7950 
 418   0.0000      47.757481      1299.5471 
 419   0.0000      47.908352      1303.6525 
 420   0.0000      48.278732      1313.7311 
 421   0.0000      49.372959      1343.5065 
 422   0.0000      66.491030      1809.3129 
 423   0.0000      66.518758      1810.0674 
 424   0.0000      67.315866      1831.7578 
 425   0.0000      67.427596      1834.7982 
 426   0.0000      69.047979      1878.8910 
 427   0.0000      91.311623      2484.7156 
 428   0.0000      91.363979      2486.1403 
 429   0.0000      91.405568      2487.2720 
 430   0.0000      91.502683      2489.9146 
 431   0.0000      91.903864      2500.8313 
 432   0.0000     105.785235      2878.5626 
 433   0.0000     143.746254      3911.5344 
 434   0.0000     201.712862      5488.8860 

                 SPIN DOWN ORBITALS
  NO   OCC          E(Eh)            E(eV) 
   0   1.0000     -24.263417      -660.2411 
   1   1.0000     -18.907306      -514.4939 
   2   1.0000     -14.214028      -386.7834 
   3   1.0000      -1.217993       -33.1433 
   4   1.0000      -1.070120       -29.1194 
   5   1.0000      -0.653527       -17.7834 
   6   1.0000      -0.538037       -14.6407 
   7   1.0000      -0.520923       -14.1750 
   8   1.0000      -0.491375       -13.3710 
   9   1.0000      -0.359579        -9.7846 
  10   1.0000      -0.341693        -9.2979 
  11   1.0000      -0.305942        -8.3251 
  12   0.0000      -0.174222        -4.7408 
  13   0.0000      -0.059085        -1.6078 
  14   0.0000      -0.003043        -0.0828 
  15   0.0000       0.020535         0.5588 
  16   0.0000       0.022080         0.6008 
  17   0.0000       0.023304         0.6341 
  18   0.0000       0.053691         1.4610 
  19   0.0000       0.057733         1.5710 
  20   0.0000       0.059458         1.6179 
  21   0.0000       0.066651         1.8137 
  22   0.0000       0.072972         1.9857 
  23   0.0000       0.091151         2.4803 
  24   0.0000       0.103385         2.8133 
  25   0.0000       0.110033         2.9941 
  26   0.0000       0.111406         3.0315 
  27   0.0000       0.119705         3.2573 
  28   0.0000       0.151933         4.1343 
  29   0.0000       0.156507         4.2588 
  30   0.0000       0.160082         4.3560 
  31   0.0000       0.173970         4.7340 
  32   0.0000       0.178453         4.8560 
  33   0.0000       0.180255         4.9050 
  34   0.0000       0.187192         5.0938 
  35   0.0000       0.193480         5.2649 
  36   0.0000       0.197766         5.3815 
  37   0.0000       0.223557         6.0833 
  38   0.0000       0.237541         6.4638 
  39   0.0000       0.251174         6.8348 
  40   0.0000       0.251326         6.8389 
  41   0.0000       0.283017         7.7013 
  42   0.0000       0.287387         7.8202 
  43   0.0000       0.296588         8.0706 
  44   0.0000       0.301464         8.2032 
  45   0.0000       0.301488         8.2039 
  46   0.0000       0.314561         8.5596 
  47   0.0000       0.323874         8.8130 
  48   0.0000       0.332500         9.0478 
  49   0.0000       0.336115         9.1462 
  50   0.0000       0.346218         9.4211 
  51   0.0000       0.356664         9.7053 
  52   0.0000       0.361128         9.8268 
  53   0.0000       0.365619         9.9490 
  54   0.0000       0.366687         9.9781 
  55   0.0000       0.372237        10.1291 
  56   0.0000       0.386900        10.5281 
  57   0.0000       0.413677        11.2567 
  58   0.0000       0.415664        11.3108 
  59   0.0000       0.420816        11.4510 
  60   0.0000       0.430846        11.7239 
  61   0.0000       0.434515        11.8238 
  62   0.0000       0.448737        12.2108 
  63   0.0000       0.455167        12.3857 
  64   0.0000       0.465136        12.6570 
  65   0.0000       0.476273        12.9601 
  66   0.0000       0.534505        14.5446 
  67   0.0000       0.540768        14.7150 
  68   0.0000       0.544381        14.8134 
  69   0.0000       0.548013        14.9122 
  70   0.0000       0.554309        15.0835 
  71   0.0000       0.570432        15.5222 
  72   0.0000       0.576054        15.6752 
  73   0.0000       0.584130        15.8950 
  74   0.0000       0.598839        16.2952 
  75   0.0000       0.608864        16.5680 
  76   0.0000       0.611798        16.6479 
  77   0.0000       0.617773        16.8105 
  78   0.0000       0.618901        16.8412 
  79   0.0000       0.627854        17.0848 
  80   0.0000       0.640070        17.4172 
  81   0.0000       0.644959        17.5502 
  82   0.0000       0.669309        18.2128 
  83   0.0000       0.673309        18.3217 
  84   0.0000       0.684656        18.6304 
  85   0.0000       0.689477        18.7616 
  86   0.0000       0.703517        19.1437 
  87   0.0000       0.712442        19.3865 
  88   0.0000       0.719524        19.5792 
  89   0.0000       0.725950        19.7541 
  90   0.0000       0.743603        20.2345 
  91   0.0000       0.756776        20.5929 
  92   0.0000       0.768238        20.9048 
  93   0.0000       0.777681        21.1618 
  94   0.0000       0.785339        21.3702 
  95   0.0000       0.788964        21.4688 
  96   0.0000       0.801765        21.8171 
  97   0.0000       0.813569        22.1383 
  98   0.0000       0.823053        22.3964 
  99   0.0000       0.826750        22.4970 
 100   0.0000       0.834855        22.7176 
 101   0.0000       0.845620        23.0105 
 102   0.0000       0.855725        23.2855 
 103   0.0000       0.866373        23.5752 
 104   0.0000       0.872892        23.7526 
 105   0.0000       0.887946        24.1622 
 106   0.0000       0.889285        24.1987 
 107   0.0000       0.890774        24.2392 
 108   0.0000       0.908778        24.7291 
 109   0.0000       0.909510        24.7490 
 110   0.0000       0.910738        24.7824 
 111   0.0000       0.935637        25.4600 
 112   0.0000       0.936934        25.4953 
 113   0.0000       0.961947        26.1759 
 114   0.0000       0.973102        26.4795 
 115   0.0000       0.976716        26.5778 
 116   0.0000       0.996226        27.1087 
 117   0.0000       1.007945        27.4276 
 118   0.0000       1.026214        27.9247 
 119   0.0000       1.053782        28.6749 
 120   0.0000       1.076060        29.2811 
 121   0.0000       1.079828        29.3836 
 122   0.0000       1.087509        29.5926 
 123   0.0000       1.100338        29.9417 
 124   0.0000       1.102906        30.0116 
 125   0.0000       1.112960        30.2852 
 126   0.0000       1.130626        30.7659 
 127   0.0000       1.139059        30.9954 
 128   0.0000       1.144624        31.1468 
 129   0.0000       1.163556        31.6620 
 130   0.0000       1.177657        32.0457 
 131   0.0000       1.192329        32.4449 
 132   0.0000       1.200559        32.6689 
 133   0.0000       1.203792        32.7569 
 134   0.0000       1.204188        32.7676 
 135   0.0000       1.224554        33.3218 
 136   0.0000       1.233554        33.5667 
 137   0.0000       1.234562        33.5941 
 138   0.0000       1.256117        34.1807 
 139   0.0000       1.262311        34.3492 
 140   0.0000       1.267243        34.4834 
 141   0.0000       1.283771        34.9332 
 142   0.0000       1.314262        35.7629 
 143   0.0000       1.318187        35.8697 
 144   0.0000       1.337515        36.3956 
 145   0.0000       1.350073        36.7374 
 146   0.0000       1.383685        37.6520 
 147   0.0000       1.399749        38.0891 
 148   0.0000       1.402547        38.1652 
 149   0.0000       1.409258        38.3479 
 150   0.0000       1.414464        38.4895 
 151   0.0000       1.436561        39.0908 
 152   0.0000       1.443834        39.2887 
 153   0.0000       1.460430        39.7403 
 154   0.0000       1.469808        39.9955 
 155   0.0000       1.482012        40.3276 
 156   0.0000       1.501604        40.8607 
 157   0.0000       1.522147        41.4197 
 158   0.0000       1.535743        41.7897 
 159   0.0000       1.546769        42.0897 
 160   0.0000       1.568652        42.6852 
 161   0.0000       1.583584        43.0915 
 162   0.0000       1.605655        43.6921 
 163   0.0000       1.665125        45.3104 
 164   0.0000       1.678173        45.6654 
 165   0.0000       1.688211        45.9385 
 166   0.0000       1.732151        47.1342 
 167   0.0000       1.768603        48.1261 
 168   0.0000       1.843706        50.1698 
 169   0.0000       1.897439        51.6319 
 170   0.0000       1.897760        51.6407 
 171   0.0000       1.918732        52.2113 
 172   0.0000       2.023901        55.0731 
 173   0.0000       2.068645        56.2907 
 174   0.0000       2.076540        56.5055 
 175   0.0000       2.128327        57.9147 
 176   0.0000       2.132557        58.0298 
 177   0.0000       2.143637        58.3313 
 178   0.0000       2.167681        58.9856 
 179   0.0000       2.198476        59.8236 
 180   0.0000       2.232330        60.7448 
 181   0.0000       2.245617        61.1064 
 182   0.0000       2.287073        62.2344 
 183   0.0000       2.356735        64.1300 
 184   0.0000       2.393644        65.1344 
 185   0.0000       2.422613        65.9227 
 186   0.0000       2.438073        66.3433 
 187   0.0000       2.499599        68.0175 
 188   0.0000       2.504237        68.1438 
 189   0.0000       2.530683        68.8634 
 190   0.0000       2.538454        69.0748 
 191   0.0000       2.601118        70.7800 
 192   0.0000       2.622694        71.3671 
 193   0.0000       2.627405        71.4953 
 194   0.0000       2.681148        72.9578 
 195   0.0000       2.734021        74.3965 
 196   0.0000       2.738792        74.5263 
 197   0.0000       2.863099        77.9089 
 198   0.0000       2.869617        78.0863 
 199   0.0000       2.958961        80.5174 
 200   0.0000       2.993416        81.4550 
 201   0.0000       3.043264        82.8114 
 202   0.0000       3.051257        83.0289 
 203   0.0000       3.068687        83.5032 
 204   0.0000       3.121875        84.9505 
 205   0.0000       3.176051        86.4247 
 206   0.0000       3.210538        87.3632 
 207   0.0000       3.276976        89.1710 
 208   0.0000       3.341486        90.9265 
 209   0.0000       3.416896        92.9785 
 210   0.0000       3.450394        93.8900 
 211   0.0000       3.497979        95.1848 
 212   0.0000       3.623532        98.6013 
 213   0.0000       3.770752       102.6074 
 214   0.0000       4.068914       110.7208 
 215   0.0000       4.088687       111.2588 
 216   0.0000       4.122316       112.1739 
 217   0.0000       4.165533       113.3499 
 218   0.0000       4.257920       115.8639 
 219   0.0000       4.296860       116.9235 
 220   0.0000       4.380850       119.2090 
 221   0.0000       4.434703       120.6744 
 222   0.0000       4.599048       125.1465 
 223   0.0000       4.618990       125.6891 
 224   0.0000       4.629101       125.9642 
 225   0.0000       4.663245       126.8934 
 226   0.0000       4.749388       129.2374 
 227   0.0000       4.958820       134.9363 
 228   0.0000       4.986434       135.6878 
 229   0.0000       5.060073       137.6916 
 230   0.0000       5.074030       138.0714 
 231   0.0000       5.188010       141.1729 
 232   0.0000       5.251016       142.8874 
 233   0.0000       5.310141       144.4963 
 234   0.0000       5.324450       144.8857 
 235   0.0000       5.356221       145.7502 
 236   0.0000       5.358132       145.8022 
 237   0.0000       5.398387       146.8976 
 238   0.0000       5.422889       147.5643 
 239   0.0000       5.434935       147.8921 
 240   0.0000       5.576912       151.7555 
 241   0.0000       5.692482       154.9003 
 242   0.0000       5.706697       155.2871 
 243   0.0000       5.719154       155.6261 
 244   0.0000       5.776103       157.1758 
 245   0.0000       5.824129       158.4826 
 246   0.0000       5.865158       159.5991 
 247   0.0000       5.906788       160.7319 
 248   0.0000       5.934129       161.4759 
 249   0.0000       5.961368       162.2171 
 250   0.0000       6.029973       164.0839 
 251   0.0000       6.064870       165.0335 
 252   0.0000       6.090025       165.7180 
 253   0.0000       6.159825       167.6174 
 254   0.0000       6.188399       168.3949 
 255   0.0000       6.207922       168.9262 
 256   0.0000       6.223830       169.3590 
 257   0.0000       6.308209       171.6551 
 258   0.0000       6.328556       172.2088 
 259   0.0000       6.521809       177.4675 
 260   0.0000       6.580806       179.0728 
 261   0.0000       6.606738       179.7785 
 262   0.0000       6.686294       181.9433 
 263   0.0000       6.724074       182.9713 
 264   0.0000       6.837277       186.0518 
 265   0.0000       6.972044       189.7190 
 266   0.0000       6.986531       190.1132 
 267   0.0000       7.013167       190.8380 
 268   0.0000       7.134614       194.1427 
 269   0.0000       7.142585       194.3596 
 270   0.0000       7.156173       194.7294 
 271   0.0000       7.189041       195.6237 
 272   0.0000       7.197969       195.8667 
 273   0.0000       7.231035       196.7665 
 274   0.0000       7.476091       203.4348 
 275   0.0000       7.555837       205.6048 
 276   0.0000       7.697054       209.4475 
 277   0.0000       7.713769       209.9023 
 278   0.0000       7.803622       212.3473 
 279   0.0000       7.876495       214.3303 
 280   0.0000       8.094298       220.2570 
 281   0.0000       8.247383       224.4227 
 282   0.0000       8.348003       227.1607 
 283   0.0000       8.431723       229.4388 
 284   0.0000       8.556637       232.8379 
 285   0.0000       8.966563       243.9926 
 286   0.0000       9.017040       245.3661 
 287   0.0000       9.098661       247.5872 
 288   0.0000       9.237973       251.3780 
 289   0.0000       9.368931       254.9416 
 290   0.0000       9.434963       256.7384 
 291   0.0000       9.859304       268.2853 
 292   0.0000      10.235296       278.5166 
 293   0.0000      10.352335       281.7014 
 294   0.0000      10.404980       283.1339 
 295   0.0000      10.675279       290.4891 
 296   0.0000      10.914827       297.0075 
 297   0.0000      10.930163       297.4249 
 298   0.0000      10.958789       298.2038 
 299   0.0000      11.024842       300.0012 
 300   0.0000      11.042777       300.4892 
 301   0.0000      11.132909       302.9419 
 302   0.0000      11.163866       303.7842 
 303   0.0000      11.177768       304.1625 
 304   0.0000      11.267746       306.6110 
 305   0.0000      11.283919       307.0511 
 306   0.0000      11.286850       307.1308 
 307   0.0000      11.340494       308.5905 
 308   0.0000      11.496143       312.8260 
 309   0.0000      11.577072       315.0281 
 310   0.0000      11.811008       321.3939 
 311   0.0000      11.927341       324.5594 
 312   0.0000      11.928387       324.5879 
 313   0.0000      11.954208       325.2905 
 314   0.0000      11.980932       326.0177 
 315   0.0000      12.204828       332.1103 
 316   0.0000      12.225615       332.6759 
 317   0.0000      12.273112       333.9684 
 318   0.0000      12.338566       335.7495 
 319   0.0000      12.368835       336.5731 
 320   0.0000      12.498374       340.0981 
 321   0.0000      12.554665       341.6298 
 322   0.0000      12.648519       344.1837 
 323   0.0000      12.664552       344.6200 
 324   0.0000      12.666922       344.6845 
 325   0.0000      12.680846       345.0634 
 326   0.0000      12.687303       345.2391 
 327   0.0000      12.690088       345.3148 
 328   0.0000      12.694114       345.4244 
 329   0.0000      12.746703       346.8554 
 330   0.0000      12.836903       349.3099 
 331   0.0000      12.903338       351.1177 
 332   0.0000      12.974465       353.0531 
 333   0.0000      13.024928       354.4263 
 334   0.0000      13.035944       354.7261 
 335   0.0000      13.087355       356.1250 
 336   0.0000      13.216665       359.6437 
 337   0.0000      13.311010       362.2110 
 338   0.0000      13.340695       363.0188 
 339   0.0000      13.492324       367.1448 
 340   0.0000      13.581762       369.5785 
 341   0.0000      13.724571       373.4646 
 342   0.0000      13.761126       374.4593 
 343   0.0000      14.010587       381.2474 
 344   0.0000      14.128476       384.4554 
 345   0.0000      14.249778       387.7562 
 346   0.0000      14.394324       391.6895 
 347   0.0000      14.432431       392.7264 
 348   0.0000      14.508020       394.7833 
 349   0.0000      14.615365       397.7043 
 350   0.0000      14.743487       401.1907 
 351   0.0000      14.882697       404.9788 
 352   0.0000      14.993694       407.9991 
 353   0.0000      15.010801       408.4647 
 354   0.0000      15.011610       408.4867 
 355   0.0000      15.040690       409.2780 
 356   0.0000      15.101144       410.9230 
 357   0.0000      15.185162       413.2093 
 358   0.0000      15.243081       414.7853 
 359   0.0000      15.291761       416.1100 
 360   0.0000      15.448294       420.3695 
 361   0.0000      15.579641       423.9436 
 362   0.0000      15.791879       429.7189 
 363   0.0000      15.828353       430.7114 
 364   0.0000      15.944973       433.8848 
 365   0.0000      16.110240       438.3819 
 366   0.0000      16.142477       439.2591 
 367   0.0000      16.191147       440.5835 
 368   0.0000      16.301004       443.5729 
 369   0.0000      16.504822       449.1190 
 370   0.0000      16.652868       453.1476 
 371   0.0000      16.883390       459.4204 
 372   0.0000      16.898331       459.8270 
 373   0.0000      16.941367       460.9980 
 374   0.0000      16.994634       462.4475 
 375   0.0000      17.187948       467.7078 
 376   0.0000      17.269768       469.9343 
 377   0.0000      17.919845       487.6238 
 378   0.0000      17.973902       489.0947 
 379   0.0000      18.525381       504.1013 
 380   0.0000      18.710854       509.1482 
 381   0.0000      18.819271       512.0984 
 382   0.0000      18.831859       512.4409 
 383   0.0000      18.942670       515.4563 
 384   0.0000      19.276804       524.5485 
 385   0.0000      20.116798       547.4059 
 386   0.0000      20.119338       547.4750 
 387   0.0000      20.151704       548.3557 
 388   0.0000      20.188079       549.3456 
 389   0.0000      20.444169       556.3141 
 390   0.0000      20.497355       557.7614 
 391   0.0000      20.637573       561.5769 
 392   0.0000      21.356721       581.1459 
 393   0.0000      21.445757       583.5687 
 394   0.0000      22.492315       612.0470 
 395   0.0000      22.958442       624.7310 
 396   0.0000      23.008924       626.1046 
 397   0.0000      23.982985       652.6102 
 398   0.0000      24.307729       661.4469 
 399   0.0000      24.557686       668.2486 
 400   0.0000      25.926674       705.5007 
 401   0.0000      26.191500       712.7069 
 402   0.0000      27.035125       735.6632 
 403   0.0000      28.841397       784.8143 
 404   0.0000      30.397634       827.1617 
 405   0.0000      30.473681       829.2310 
 406   0.0000      30.535867       830.9232 
 407   0.0000      30.678278       834.7984 
 408   0.0000      31.209286       849.2479 
 409   0.0000      31.381936       853.9459 
 410   0.0000      31.821877       865.9173 
 411   0.0000      32.016412       871.2109 
 412   0.0000      34.356958       934.9004 
 413   0.0000      41.637579      1133.0161 
 414   0.0000      41.750936      1136.1007 
 415   0.0000      41.888040      1139.8315 
 416   0.0000      43.130115      1173.6301 
 417   0.0000      47.582845      1294.7950 
 418   0.0000      47.757481      1299.5471 
 419   0.0000      47.908352      1303.6525 
 420   0.0000      48.278732      1313.7311 
 421   0.0000      49.372959      1343.5065 
 422   0.0000      66.491030      1809.3129 
 423   0.0000      66.518758      1810.0674 
 424   0.0000      67.315866      1831.7578 
 425   0.0000      67.427596      1834.7982 
 426   0.0000      69.047979      1878.8910 
 427   0.0000      91.311623      2484.7156 
 428   0.0000      91.363979      2486.1403 
 429   0.0000      91.405568      2487.2720 
 430   0.0000      91.502683      2489.9146 
 431   0.0000      91.903864      2500.8313 
 432   0.0000     105.785235      2878.5626 
 433   0.0000     143.746254      3911.5344 
 434   0.0000     201.712862      5488.8860 

                    ********************************
                    * MULLIKEN POPULATION ANALYSIS *
                    ********************************

--------------------------------------------
MULLIKEN ATOMIC CHARGES AND SPIN POPULATIONS
--------------------------------------------
   0 F :   -0.259668    0.000000
   1 N :    0.360275    0.000000
   2 O :   -0.100607   -0.000000
Sum of atomic charges         :    0.0000000
Sum of atomic spin populations:   -0.0000000

-----------------------------------------------------
MULLIKEN REDUCED ORBITAL CHARGES AND SPIN POPULATIONS
-----------------------------------------------------
CHARGE
  0 F s       :     3.961211  s :     3.961211
      pz      :     1.849576  p :     5.274581
      px      :     1.780662
      py      :     1.644343
      dz2     :     0.003847  d :     0.023328
      dxz     :     0.002348
      dyz     :     0.002880
      dx2y2   :     0.005259
      dxy     :     0.008995
      f0      :     0.000366  f :     0.001649
      f+1     :     0.000107
      f-1     :     0.000342
      f+2     :    -0.000182
      f-2     :     0.000423
      f+3     :     0.000093
      f-3     :     0.000501
      g0      :     0.000006  g :    -0.000879
      g+1     :    -0.000237
      g-1     :     0.000049
      g+2     :    -0.000079
      g-2     :    -0.000001
      g+3     :     0.000018
      g-3     :     0.000054
      g+4     :    -0.000799
      g-4     :     0.000109
      h0      :    -0.000044  h :    -0.000222
      h+1     :    -0.000002
      h-1     :     0.000009
      h+2     :    -0.000044
      h-2     :    -0.000001
      h+3     :    -0.000047
      h-3     :     0.000000
      h+4     :     0.000054
      h-4     :     0.000006
      h+5     :    -0.000135
      h-5     :    -0.000019
  1 N s       :     3.756472  s :     3.756472
      pz      :     0.813571  p :     2.703338
      px      :     0.883643
      py      :     1.006125
      dz2     :     0.011123  d :     0.152235
      dxz     :     0.037095
      dyz     :     0.009948
      dx2y2   :     0.035181
      dxy     :     0.058887
      f0      :     0.001799  f :     0.023172
      f+1     :     0.001188
      f-1     :     0.000477
      f+2     :     0.001818
      f-2     :     0.003569
      f+3     :     0.009090
      f-3     :     0.005230
      g0      :     0.000089  g :     0.004203
      g+1     :     0.000412
      g-1     :     0.000336
      g+2     :     0.000246
      g-2     :     0.000335
      g+3     :     0.000095
      g-3     :     0.000201
      g+4     :     0.000927
      g-4     :     0.001562
      h0      :     0.000016  h :     0.000306
      h+1     :     0.000016
      h-1     :    -0.000004
      h+2     :     0.000001
      h-2     :    -0.000002
      h+3     :     0.000030
      h-3     :    -0.000051
      h+4     :     0.000051
      h-4     :     0.000036
      h+5     :     0.000192
      h-5     :     0.000021
  2 O s       :     3.896380  s :     3.896380
      pz      :     1.245558  p :     4.134387
      px      :     1.273874
      py      :     1.614955
      dz2     :     0.005246  d :     0.060632
      dxz     :     0.022385
      dyz     :     0.002794
      dx2y2   :     0.015199
      dxy     :     0.015007
      f0      :     0.001100  f :     0.007975
      f+1     :     0.000914
      f-1     :    -0.000030
      f+2     :     0.002141
      f-2     :     0.001115
      f+3     :     0.001510
      f-3     :     0.001225
      g0      :    -0.000012  g :     0.001084
      g+1     :     0.000229
      g-1     :    -0.000017
      g+2     :     0.000131
      g-2     :    -0.000027
      g+3     :     0.000108
      g-3     :     0.000310
      g+4     :    -0.000136
      g-4     :     0.000497
      h0      :     0.000028  h :     0.000150
      h+1     :    -0.000023
      h-1     :    -0.000003
      h+2     :    -0.000013
      h-2     :    -0.000027
      h+3     :     0.000008
      h-3     :    -0.000006
      h+4     :     0.000000
      h-4     :     0.000077
      h+5     :    -0.000029
      h-5     :     0.000139

SPIN
  0 F s       :     0.000000  s :     0.000000
      pz      :    -0.000000  p :     0.000000
      px      :    -0.000000
      py      :     0.000000
      dz2     :    -0.000000  d :    -0.000000
      dxz     :    -0.000000
      dyz     :     0.000000
      dx2y2   :     0.000000
      dxy     :    -0.000000
      f0      :     0.000000  f :     0.000000
      f+1     :     0.000000
      f-1     :    -0.000000
      f+2     :     0.000000
      f-2     :     0.000000
      f+3     :     0.000000
      f-3     :    -0.000000
      g0      :    -0.000000  g :     0.000000
      g+1     :     0.000000
      g-1     :     0.000000
      g+2     :     0.000000
      g-2     :    -0.000000
      g+3     :    -0.000000
      g-3     :     0.000000
      g+4     :    -0.000000
      g-4     :     0.000000
      h0      :     0.000000  h :     0.000000
      h+1     :     0.000000
      h-1     :    -0.000000
      h+2     :     0.000000
      h-2     :     0.000000
      h+3     :     0.000000
      h-3     :     0.000000
      h+4     :     0.000000
      h-4     :     0.000000
      h+5     :    -0.000000
      h-5     :     0.000000
  1 N s       :     0.000000  s :     0.000000
      pz      :     0.000000  p :     0.000000
      px      :     0.000000
      py      :     0.000000
      dz2     :    -0.000000  d :     0.000000
      dxz     :    -0.000000
      dyz     :     0.000000
      dx2y2   :     0.000000
      dxy     :     0.000000
      f0      :     0.000000  f :     0.000000
      f+1     :     0.000000
      f-1     :    -0.000000
      f+2     :    -0.000000
      f-2     :     0.000000
      f+3     :    -0.000000
      f-3     :     0.000000
      g0      :    -0.000000  g :    -0.000000
      g+1     :    -0.000000
      g-1     :    -0.000000
      g+2     :     0.000000
      g-2     :     0.000000
      g+3     :    -0.000000
      g-3     :    -0.000000
      g+4     :     0.000000
      g-4     :    -0.000000
      h0      :     0.000000  h :     0.000000
      h+1     :     0.000000
      h-1     :     0.000000
      h+2     :    -0.000000
      h-2     :     0.000000
      h+3     :     0.000000
      h-3     :    -0.000000
      h+4     :     0.000000
      h-4     :    -0.000000
      h+5     :    -0.000000
      h-5     :     0.000000
  2 O s       :    -0.000000  s :    -0.000000
      pz      :     0.000000  p :    -0.000000
      px      :    -0.000000
      py      :    -0.000000
      dz2     :    -0.000000  d :    -0.000000
      dxz     :     0.000000
      dyz     :     0.000000
      dx2y2   :    -0.000000
      dxy     :    -0.000000
      f0      :     0.000000  f :    -0.000000
      f+1     :    -0.000000
      f-1     :     0.000000
      f+2     :     0.000000
      f-2     :    -0.000000
      f+3     :    -0.000000
      f-3     :     0.000000
      g0      :    -0.000000  g :    -0.000000
      g+1     :     0.000000
      g-1     :    -0.000000
      g+2     :    -0.000000
      g-2     :     0.000000
      g+3     :    -0.000000
      g-3     :    -0.000000
      g+4     :     0.000000
      g-4     :    -0.000000
      h0      :     0.000000  h :    -0.000000
      h+1     :    -0.000000
      h-1     :     0.000000
      h+2     :     0.000000
      h-2     :    -0.000000
      h+3     :    -0.000000
      h-3     :     0.000000
      h+4     :    -0.000000
      h-4     :    -0.000000
      h+5     :     0.000000
      h-5     :    -0.000000


                     *******************************
                     * LOEWDIN POPULATION ANALYSIS *
                     *******************************

-------------------------------------------
LOEWDIN ATOMIC CHARGES AND SPIN POPULATIONS
-------------------------------------------
   0 F :   -0.102481    0.000000
   1 N :   -0.118986    0.000000
   2 O :    0.221466   -0.000000

----------------------------------------------------
LOEWDIN REDUCED ORBITAL CHARGES AND SPIN POPULATIONS
----------------------------------------------------
CHARGE
  0 F s       :     3.506646  s :     3.506646
      pz      :     1.612321  p :     4.828278
      px      :     1.669927
      py      :     1.546030
      dz2     :     0.043947  d :     0.272291
      dxz     :     0.028168
      dyz     :     0.019187
      dx2y2   :     0.078124
      dxy     :     0.102865
      f0      :     0.020703  f :     0.209332
      f+1     :     0.021911
      f-1     :     0.016557
      f+2     :     0.003025
      f-2     :     0.026108
      f+3     :     0.070468
      f-3     :     0.050560
      g0      :     0.007659  g :     0.166625
      g+1     :     0.019630
      g-1     :     0.008430
      g+2     :     0.011981
      g-2     :     0.011693
      g+3     :     0.001920
      g-3     :     0.013172
      g+4     :     0.038056
      g-4     :     0.054085
      h0      :     0.009451  h :     0.119309
      h+1     :     0.005416
      h-1     :     0.002483
      h+2     :     0.003182
      h-2     :     0.012542
      h+3     :     0.009424
      h-3     :     0.008382
      h+4     :     0.002447
      h-4     :     0.003460
      h+5     :     0.036630
      h-5     :     0.025891
  1 N s       :     3.024054  s :     3.024054
      pz      :     0.684043  p :     2.699073
      px      :     1.072564
      py      :     0.942466
      dz2     :     0.094392  d :     0.849925
      dxz     :     0.143357
      dyz     :     0.040177
      dx2y2   :     0.238378
      dxy     :     0.333621
      f0      :     0.022268  f :     0.391116
      f+1     :     0.034044
      f-1     :     0.020011
      f+2     :     0.024633
      f-2     :     0.047936
      f+3     :     0.139480
      f-3     :     0.102743
      g0      :     0.005174  g :     0.107484
      g+1     :     0.013125
      g-1     :     0.004989
      g+2     :     0.006636
      g-2     :     0.011258
      g+3     :     0.005998
      g-3     :     0.004183
      g+4     :     0.031025
      g-4     :     0.025096
      h0      :     0.003402  h :     0.047333
      h+1     :     0.002912
      h-1     :     0.002554
      h+2     :     0.001085
      h-2     :     0.006408
      h+3     :     0.004141
      h-3     :     0.003711
      h+4     :     0.003180
      h-4     :     0.000955
      h+5     :     0.011086
      h-5     :     0.007900
  2 O s       :     3.191437  s :     3.191437
      pz      :     1.024276  p :     3.776731
      px      :     1.417890
      py      :     1.334566
      dz2     :     0.046733  d :     0.372852
      dxz     :     0.064695
      dyz     :     0.006331
      dx2y2   :     0.104255
      dxy     :     0.150838
      f0      :     0.020286  f :     0.203924
      f+1     :     0.025408
      f-1     :     0.008058
      f+2     :     0.020090
      f-2     :     0.010726
      f+3     :     0.051687
      f-3     :     0.067668
      g0      :     0.007385  g :     0.132734
      g+1     :     0.018799
      g-1     :     0.002645
      g+2     :     0.009374
      g-2     :     0.010642
      g+3     :     0.003552
      g-3     :     0.010763
      g+4     :     0.035827
      g-4     :     0.033746
      h0      :     0.006008  h :     0.100855
      h+1     :     0.006478
      h-1     :     0.001022
      h+2     :     0.008207
      h-2     :     0.004757
      h+3     :     0.006043
      h-3     :     0.009984
      h+4     :     0.000157
      h-4     :     0.009220
      h+5     :     0.027880
      h-5     :     0.021099

SPIN
  0 F s       :     0.000000  s :     0.000000
      pz      :     0.000000  p :     0.000000
      px      :     0.000000
      py      :     0.000000
      dz2     :     0.000000  d :     0.000000
      dxz     :    -0.000000
      dyz     :    -0.000000
      dx2y2   :     0.000000
      dxy     :     0.000000
      f0      :    -0.000000  f :     0.000000
      f+1     :     0.000000
      f-1     :     0.000000
      f+2     :     0.000000
      f-2     :     0.000000
      f+3     :     0.000000
      f-3     :    -0.000000
      g0      :    -0.000000  g :    -0.000000
      g+1     :     0.000000
      g-1     :     0.000000
      g+2     :     0.000000
      g-2     :     0.000000
      g+3     :     0.000000
      g-3     :     0.000000
      g+4     :    -0.000000
      g-4     :    -0.000000
      h0      :     0.000000  h :     0.000000
      h+1     :     0.000000
      h-1     :     0.000000
      h+2     :     0.000000
      h-2     :    -0.000000
      h+3     :     0.000000
      h-3     :    -0.000000
      h+4     :    -0.000000
      h-4     :    -0.000000
      h+5     :    -0.000000
      h-5     :     0.000000
  1 N s       :     0.000000  s :     0.000000
      pz      :     0.000000  p :     0.000000
      px      :     0.000000
      py      :    -0.000000
      dz2     :    -0.000000  d :     0.000000
      dxz     :    -0.000000
      dyz     :    -0.000000
      dx2y2   :     0.000000
      dxy     :     0.000000
      f0      :     0.000000  f :    -0.000000
      f+1     :    -0.000000
      f-1     :    -0.000000
      f+2     :    -0.000000
      f-2     :    -0.000000
      f+3     :    -0.000000
      f-3     :    -0.000000
      g0      :     0.000000  g :     0.000000
      g+1     :    -0.000000
      g-1     :     0.000000
      g+2     :    -0.000000
      g-2     :     0.000000
      g+3     :     0.000000
      g-3     :     0.000000
      g+4     :     0.000000
      g-4     :    -0.000000
      h0      :     0.000000  h :     0.000000
      h+1     :     0.000000
      h-1     :     0.000000
      h+2     :     0.000000
      h-2     :     0.000000
      h+3     :    -0.000000
      h-3     :     0.000000
      h+4     :     0.000000
      h-4     :     0.000000
      h+5     :     0.000000
      h-5     :     0.000000
  2 O s       :    -0.000000  s :    -0.000000
      pz      :    -0.000000  p :    -0.000000
      px      :    -0.000000
      py      :    -0.000000
      dz2     :    -0.000000  d :    -0.000000
      dxz     :    -0.000000
      dyz     :     0.000000
      dx2y2   :    -0.000000
      dxy     :     0.000000
      f0      :    -0.000000  f :     0.000000
      f+1     :     0.000000
      f-1     :    -0.000000
      f+2     :    -0.000000
      f-2     :    -0.000000
      f+3     :    -0.000000
      f-3     :     0.000000
      g0      :    -0.000000  g :    -0.000000
      g+1     :     0.000000
      g-1     :    -0.000000
      g+2     :    -0.000000
      g-2     :    -0.000000
      g+3     :    -0.000000
      g-3     :     0.000000
      g+4     :     0.000000
      g-4     :    -0.000000
      h0      :     0.000000  h :     0.000000
      h+1     :     0.000000
      h-1     :     0.000000
      h+2     :     0.000000
      h-2     :     0.000000
      h+3     :    -0.000000
      h-3     :    -0.000000
      h+4     :     0.000000
      h-4     :     0.000000
      h+5     :     0.000000
      h-5     :     0.000000


                      *****************************
                      * MAYER POPULATION ANALYSIS *
                      *****************************

  NA   - Mulliken gross atomic population
  ZA   - Total nuclear charge
  QA   - Mulliken gross atomic charge
  VA   - Mayer's total valence
  BVA  - Mayer's bonded valence
  FA   - Mayer's free valence

  ATOM       NA         ZA         QA         VA         BVA        FA
  0 F      9.2597     9.0000    -0.2597     1.0237     1.0237    -0.0000
  1 N      6.6397     7.0000     0.3603     2.9376     2.9376     0.0000
  2 O      8.1006     8.0000    -0.1006     2.3453     2.3453     0.0000

  Mayer bond orders larger than 0.1
B(  0-F ,  1-N ) :   0.8080 B(  0-F ,  2-O ) :   0.2157 B(  1-N ,  2-O ) :   2.1296 


-------
TIMINGS
-------

Total SCF time: 0 days 0 hours 24 min 8 sec 

Total time                  ....    1448.714 sec
Sum of individual times     ....    1447.690 sec  ( 99.9%)

Fock matrix formation       ....    1442.729 sec  ( 99.6%)
  XC integration            ....      20.696 sec  (  1.4% of F)
    Basis function eval.    ....       1.310 sec  (  6.3% of XC)
    Density eval.           ....       4.676 sec  ( 22.6% of XC)
    XC-Functional eval.     ....       0.176 sec  (  0.9% of XC)
    XC-Potential eval.      ....      13.708 sec  ( 66.2% of XC)
Diagonalization             ....       2.270 sec  (  0.2%)
Density matrix formation    ....       0.034 sec  (  0.0%)
Population analysis         ....       0.156 sec  (  0.0%)
Initial guess               ....       0.854 sec  (  0.1%)
Orbital Transformation      ....       0.000 sec  (  0.0%)
Orbital Orthonormalization  ....       0.000 sec  (  0.0%)
DIIS solution               ....       1.244 sec  (  0.1%)
Grid generation             ....       0.402 sec  (  0.0%)

-------------------------   --------------------
FINAL SINGLE POINT ENERGY      -229.625628366493
-------------------------   --------------------


                            ***************************************
                            *     ORCA property calculations      *
                            ***************************************

                                    ---------------------
                                    Active property flags
                                    ---------------------
   (+) Dipole Moment
   (+) Polarizability


------------------------------------------------------------------------------
                       ORCA ELECTRIC PROPERTIES CALCULATION
------------------------------------------------------------------------------

Dipole Moment Calculation                       ... on
Quadrupole Moment Calculation                   ... off
Polarizability Calculation                      ... Analytic (CP-SCF)
GBWName                                         ... fno_pbe.gbw
Electron density file                           ... fno_pbe.scfp.tmp
The origin for moment calculation is the CENTER OF MASS  = (-0.036784, -0.023289  0.000000)

-------------
DIPOLE MOMENT
-------------
                                X             Y             Z
Electronic contribution:     -0.41629      -0.22093      -0.00000
Nuclear contribution   :      0.88262       0.55932       0.00000
                        -----------------------------------------
Total Dipole Moment    :      0.46633       0.33839      -0.00000
                        -----------------------------------------
Magnitude (a.u.)       :      0.57617
Magnitude (Debye)      :      1.46450



--------------------
Rotational spectrum 
--------------------
 
Rotational constants in cm-1:     3.169928     0.396622     0.352515 
Rotational constants in MHz : 95032.062293 11890.431086 10568.142885 

 Dipole components along the rotational axes: 
x,y,z [a.u.] :    -0.566116     0.107151    -0.000000 
x,y,z [Debye]:    -1.438954     0.272356    -0.000000 

 
Transforming and storing MO dipole integrals   ... done

                ... starting polarizability calculation

Opening the Dipole integral file               ... (fno_pbe.dmo.tmp) done
Reading Dipole-MO integrals                    ... done
Solving CP-SCF equations                       ... 

           ************************************************************
           *        Program running with 4 parallel MPI-processes     *
           *              working on a common directory               *
           ************************************************************

------------------------------------------------------------------------------
                           ORCA CP-SCF CALCULATION
------------------------------------------------------------------------------

Input orbitals are from        ... fno_pbe.gbw
Input Perturbation             ... fno_pbe.cpv.tmp
Wavefunction output            ... fno_pbe.cpu.tmp
Perturbation mode              ... Real perturbation (singlet)
Solver                         ... POPLE
Max. number of iterations      ... 200
Convergence tolerance          ... 1.000e-06
Integral handling              ... Direct
Number of perturbations        ... 3
Number of operators            ... 2
Orbital ranges used for CP-SCF:
 Operator 0:  Orbitals   0... 11  to  12...434
 Operator 1:  Orbitals   0... 11  to  12...434
DFT calculation                         ... on
Exchange functional (SCF)               ... PBE
Exchange functional (CP-SCF)            ... PBE
   PBE kappa parameter  XKappa (SCF)    ...  0.804000
   PBE kappa parameter  XKappa (CP-SCF) ...  0.804000
   PBE mue parameter   XMuePBE (SCF)    ...  0.219520
   PBE mue parameter   XMuePBE (CP-SCF) ...  0.219520
Correlation functional (SCF)            ... PBE
Correlation functional (CP-SCF)         ... PBE
   PBE beta parameter CBetaPBE (SCF)    ...  0.066725
   PBE beta parameter CBetaPBE (CP-SCF) ...  0.066725
 LDA part of GGA corr.  LDAOpt (SCF)    ... PW91-LDA
 LDA part of GGA corr.  LDAOpt (CP-SCF) ... PW91-LDA
Variables per vector in CP-SCF ... 10152
Number of vectors sought       ... 3
Recalculating density on grid  ... done
Calculating the xc-kernel      ... done
     CP-SCF ITERATION   0: 
     CP-SCF ITERATION   1:      1.693227330357
     CP-SCF ITERATION   2:      0.109459971036
     CP-SCF ITERATION   3:      0.003186730217
     CP-SCF ITERATION   4:      0.000160660309
     CP-SCF ITERATION   5:      0.000005125807
     CP-SCF ITERATION   6:      0.000000090406
done
Reading CP-SCF coefficients                    ... done
Doing the polarizability tensor   ... done
Cleaning up                                    ... done

-------------------------
THE POLARIZABILITY TENSOR
-------------------------

The raw cartesian tensor (atomic units):
   23.76283      4.18289     -0.00000  
    4.18289     17.37901      0.00000  
   -0.00000      0.00000     12.46515  
diagonalized tensor: 
   12.46515     15.30928     25.83256  

    0.00000     -0.44349     -0.89628  
   -0.00000      0.89628     -0.44349  
    1.00000      0.00000      0.00000  

Isotropic polarizability :  17.86900


Timings for individual modules:

Sum of individual times         ...     2533.033 sec (=  42.217 min)
GTO integral calculation        ...        2.366 sec (=   0.039 min)   0.1 %
SCF iterations                  ...     1449.009 sec (=  24.150 min)  57.2 %
Solution of CP-SCF eqns.        ...     1081.658 sec (=  18.028 min)  42.7 %
                             ****ORCA TERMINATED NORMALLY****
TOTAL RUN TIME: 0 days 0 hours 42 minutes 13 seconds 894 msec
