
                                 *****************
                                 * O   R   C   A *
                                 *****************

           --- An Ab Initio, DFT and Semiempirical electronic structure package ---

                  #######################################################
                  #                        -***-                        #
                  #          Department of theory and spectroscopy      #
                  #               Directorship: Frank Neese             #
                  #        Max Planck Institute fuer Kohlenforschung    #
                  #                Kaiser Wilhelm Platz 1               #
                  #                 D-45470 Muelheim/Ruhr               #
                  #                      Germany                        #
                  #                                                     #
                  #                  All rights reserved                #
                  #                        -***-                        #
                  #######################################################


                         Program Version 4.1.2  - RELEASE  -


 With contributions from (in alphabetic order):
   Daniel Aravena         : Magnetic Properties
   Michael Atanasov       : Ab Initio Ligand Field Theory
   Alexander A. Auer      : GIAO ZORA
   Ute Becker             : Parallelization
   Giovanni Bistoni       : ED, Open-shell LED
   Martin Brehm           : Molecular dynamics
   Dmytro Bykov           : SCF Hessian
   Vijay G. Chilkuri      : MRCI spin determinant printing
   Dipayan Datta          : RHF DLPNO-CCSD density
   Achintya Kumar Dutta   : EOM-CC, STEOM-CC
   Dmitry Ganyushin       : Spin-Orbit,Spin-Spin,Magnetic field MRCI
   Miquel Garcia          : C-PCM Hessian
   Yang Guo               : DLPNO-NEVPT2, CIM, IAO-localization
   Andreas Hansen         : Spin unrestricted coupled pair/coupled cluster methods
   Benjamin Helmich-Paris : CASSCF linear response (MC-RPA)
   Lee Huntington         : MR-EOM, pCC
   Robert Izsak           : Overlap fitted RIJCOSX, COSX-SCS-MP3, EOM
   Christian Kollmar      : KDIIS, OOCD, Brueckner-CCSD(T), CCSD density
   Simone Kossmann        : Meta GGA functionals, TD-DFT gradient, OOMP2, MP2 Hessian
   Martin Krupicka        : AUTO-CI
   Lucas Lang             : DCDCAS
   Dagmar Lenk            : GEPOL surface, SMD
   Dimitrios Liakos       : Extrapolation schemes; parallel MDCI
   Dimitrios Manganas     : ROCIS; embedding schemes
   Dimitrios Pantazis     : SARC Basis sets
   Taras Petrenko         : DFT Hessian,TD-DFT gradient, ASA, ECA, R-Raman, ABS, FL, XAS/XES, NRVS
   Peter Pinski           : DLPNO-MP2, DLPNO-MP2 Gradient
   Christoph Reimann      : Effective Core Potentials
   Marius Retegan         : Local ZFS, SOC
   Christoph Riplinger    : Optimizer, TS searches, QM/MM, DLPNO-CCSD(T), (RO)-DLPNO pert. Triples
   Tobias Risthaus        : Range-separated hybrids, TD-DFT gradient, RPA, STAB
   Michael Roemelt        : Restricted open shell CIS
   Masaaki Saitow         : Open-shell DLPNO
   Barbara Sandhoefer     : DKH picture change effects
   Avijit Sen             : IP-ROCIS
   Kantharuban Sivalingam : CASSCF convergence, NEVPT2, FIC-MRCI
   Bernardo de Souza      : ESD, SOC TD-DFT
   Georgi Stoychev        : AutoAux, RI-MP2 NMR
   Willem Van den Heuvel  : Paramagnetic NMR
   Boris Wezisla          : Elementary symmetry handling
   Frank Wennmohs         : Technical directorship


 We gratefully acknowledge several colleagues who have allowed us to
 interface, adapt or use parts of their codes:
   Stefan Grimme, W. Hujo, H. Kruse,             : VdW corrections, initial TS optimization,
                  C. Bannwarth                     DFT functionals, gCP, sTDA/sTD-DF
   Ed Valeev                                     : LibInt (2-el integral package), F12 methods
   Garnet Chan, S. Sharma, J. Yang, R. Olivares  : DMRG
   Ulf Ekstrom                                   : XCFun DFT Library
   Mihaly Kallay                                 : mrcc  (arbitrary order and MRCC methods)
   Andreas Klamt, Michael Diedenhofen            : otool_cosmo (COSMO solvation model)
   Jiri Pittner, Ondrej Demel                    : Mk-CCSD
   Frank Weinhold                                : gennbo (NPA and NBO analysis)
   Christopher J. Cramer and Donald G. Truhlar   : smd solvation model
   Lars Goerigk                                  : TD-DFT with DH, B97 family of functionals
   V. Asgeirsson, H. Jonsson                     : NEB implementation
   FAccTs GmbH                                   : IRC, NEB, NEB-TS, Multilevel


 Your calculation uses the libint2 library for the computation of 2-el integrals
 For citations please refer to: http://libint.valeyev.net

 This ORCA versions uses:
   CBLAS   interface :  Fast vector & matrix operations
   LAPACKE interface :  Fast linear algebra routines
   SCALAPACK package :  Parallel linear algebra routines


----- Orbital basis set information -----
Your calculation utilizes the basis: aug-pc-4
   H, C-F              : F. Jensen, J. Chem. Phys. 115, 9113 (2001).
                         F. Jensen, J. Chem. Phys. 116, 7372 (2002).
                         F. Jensen, J. Chem. Phys. 117, 9234 (2002).
   Si-Cl               : F. Jensen, T. Helgaker, J. Chem. Phys. 121, 3463 (2004).
   He-B, Ne-Mg, Al, Ar : F. Jensen, J. Phys. Chem. A 111, 11198 (2007).
   K, Ca, Ga-Kr        : F. Jensen, J. Chem. Phys. 136, 094110 (2012).
   Sc-Zn               : F. Jensen, J. Chem. Phys. 138, 014107 (2013).

================================================================================
                                        WARNINGS
                       Please study these warnings very carefully!
================================================================================


INFO   : the flag for use of LIBINT has been found!

================================================================================
                                       INPUT FILE
================================================================================
NAME = h2o-li_pbe.inp
|  1> !uks pbe nori aug-pc-4 grid5 nofinalgrid verytightscf
|  2> 
|  3> %maxcore 1500
|  4> 
|  5> %pal nprocs 4 end
|  6> 
|  7> %scf
|  8> 	maxiter 200
|  9> end
| 10> %elprop
| 11> 	dipole true
| 12> 	 polar 1
| 13> 	 maxiter 200
| 14> end
| 15> 
| 16> * xyz 0 2
| 17> Li 0.000000 0.000000 0.000000
| 18> O 0.000000 0.000000 1.876166
| 19> H 0.835500 0.000000 2.357191
| 20> H -0.587326 0.594229 2.357191
| 21> *
| 22> 
| 23>                          ****END OF INPUT****
================================================================================

                       ****************************
                       * Single Point Calculation *
                       ****************************

---------------------------------
CARTESIAN COORDINATES (ANGSTROEM)
---------------------------------
  Li     0.000000    0.000000    0.000000
  O      0.000000    0.000000    1.876166
  H      0.835500    0.000000    2.357191
  H     -0.587326    0.594229    2.357191

----------------------------
CARTESIAN COORDINATES (A.U.)
----------------------------
  NO LB      ZA    FRAG     MASS         X           Y           Z
   0 Li    3.0000    0     6.941    0.000000    0.000000    0.000000
   1 O     8.0000    0    15.999    0.000000    0.000000    3.545440
   2 H     1.0000    0     1.008    1.578866    0.000000    4.454445
   3 H     1.0000    0     1.008   -1.109885    1.122930    4.454445

--------------------------------
INTERNAL COORDINATES (ANGSTROEM)
--------------------------------
 Li     0   0   0     0.000000000000     0.00000000     0.00000000
 O      1   0   0     1.876166000000     0.00000000     0.00000000
 H      2   1   0     0.964077434973   119.93045835     0.00000000
 H      2   1   3     0.964077271458   119.93046395   134.66526462

---------------------------
INTERNAL COORDINATES (A.U.)
---------------------------
 Li     0   0   0     0.000000000000     0.00000000     0.00000000
 O      1   0   0     3.545439921774     0.00000000     0.00000000
 H      2   1   0     1.821842323993   119.93045835     0.00000000
 H      2   1   3     1.821842014994   119.93046395   134.66526462

---------------------
BASIS SET INFORMATION
---------------------
There are 3 groups of distinct atoms

 Group   1 Type Li  : 31s9p4d3f2g contracted to 9s5p4d3f2g pattern {12121111111/51111/1111/111/11}
 Group   2 Type O   : 27s12p7d4f3g2h contracted to 9s8p7d4f3g2h pattern {1191111111/51111111/1111111/1111/111/11}
 Group   3 Type H   : 12s7p4d3f2g contracted to 8s7p4d3f2g pattern {51111111/1111111/1111/111/11}

Atom   0Li   basis set group =>   1
Atom   1O    basis set group =>   2
Atom   2H    basis set group =>   3
Atom   3H    basis set group =>   3


           ************************************************************
           *        Program running with 4 parallel MPI-processes     *
           *              working on a common directory               *
           ************************************************************
------------------------------------------------------------------------------
                           ORCA GTO INTEGRAL CALCULATION
------------------------------------------------------------------------------

                         BASIS SET STATISTICS AND STARTUP INFO

 # of primitive gaussian shells          ...  160
 # of primitive gaussian functions       ...  476
 # of contracted shells                  ...  104
 # of contracted basis functions         ...  404
 Highest angular momentum                ...    5
 Maximum contraction depth               ...   12
 Integral package used                   ... LIBINT
 Integral threshhold            Thresh   ...  1.000e-12
 Primitive cut-off              TCut     ...  1.000e-14


------------------------------ INTEGRAL EVALUATION ----------------------------


 * One electron integrals 
 Pre-screening matrix                    ... done
 Shell pair data                         ... done (   0.002 sec)



           ************************************************************
           *        Program running with 4 parallel MPI-processes     *
           *              working on a common directory               *
           ************************************************************
-------------------------------------------------------------------------------
                                 ORCA SCF
-------------------------------------------------------------------------------

------------
SCF SETTINGS
------------
Hamiltonian:
 Density Functional     Method          .... DFT(GTOs)
 Exchange Functional    Exchange        .... PBE
   PBE kappa parameter   XKappa         ....  0.804000
   PBE mue parameter    XMuePBE         ....  0.219520
 Correlation Functional Correlation     .... PBE
   PBE beta parameter  CBetaPBE         ....  0.066725
 LDA part of GGA corr.  LDAOpt          .... PW91-LDA
 Gradients option       PostSCFGGA      .... off
   Density functional embedding theory  .... OFF
   NL short-range parameter             ....  6.400000


General Settings:
 Integral files         IntName         .... h2o-li_pbe
 Hartree-Fock type      HFTyp           .... UHF
 Total Charge           Charge          ....    0
 Multiplicity           Mult            ....    2
 Number of Electrons    NEL             ....   13
 Basis Dimension        Dim             ....  404
 Nuclear Repulsion      ENuc            ....     17.1643476136 Eh

Convergence Acceleration:
 DIIS                   CNVDIIS         .... on
   Start iteration      DIISMaxIt       ....    12
   Startup error        DIISStart       ....  0.200000
   # of expansion vecs  DIISMaxEq       ....     5
   Bias factor          DIISBfac        ....   1.050
   Max. coefficient     DIISMaxC        ....  10.000
 Newton-Raphson         CNVNR           .... off
 SOSCF                  CNVSOSCF        .... off
 Level Shifting         CNVShift        .... on
   Level shift para.    LevelShift      ....    0.2500
   Turn off err/grad.   ShiftErr        ....    0.0010
 Zerner damping         CNVZerner       .... off
 Static damping         CNVDamp         .... on
   Fraction old density DampFac         ....    0.7000
   Max. Damping (<1)    DampMax         ....    0.9800
   Min. Damping (>=0)   DampMin         ....    0.0000
   Turn off err/grad.   DampErr         ....    0.1000
 Fernandez-Rico         CNVRico         .... off

SCF Procedure:
 Maximum # iterations   MaxIter         ....   200
 SCF integral mode      SCFMode         .... Direct
   Integral package                     .... LIBINT
 Reset frequency        DirectResetFreq ....    20
 Integral Threshold     Thresh          ....  1.000e-12 Eh
 Primitive CutOff       TCut            ....  1.000e-14 Eh

Convergence Tolerance:
 Convergence Check Mode ConvCheckMode   .... Total+1el-Energy
 Convergence forced     ConvForced      .... 0
 Energy Change          TolE            ....  1.000e-09 Eh
 1-El. energy change                    ....  1.000e-06 Eh
 DIIS Error             TolErr          ....  1.000e-08


Diagonalization of the overlap matrix:
Smallest eigenvalue                        ... 6.583e-07
Time for diagonalization                   ...    0.037 sec
Threshold for overlap eigenvalues          ... 1.000e-08
Number of eigenvalues below threshold      ... 0
Time for construction of square roots      ...    0.023 sec
Total time needed                          ...    0.061 sec

-------------------
DFT GRID GENERATION
-------------------

General Integration Accuracy     IntAcc      ...  5.010
Radial Grid Type                 RadialGrid  ... Gauss-Chebyshev
Angular Grid (max. acc.)         AngularGrid ... Lebedev-434
Angular grid pruning method      GridPruning ... 3 (G Style)
Weight generation scheme         WeightScheme... Becke
Basis function cutoff            BFCut       ...    1.0000e-12
Integration weight cutoff        WCut        ...    1.0000e-14
Grids for H and He will be reduced by one unit

# of grid points (after initial pruning)     ...  34588 (   0.0 sec)
# of grid points (after weights+screening)   ...  33863 (   0.0 sec)
nearest neighbour list constructed           ...    0.0 sec
Grid point re-assignment to atoms done       ...    0.0 sec
Grid point division into batches done        ...    0.2 sec
Reduced shell lists constructed in    0.3 sec

Total number of grid points                  ...    33863
Total number of batches                      ...      530
Average number of points per batch           ...       63
Average number of grid points per atom       ...     8466
Average number of shells per batch           ...    62.37 (59.97%)
Average number of basis functions per batch  ...   243.55 (60.29%)
Average number of large shells per batch     ...    53.54 (85.85%)
Average number of large basis fcns per batch ...   208.72 (85.70%)
Maximum spatial batch extension              ...  32.58, 32.58, 30.97 au
Average spatial batch extension              ...   1.53,  1.51,  1.34 au

Time for grid setup =    0.388 sec

------------------------------
INITIAL GUESS: MODEL POTENTIAL
------------------------------
Loading Hartree-Fock densities                     ... done
Calculating cut-offs                               ... done
Setting up the integral package                    ... done
Initializing the effective Hamiltonian             ... done
Starting the Coulomb interaction                   ... done (   0.0 sec)
Reading the grid                                   ... done
Mapping shells                                     ... done
Starting the XC term evaluation                    ... done (   0.7 sec)
  promolecular density results
     # of electrons  =     12.999013656
     EX              =    -10.506505452
     EC              =     -0.379079873
     EX+EC           =    -10.885585324
Transforming the Hamiltonian                       ... done (   0.0 sec)
Diagonalizing the Hamiltonian                      ... done (   0.0 sec)
Back transforming the eigenvectors                 ... done (   0.0 sec)
Now organizing SCF variables                       ... done
                      ------------------
                      INITIAL GUESS DONE (   1.3 sec)
                      ------------------
--------------
SCF ITERATIONS
--------------
ITER       Energy         Delta-E        Max-DP      RMS-DP      [F,P]     Damp
               ***  Starting incremental Fock matrix formation  ***
  0    -83.7768534877   0.000000000000 0.03864658  0.00025988  0.3232542 0.7000
  1    -83.8277242045  -0.050870716814 0.03794310  0.00020611  0.0940558 0.7000
                               ***Turning on DIIS***
  2    -83.8399066995  -0.012182494975 0.08918131  0.00050398  0.0157650 0.0000
  3    -83.8698836032  -0.029976903670 0.01111195  0.00007863  0.0544213 0.0000
  4    -83.8730085187  -0.003124915520 0.01795232  0.00009979  0.0074413 0.0000
  5    -83.8731765134  -0.000167994694 0.01385401  0.00008575  0.0021370 0.0000
  6    -83.8731943756  -0.000017862189 0.01308643  0.00007518  0.0008872 0.0000
  7    -83.8732020877  -0.000007712068 0.00404940  0.00002309  0.0004305 0.0000
  8    -83.8732036812  -0.000001593501 0.00274281  0.00001503  0.0001527 0.0000
  9    -83.8732038127  -0.000000131530 0.00034295  0.00000212  0.0000563 0.0000
 10    -83.8732038192  -0.000000006547 0.00016869  0.00000084  0.0000153 0.0000
 11    -83.8732038217  -0.000000002506 0.00006569  0.00000032  0.0000016 0.0000
 12    -83.8732038218  -0.000000000071 0.00001162  0.00000009  0.0000004 0.0000
                 **** Energy Check signals convergence ****

               *****************************************************
               *                     SUCCESS                       *
               *           SCF CONVERGED AFTER  13 CYCLES          *
               *****************************************************


----------------
TOTAL SCF ENERGY
----------------

Total Energy       :          -83.87320382 Eh           -2282.30591 eV

Components:
Nuclear Repulsion  :           17.16434761 Eh             467.06564 eV
Electronic Energy  :         -101.03755144 Eh           -2749.37155 eV
One Electron Energy:         -148.16352190 Eh           -4031.73440 eV
Two Electron Energy:           47.12597047 Eh            1282.36285 eV

Virial components:
Potential Energy   :         -167.47672823 Eh           -4557.27346 eV
Kinetic Energy     :           83.60352440 Eh            2274.96756 eV
Virial Ratio       :            2.00322569


DFT components:
N(Alpha)           :        6.999994905954 electrons
N(Beta)            :        5.999997330133 electrons
N(Total)           :       12.999992236087 electrons
E(X)               :      -10.679517848893 Eh       
E(C)               :       -0.379428370112 Eh       
E(XC)              :      -11.058946219005 Eh       
DFET-embed. en.    :        0.000000000000 Eh       

---------------
SCF CONVERGENCE
---------------

  Last Energy change         ...   -7.8160e-13  Tolerance :   1.0000e-09
  Last MAX-Density change    ...    1.7837e-05  Tolerance :   1.0000e-08
  Last RMS-Density change    ...    1.1134e-07  Tolerance :   1.0000e-09
  Last DIIS Error            ...    2.1368e-07  Tolerance :   1.0000e-08

             **** THE GBW FILE WAS UPDATED (h2o-li_pbe.gbw) ****
             **** DENSITY FILE WAS UPDATED (h2o-li_pbe.scfp.tmp) ****
             **** ENERGY FILE WAS UPDATED (h2o-li_pbe.en.tmp) ****
----------------------
UHF SPIN CONTAMINATION
----------------------

Warning: in a DFT calculation there is little theoretical justification to 
         calculate <S**2> as in Hartree-Fock theory. We will do it anyways
         but you should keep in mind that the values have only limited relevance

Expectation value of <S**2>     :     0.750120
Ideal value S*(S+1) for S=0.5   :     0.750000
Deviation                       :     0.000120

----------------
ORBITAL ENERGIES
----------------
                 SPIN UP ORBITALS
  NO   OCC          E(Eh)            E(eV) 
   0   1.0000     -18.810328      -511.8550 
   1   1.0000      -1.870048       -50.8866 
   2   1.0000      -0.986480       -26.8435 
   3   1.0000      -0.541034       -14.7223 
   4   1.0000      -0.421475       -11.4689 
   5   1.0000      -0.331178        -9.0118 
   6   1.0000      -0.098747        -2.6871 
   7   0.0000      -0.058140        -1.5821 
   8   0.0000      -0.041851        -1.1388 
   9   0.0000      -0.032604        -0.8872 
  10   0.0000      -0.006776        -0.1844 
  11   0.0000      -0.003370        -0.0917 
  12   0.0000       0.005916         0.1610 
  13   0.0000       0.006994         0.1903 
  14   0.0000       0.008981         0.2444 
  15   0.0000       0.010278         0.2797 
  16   0.0000       0.017971         0.4890 
  17   0.0000       0.021814         0.5936 
  18   0.0000       0.022439         0.6106 
  19   0.0000       0.028850         0.7850 
  20   0.0000       0.036152         0.9837 
  21   0.0000       0.041193         1.1209 
  22   0.0000       0.045500         1.2381 
  23   0.0000       0.047455         1.2913 
  24   0.0000       0.049803         1.3552 
  25   0.0000       0.065035         1.7697 
  26   0.0000       0.068304         1.8587 
  27   0.0000       0.069063         1.8793 
  28   0.0000       0.073525         2.0007 
  29   0.0000       0.075474         2.0537 
  30   0.0000       0.077177         2.1001 
  31   0.0000       0.081023         2.2048 
  32   0.0000       0.094440         2.5698 
  33   0.0000       0.097636         2.6568 
  34   0.0000       0.098210         2.6724 
  35   0.0000       0.107113         2.9147 
  36   0.0000       0.108112         2.9419 
  37   0.0000       0.110930         3.0185 
  38   0.0000       0.111472         3.0333 
  39   0.0000       0.117124         3.1871 
  40   0.0000       0.121029         3.2934 
  41   0.0000       0.124550         3.3892 
  42   0.0000       0.131656         3.5825 
  43   0.0000       0.133042         3.6203 
  44   0.0000       0.136648         3.7184 
  45   0.0000       0.138954         3.7811 
  46   0.0000       0.139934         3.8078 
  47   0.0000       0.143130         3.8948 
  48   0.0000       0.143729         3.9111 
  49   0.0000       0.146254         3.9798 
  50   0.0000       0.172103         4.6832 
  51   0.0000       0.178174         4.8484 
  52   0.0000       0.179204         4.8764 
  53   0.0000       0.185757         5.0547 
  54   0.0000       0.192011         5.2249 
  55   0.0000       0.192390         5.2352 
  56   0.0000       0.195758         5.3268 
  57   0.0000       0.196599         5.3497 
  58   0.0000       0.213455         5.8084 
  59   0.0000       0.213693         5.8149 
  60   0.0000       0.231422         6.2973 
  61   0.0000       0.232043         6.3142 
  62   0.0000       0.243166         6.6169 
  63   0.0000       0.247130         6.7247 
  64   0.0000       0.248047         6.7497 
  65   0.0000       0.259298         7.0558 
  66   0.0000       0.261150         7.1062 
  67   0.0000       0.262735         7.1494 
  68   0.0000       0.272308         7.4099 
  69   0.0000       0.277919         7.5626 
  70   0.0000       0.287580         7.8255 
  71   0.0000       0.291182         7.9235 
  72   0.0000       0.296158         8.0589 
  73   0.0000       0.296317         8.0632 
  74   0.0000       0.302495         8.2313 
  75   0.0000       0.315944         8.5973 
  76   0.0000       0.321810         8.7569 
  77   0.0000       0.332202         9.0397 
  78   0.0000       0.351221         9.5572 
  79   0.0000       0.354832         9.6555 
  80   0.0000       0.369044        10.0422 
  81   0.0000       0.372044        10.1238 
  82   0.0000       0.384803        10.4710 
  83   0.0000       0.399491        10.8707 
  84   0.0000       0.406391        11.0585 
  85   0.0000       0.406583        11.0637 
  86   0.0000       0.420268        11.4361 
  87   0.0000       0.424059        11.5392 
  88   0.0000       0.430586        11.7168 
  89   0.0000       0.442153        12.0316 
  90   0.0000       0.446188        12.1414 
  91   0.0000       0.459084        12.4923 
  92   0.0000       0.468493        12.7484 
  93   0.0000       0.468915        12.7598 
  94   0.0000       0.473443        12.8830 
  95   0.0000       0.479233        13.0406 
  96   0.0000       0.489332        13.3154 
  97   0.0000       0.494552        13.4574 
  98   0.0000       0.506148        13.7730 
  99   0.0000       0.515615        14.0306 
 100   0.0000       0.524886        14.2829 
 101   0.0000       0.527031        14.3412 
 102   0.0000       0.529881        14.4188 
 103   0.0000       0.536116        14.5884 
 104   0.0000       0.544782        14.8243 
 105   0.0000       0.550567        14.9817 
 106   0.0000       0.556179        15.1344 
 107   0.0000       0.577394        15.7117 
 108   0.0000       0.577771        15.7219 
 109   0.0000       0.599631        16.3168 
 110   0.0000       0.603465        16.4211 
 111   0.0000       0.615037        16.7360 
 112   0.0000       0.626031        17.0352 
 113   0.0000       0.645344        17.5607 
 114   0.0000       0.656573        17.8662 
 115   0.0000       0.666099        18.1255 
 116   0.0000       0.666147        18.1268 
 117   0.0000       0.669588        18.2204 
 118   0.0000       0.673676        18.3317 
 119   0.0000       0.682485        18.5714 
 120   0.0000       0.686920        18.6920 
 121   0.0000       0.696065        18.9409 
 122   0.0000       0.710346        19.3295 
 123   0.0000       0.716285        19.4911 
 124   0.0000       0.734352        19.9827 
 125   0.0000       0.738077        20.0841 
 126   0.0000       0.743116        20.2212 
 127   0.0000       0.746680        20.3182 
 128   0.0000       0.764413        20.8007 
 129   0.0000       0.771158        20.9843 
 130   0.0000       0.775223        21.0949 
 131   0.0000       0.789365        21.4797 
 132   0.0000       0.807659        21.9775 
 133   0.0000       0.814974        22.1766 
 134   0.0000       0.828983        22.5578 
 135   0.0000       0.851146        23.1609 
 136   0.0000       0.858141        23.3512 
 137   0.0000       0.861989        23.4559 
 138   0.0000       0.883598        24.0439 
 139   0.0000       0.888130        24.1672 
 140   0.0000       0.906457        24.6659 
 141   0.0000       0.915260        24.9055 
 142   0.0000       0.919983        25.0340 
 143   0.0000       0.937094        25.4996 
 144   0.0000       0.953866        25.9560 
 145   0.0000       0.958975        26.0950 
 146   0.0000       0.970246        26.4017 
 147   0.0000       0.972210        26.4552 
 148   0.0000       0.981246        26.7011 
 149   0.0000       0.991983        26.9932 
 150   0.0000       1.023041        27.8384 
 151   0.0000       1.023757        27.8578 
 152   0.0000       1.037669        28.2364 
 153   0.0000       1.047275        28.4978 
 154   0.0000       1.050092        28.5745 
 155   0.0000       1.052884        28.6504 
 156   0.0000       1.071931        29.1687 
 157   0.0000       1.091563        29.7029 
 158   0.0000       1.103837        30.0369 
 159   0.0000       1.115534        30.3552 
 160   0.0000       1.120110        30.4798 
 161   0.0000       1.146703        31.2034 
 162   0.0000       1.152042        31.3487 
 163   0.0000       1.154726        31.4217 
 164   0.0000       1.161552        31.6074 
 165   0.0000       1.205216        32.7956 
 166   0.0000       1.230387        33.4805 
 167   0.0000       1.241632        33.7865 
 168   0.0000       1.290582        35.1185 
 169   0.0000       1.324840        36.0507 
 170   0.0000       1.417930        38.5838 
 171   0.0000       1.422146        38.6986 
 172   0.0000       1.447154        39.3791 
 173   0.0000       1.457840        39.6698 
 174   0.0000       1.487234        40.4697 
 175   0.0000       1.520702        41.3804 
 176   0.0000       1.568340        42.6767 
 177   0.0000       1.588608        43.2282 
 178   0.0000       1.628617        44.3169 
 179   0.0000       1.637167        44.5496 
 180   0.0000       1.651945        44.9517 
 181   0.0000       1.665725        45.3267 
 182   0.0000       1.684734        45.8440 
 183   0.0000       1.709400        46.5151 
 184   0.0000       1.739400        47.3315 
 185   0.0000       1.758369        47.8477 
 186   0.0000       1.778719        48.4014 
 187   0.0000       1.783586        48.5339 
 188   0.0000       1.843225        50.1567 
 189   0.0000       1.864608        50.7386 
 190   0.0000       1.886765        51.3415 
 191   0.0000       1.889562        51.4176 
 192   0.0000       1.922411        52.3115 
 193   0.0000       2.014473        54.8166 
 194   0.0000       2.047956        55.7277 
 195   0.0000       2.091428        56.9107 
 196   0.0000       2.133296        58.0499 
 197   0.0000       2.146115        58.3987 
 198   0.0000       2.259382        61.4809 
 199   0.0000       2.293944        62.4214 
 200   0.0000       2.300480        62.5993 
 201   0.0000       2.399410        65.2913 
 202   0.0000       2.399884        65.3042 
 203   0.0000       2.428280        66.0768 
 204   0.0000       2.454087        66.7791 
 205   0.0000       2.514777        68.4306 
 206   0.0000       2.554909        69.5226 
 207   0.0000       2.580426        70.2170 
 208   0.0000       2.639843        71.8338 
 209   0.0000       2.651800        72.1591 
 210   0.0000       2.721604        74.0586 
 211   0.0000       2.743774        74.6619 
 212   0.0000       2.772989        75.4569 
 213   0.0000       2.783054        75.7307 
 214   0.0000       2.850187        77.5575 
 215   0.0000       2.870486        78.1099 
 216   0.0000       2.920987        79.4841 
 217   0.0000       2.939359        79.9840 
 218   0.0000       2.993478        81.4567 
 219   0.0000       3.037982        82.6677 
 220   0.0000       3.046016        82.8863 
 221   0.0000       3.110439        84.6394 
 222   0.0000       3.177422        86.4621 
 223   0.0000       3.240339        88.1741 
 224   0.0000       3.322279        90.4038 
 225   0.0000       3.336121        90.7805 
 226   0.0000       3.399533        92.5060 
 227   0.0000       3.426169        93.2308 
 228   0.0000       3.428176        93.2854 
 229   0.0000       3.455704        94.0345 
 230   0.0000       3.470632        94.4407 
 231   0.0000       3.550964        96.6266 
 232   0.0000       3.584056        97.5271 
 233   0.0000       3.590005        97.6890 
 234   0.0000       3.638805        99.0169 
 235   0.0000       3.730199       101.5039 
 236   0.0000       3.737172       101.6936 
 237   0.0000       3.769193       102.5650 
 238   0.0000       3.809320       103.6569 
 239   0.0000       3.844126       104.6040 
 240   0.0000       3.926932       106.8573 
 241   0.0000       3.988492       108.5324 
 242   0.0000       4.019969       109.3889 
 243   0.0000       4.161581       113.2424 
 244   0.0000       4.184201       113.8579 
 245   0.0000       4.225244       114.9747 
 246   0.0000       4.333319       117.9156 
 247   0.0000       4.356644       118.5503 
 248   0.0000       4.379960       119.1848 
 249   0.0000       4.504417       122.5714 
 250   0.0000       4.552340       123.8755 
 251   0.0000       4.573972       124.4641 
 252   0.0000       4.675545       127.2280 
 253   0.0000       4.703368       127.9851 
 254   0.0000       4.799698       130.6064 
 255   0.0000       4.824076       131.2698 
 256   0.0000       4.988657       135.7483 
 257   0.0000       5.006831       136.2428 
 258   0.0000       5.235497       142.4651 
 259   0.0000       5.366661       146.0343 
 260   0.0000       5.400347       146.9509 
 261   0.0000       5.404397       147.0611 
 262   0.0000       5.425652       147.6395 
 263   0.0000       5.467024       148.7653 
 264   0.0000       5.537195       150.6747 
 265   0.0000       5.600764       152.4045 
 266   0.0000       5.618104       152.8764 
 267   0.0000       5.711675       155.4226 
 268   0.0000       5.783095       157.3660 
 269   0.0000       5.899890       160.5442 
 270   0.0000       6.041467       164.3967 
 271   0.0000       6.043523       164.4526 
 272   0.0000       6.154603       167.4753 
 273   0.0000       6.210025       168.9834 
 274   0.0000       6.358712       173.0293 
 275   0.0000       6.416947       174.6140 
 276   0.0000       6.769407       184.2049 
 277   0.0000       6.860690       186.6889 
 278   0.0000       6.937491       188.7787 
 279   0.0000       7.123612       193.8433 
 280   0.0000       7.257223       197.4791 
 281   0.0000       7.360328       200.2847 
 282   0.0000       7.361835       200.3257 
 283   0.0000       7.409047       201.6104 
 284   0.0000       7.522774       204.7051 
 285   0.0000       7.550355       205.4556 
 286   0.0000       7.682721       209.0575 
 287   0.0000       7.884295       214.5426 
 288   0.0000       8.504466       231.4183 
 289   0.0000       8.507970       231.5136 
 290   0.0000       8.717326       237.2105 
 291   0.0000       8.810451       239.7446 
 292   0.0000       8.936459       243.1734 
 293   0.0000       9.038920       245.9615 
 294   0.0000       9.045946       246.1527 
 295   0.0000       9.147535       248.9171 
 296   0.0000       9.290451       252.8060 
 297   0.0000       9.374797       255.1012 
 298   0.0000       9.479559       257.9519 
 299   0.0000       9.701896       264.0020 
 300   0.0000       9.726027       264.6586 
 301   0.0000      10.197288       277.4823 
 302   0.0000      10.217745       278.0390 
 303   0.0000      10.388560       282.6871 
 304   0.0000      10.595473       288.3175 
 305   0.0000      10.617451       288.9155 
 306   0.0000      10.659837       290.0689 
 307   0.0000      10.876005       295.9512 
 308   0.0000      11.198332       304.7221 
 309   0.0000      11.354309       308.9665 
 310   0.0000      11.445447       311.4464 
 311   0.0000      11.485875       312.5465 
 312   0.0000      11.725369       319.0635 
 313   0.0000      11.791869       320.8731 
 314   0.0000      11.917791       324.2996 
 315   0.0000      11.956130       325.3428 
 316   0.0000      12.042794       327.7011 
 317   0.0000      12.044962       327.7601 
 318   0.0000      12.077116       328.6350 
 319   0.0000      12.173482       331.2573 
 320   0.0000      12.338090       335.7365 
 321   0.0000      12.382070       336.9333 
 322   0.0000      12.546271       341.4014 
 323   0.0000      12.562424       341.8409 
 324   0.0000      12.596236       342.7610 
 325   0.0000      12.601487       342.9039 
 326   0.0000      12.715492       346.0061 
 327   0.0000      12.808748       348.5438 
 328   0.0000      12.908435       351.2564 
 329   0.0000      13.045619       354.9893 
 330   0.0000      13.355380       363.4184 
 331   0.0000      13.572416       369.3242 
 332   0.0000      13.723128       373.4253 
 333   0.0000      13.821593       376.1047 
 334   0.0000      13.879265       377.6740 
 335   0.0000      14.128195       384.4477 
 336   0.0000      14.153459       385.1352 
 337   0.0000      14.169749       385.5785 
 338   0.0000      14.573847       396.5745 
 339   0.0000      14.761617       401.6840 
 340   0.0000      15.329853       417.1465 
 341   0.0000      15.663460       426.2244 
 342   0.0000      16.353272       444.9952 
 343   0.0000      16.619694       452.2449 
 344   0.0000      16.681426       453.9247 
 345   0.0000      16.738679       455.4826 
 346   0.0000      16.741869       455.5694 
 347   0.0000      16.790038       456.8801 
 348   0.0000      16.835489       458.1169 
 349   0.0000      17.081953       464.8236 
 350   0.0000      17.224180       468.6938 
 351   0.0000      17.293681       470.5850 
 352   0.0000      17.323912       471.4076 
 353   0.0000      17.400333       473.4871 
 354   0.0000      17.549565       477.5479 
 355   0.0000      17.609460       479.1778 
 356   0.0000      17.708644       481.8767 
 357   0.0000      17.722176       482.2449 
 358   0.0000      17.827637       485.1147 
 359   0.0000      17.895137       486.9514 
 360   0.0000      17.923098       487.7123 
 361   0.0000      18.293257       497.7848 
 362   0.0000      18.419089       501.2089 
 363   0.0000      18.842973       512.7434 
 364   0.0000      19.188471       522.1448 
 365   0.0000      19.467449       529.7362 
 366   0.0000      19.541022       531.7382 
 367   0.0000      20.190795       549.4195 
 368   0.0000      20.432684       556.0016 
 369   0.0000      20.619691       561.0903 
 370   0.0000      20.811006       566.2963 
 371   0.0000      20.851412       567.3958 
 372   0.0000      21.146469       575.4247 
 373   0.0000      21.565100       586.8162 
 374   0.0000      21.874864       595.2453 
 375   0.0000      23.620503       642.7466 
 376   0.0000      23.625156       642.8732 
 377   0.0000      23.698213       644.8612 
 378   0.0000      23.860467       649.2763 
 379   0.0000      23.926896       651.0839 
 380   0.0000      23.948732       651.6781 
 381   0.0000      24.232758       659.4069 
 382   0.0000      26.235001       713.8907 
 383   0.0000      26.974667       734.0180 
 384   0.0000      27.015788       735.1370 
 385   0.0000      28.064866       763.6838 
 386   0.0000      31.144644       847.4889 
 387   0.0000      32.330474       879.7569 
 388   0.0000      34.029782       925.9974 
 389   0.0000      34.665948       943.3084 
 390   0.0000      41.307337      1124.0298 
 391   0.0000      41.367692      1125.6721 
 392   0.0000      66.900368      1820.4516 
 393   0.0000      67.002686      1823.2358 
 394   0.0000      67.108798      1826.1232 
 395   0.0000      68.107702      1853.3048 
 396   0.0000      69.288520      1885.4365 
 397   0.0000      90.999248      2476.2154 
 398   0.0000      91.011614      2476.5519 
 399   0.0000      91.119328      2479.4830 
 400   0.0000      91.293175      2484.2136 
 401   0.0000      93.472506      2543.5162 
 402   0.0000      93.576468      2546.3452 
 403   0.0000     144.221023      3924.4535 

                 SPIN DOWN ORBITALS
  NO   OCC          E(Eh)            E(eV) 
   0   1.0000     -18.809649      -511.8366 
   1   1.0000      -1.864826       -50.7445 
   2   1.0000      -0.984749       -26.7964 
   3   1.0000      -0.538409       -14.6508 
   4   1.0000      -0.419712       -11.4209 
   5   1.0000      -0.329378        -8.9628 
   6   0.0000      -0.062102        -1.6899 
   7   0.0000      -0.006206        -0.1689 
   8   0.0000      -0.002766        -0.0753 
   9   0.0000       0.005132         0.1397 
  10   0.0000       0.010321         0.2809 
  11   0.0000       0.019988         0.5439 
  12   0.0000       0.023156         0.6301 
  13   0.0000       0.027619         0.7515 
  14   0.0000       0.028184         0.7669 
  15   0.0000       0.043060         1.1717 
  16   0.0000       0.044083         1.1996 
  17   0.0000       0.050175         1.3653 
  18   0.0000       0.050408         1.3717 
  19   0.0000       0.054365         1.4793 
  20   0.0000       0.055231         1.5029 
  21   0.0000       0.064246         1.7482 
  22   0.0000       0.074993         2.0407 
  23   0.0000       0.076021         2.0686 
  24   0.0000       0.078201         2.1280 
  25   0.0000       0.098239         2.6732 
  26   0.0000       0.101440         2.7603 
  27   0.0000       0.102069         2.7774 
  28   0.0000       0.106908         2.9091 
  29   0.0000       0.110350         3.0028 
  30   0.0000       0.112904         3.0723 
  31   0.0000       0.114871         3.1258 
  32   0.0000       0.117353         3.1933 
  33   0.0000       0.128080         3.4852 
  34   0.0000       0.134675         3.6647 
  35   0.0000       0.134933         3.6717 
  36   0.0000       0.135241         3.6801 
  37   0.0000       0.146552         3.9879 
  38   0.0000       0.146981         3.9995 
  39   0.0000       0.159859         4.3500 
  40   0.0000       0.165180         4.4948 
  41   0.0000       0.166325         4.5259 
  42   0.0000       0.172764         4.7011 
  43   0.0000       0.172810         4.7024 
  44   0.0000       0.176695         4.8081 
  45   0.0000       0.177395         4.8272 
  46   0.0000       0.180083         4.9003 
  47   0.0000       0.182664         4.9705 
  48   0.0000       0.183196         4.9850 
  49   0.0000       0.185258         5.0411 
  50   0.0000       0.209801         5.7090 
  51   0.0000       0.218585         5.9480 
  52   0.0000       0.220513         6.0005 
  53   0.0000       0.226382         6.1602 
  54   0.0000       0.227374         6.1872 
  55   0.0000       0.229870         6.2551 
  56   0.0000       0.230810         6.2806 
  57   0.0000       0.235374         6.4049 
  58   0.0000       0.247557         6.7364 
  59   0.0000       0.248148         6.7524 
  60   0.0000       0.264442         7.1958 
  61   0.0000       0.267737         7.2855 
  62   0.0000       0.271567         7.3897 
  63   0.0000       0.278575         7.5804 
  64   0.0000       0.288152         7.8410 
  65   0.0000       0.288513         7.8508 
  66   0.0000       0.293325         7.9818 
  67   0.0000       0.295324         8.0362 
  68   0.0000       0.313832         8.5398 
  69   0.0000       0.315954         8.5975 
  70   0.0000       0.327648         8.9157 
  71   0.0000       0.331285         9.0147 
  72   0.0000       0.332539         9.0489 
  73   0.0000       0.334956         9.1146 
  74   0.0000       0.343932         9.3589 
  75   0.0000       0.349140         9.5006 
  76   0.0000       0.371835        10.1182 
  77   0.0000       0.376973        10.2580 
  78   0.0000       0.393499        10.7076 
  79   0.0000       0.400525        10.8989 
  80   0.0000       0.410656        11.1745 
  81   0.0000       0.420188        11.4339 
  82   0.0000       0.421129        11.4595 
  83   0.0000       0.430166        11.7054 
  84   0.0000       0.436552        11.8792 
  85   0.0000       0.442016        12.0279 
  86   0.0000       0.450847        12.2682 
  87   0.0000       0.454727        12.3738 
  88   0.0000       0.467904        12.7323 
  89   0.0000       0.485064        13.1993 
  90   0.0000       0.487000        13.2519 
  91   0.0000       0.496686        13.5155 
  92   0.0000       0.501321        13.6416 
  93   0.0000       0.505010        13.7420 
  94   0.0000       0.509244        13.8572 
  95   0.0000       0.509787        13.8720 
  96   0.0000       0.518255        14.1024 
  97   0.0000       0.530060        14.4237 
  98   0.0000       0.534049        14.5322 
  99   0.0000       0.542774        14.7696 
 100   0.0000       0.554989        15.1020 
 101   0.0000       0.560553        15.2534 
 102   0.0000       0.561920        15.2906 
 103   0.0000       0.571174        15.5424 
 104   0.0000       0.582418        15.8484 
 105   0.0000       0.589518        16.0416 
 106   0.0000       0.597773        16.2662 
 107   0.0000       0.608497        16.5580 
 108   0.0000       0.614840        16.7307 
 109   0.0000       0.636028        17.3072 
 110   0.0000       0.637225        17.3398 
 111   0.0000       0.638258        17.3679 
 112   0.0000       0.664316        18.0770 
 113   0.0000       0.681550        18.5459 
 114   0.0000       0.687906        18.7189 
 115   0.0000       0.695826        18.9344 
 116   0.0000       0.697007        18.9665 
 117   0.0000       0.704298        19.1649 
 118   0.0000       0.709520        19.3070 
 119   0.0000       0.713352        19.4113 
 120   0.0000       0.713717        19.4212 
 121   0.0000       0.728338        19.8191 
 122   0.0000       0.742961        20.2170 
 123   0.0000       0.746917        20.3246 
 124   0.0000       0.766371        20.8540 
 125   0.0000       0.767662        20.8892 
 126   0.0000       0.771042        20.9811 
 127   0.0000       0.789024        21.4704 
 128   0.0000       0.793118        21.5818 
 129   0.0000       0.797925        21.7127 
 130   0.0000       0.817077        22.2338 
 131   0.0000       0.822252        22.3746 
 132   0.0000       0.836165        22.7532 
 133   0.0000       0.836831        22.7713 
 134   0.0000       0.853653        23.2291 
 135   0.0000       0.878646        23.9092 
 136   0.0000       0.884138        24.0586 
 137   0.0000       0.893655        24.3176 
 138   0.0000       0.909024        24.7358 
 139   0.0000       0.923387        25.1266 
 140   0.0000       0.930941        25.3322 
 141   0.0000       0.937693        25.5159 
 142   0.0000       0.945623        25.7317 
 143   0.0000       0.966533        26.3007 
 144   0.0000       0.986746        26.8507 
 145   0.0000       0.987035        26.8586 
 146   0.0000       0.996776        27.1236 
 147   0.0000       0.997658        27.1477 
 148   0.0000       1.008574        27.4447 
 149   0.0000       1.022174        27.8148 
 150   0.0000       1.040585        28.3157 
 151   0.0000       1.042901        28.3788 
 152   0.0000       1.056258        28.7422 
 153   0.0000       1.070858        29.1395 
 154   0.0000       1.072105        29.1735 
 155   0.0000       1.086019        29.5521 
 156   0.0000       1.095695        29.8154 
 157   0.0000       1.125081        30.6150 
 158   0.0000       1.125374        30.6230 
 159   0.0000       1.147233        31.2178 
 160   0.0000       1.161025        31.5931 
 161   0.0000       1.182965        32.1901 
 162   0.0000       1.184304        32.2265 
 163   0.0000       1.199000        32.6265 
 164   0.0000       1.211935        32.9784 
 165   0.0000       1.226582        33.3770 
 166   0.0000       1.267496        34.4903 
 167   0.0000       1.284216        34.9453 
 168   0.0000       1.312650        35.7190 
 169   0.0000       1.345044        36.6005 
 170   0.0000       1.437674        39.1211 
 171   0.0000       1.441977        39.2382 
 172   0.0000       1.465302        39.8729 
 173   0.0000       1.478460        40.2309 
 174   0.0000       1.503251        40.9055 
 175   0.0000       1.538063        41.8528 
 176   0.0000       1.588331        43.2207 
 177   0.0000       1.605870        43.6979 
 178   0.0000       1.652007        44.9534 
 179   0.0000       1.654025        45.0083 
 180   0.0000       1.665642        45.3244 
 181   0.0000       1.682551        45.7845 
 182   0.0000       1.707849        46.4729 
 183   0.0000       1.724287        46.9202 
 184   0.0000       1.753983        47.7283 
 185   0.0000       1.777369        48.3647 
 186   0.0000       1.793676        48.8084 
 187   0.0000       1.804859        49.1127 
 188   0.0000       1.859017        50.5864 
 189   0.0000       1.880089        51.1598 
 190   0.0000       1.899847        51.6975 
 191   0.0000       1.901022        51.7294 
 192   0.0000       1.953434        53.1556 
 193   0.0000       2.034309        55.3564 
 194   0.0000       2.062276        56.1174 
 195   0.0000       2.102000        57.1983 
 196   0.0000       2.141192        58.2648 
 197   0.0000       2.157328        58.7039 
 198   0.0000       2.270651        61.7875 
 199   0.0000       2.302524        62.6549 
 200   0.0000       2.324798        63.2610 
 201   0.0000       2.407891        65.5220 
 202   0.0000       2.408280        65.5326 
 203   0.0000       2.441909        66.4477 
 204   0.0000       2.467278        67.1380 
 205   0.0000       2.526101        68.7387 
 206   0.0000       2.568686        69.8975 
 207   0.0000       2.595441        70.6255 
 208   0.0000       2.653491        72.2052 
 209   0.0000       2.661789        72.4310 
 210   0.0000       2.735041        74.4242 
 211   0.0000       2.756403        75.0055 
 212   0.0000       2.782473        75.7149 
 213   0.0000       2.793102        76.0042 
 214   0.0000       2.863508        77.9200 
 215   0.0000       2.885324        78.5137 
 216   0.0000       2.935446        79.8775 
 217   0.0000       2.952466        80.3407 
 218   0.0000       3.006117        81.8006 
 219   0.0000       3.048873        82.9641 
 220   0.0000       3.057116        83.1884 
 221   0.0000       3.125038        85.0366 
 222   0.0000       3.191562        86.8468 
 223   0.0000       3.251568        88.4797 
 224   0.0000       3.333031        90.6964 
 225   0.0000       3.345301        91.0303 
 226   0.0000       3.407824        92.7316 
 227   0.0000       3.434646        93.4615 
 228   0.0000       3.437364        93.5354 
 229   0.0000       3.464756        94.2808 
 230   0.0000       3.481547        94.7377 
 231   0.0000       3.557672        96.8092 
 232   0.0000       3.594698        97.8167 
 233   0.0000       3.600935        97.9864 
 234   0.0000       3.648673        99.2854 
 235   0.0000       3.737644       101.7065 
 236   0.0000       3.745459       101.9191 
 237   0.0000       3.778693       102.8235 
 238   0.0000       3.817204       103.8714 
 239   0.0000       3.854192       104.8779 
 240   0.0000       3.934983       107.0763 
 241   0.0000       3.996495       108.7502 
 242   0.0000       4.030778       109.6831 
 243   0.0000       4.169642       113.4617 
 244   0.0000       4.193179       114.1022 
 245   0.0000       4.231919       115.1564 
 246   0.0000       4.342269       118.1591 
 247   0.0000       4.362340       118.7053 
 248   0.0000       4.387251       119.3832 
 249   0.0000       4.511840       122.7734 
 250   0.0000       4.559230       124.0630 
 251   0.0000       4.582700       124.7016 
 252   0.0000       4.681612       127.3931 
 253   0.0000       4.712198       128.2254 
 254   0.0000       4.806892       130.8022 
 255   0.0000       4.831023       131.4588 
 256   0.0000       4.995258       135.9279 
 257   0.0000       5.014432       136.4496 
 258   0.0000       5.243375       142.6795 
 259   0.0000       5.373432       146.2185 
 260   0.0000       5.408167       147.1637 
 261   0.0000       5.412287       147.2758 
 262   0.0000       5.433201       147.8449 
 263   0.0000       5.474895       148.9795 
 264   0.0000       5.545303       150.8954 
 265   0.0000       5.606803       152.5689 
 266   0.0000       5.622919       153.0074 
 267   0.0000       5.720046       155.6504 
 268   0.0000       5.792625       157.6253 
 269   0.0000       5.905926       160.7084 
 270   0.0000       6.048733       164.5944 
 271   0.0000       6.050687       164.6476 
 272   0.0000       6.162913       167.7014 
 273   0.0000       6.214830       169.1141 
 274   0.0000       6.363036       173.1470 
 275   0.0000       6.422543       174.7663 
 276   0.0000       6.773823       184.3251 
 277   0.0000       6.866774       186.8544 
 278   0.0000       6.944545       188.9707 
 279   0.0000       7.125970       193.9075 
 280   0.0000       7.260633       197.5719 
 281   0.0000       7.363117       200.3606 
 282   0.0000       7.364646       200.4022 
 283   0.0000       7.411488       201.6769 
 284   0.0000       7.525977       204.7922 
 285   0.0000       7.553469       205.5403 
 286   0.0000       7.686565       209.1621 
 287   0.0000       7.888789       214.6649 
 288   0.0000       8.509030       231.5425 
 289   0.0000       8.512719       231.6429 
 290   0.0000       8.723201       237.3704 
 291   0.0000       8.814594       239.8573 
 292   0.0000       8.941365       243.3069 
 293   0.0000       9.043460       246.0851 
 294   0.0000       9.050231       246.2693 
 295   0.0000       9.152521       249.0528 
 296   0.0000       9.295869       252.9535 
 297   0.0000       9.379237       255.2220 
 298   0.0000       9.483860       258.0690 
 299   0.0000       9.706588       264.1297 
 300   0.0000       9.729402       264.7505 
 301   0.0000      10.201994       277.6104 
 302   0.0000      10.222413       278.1660 
 303   0.0000      10.392970       282.8071 
 304   0.0000      10.600466       288.4533 
 305   0.0000      10.622629       289.0564 
 306   0.0000      10.663944       290.1807 
 307   0.0000      10.886922       296.2482 
 308   0.0000      11.200306       304.7758 
 309   0.0000      11.359098       309.0968 
 310   0.0000      11.448368       311.5259 
 311   0.0000      11.490020       312.6593 
 312   0.0000      11.728747       319.1554 
 313   0.0000      11.793497       320.9174 
 314   0.0000      11.919834       324.3552 
 315   0.0000      11.958879       325.4176 
 316   0.0000      12.045956       327.7871 
 317   0.0000      12.048592       327.8589 
 318   0.0000      12.080142       328.7174 
 319   0.0000      12.177414       331.3643 
 320   0.0000      12.341485       335.8289 
 321   0.0000      12.385688       337.0317 
 322   0.0000      12.550168       341.5074 
 323   0.0000      12.565025       341.9117 
 324   0.0000      12.599728       342.8560 
 325   0.0000      12.605405       343.0105 
 326   0.0000      12.719249       346.1084 
 327   0.0000      12.812125       348.6356 
 328   0.0000      12.912432       351.3651 
 329   0.0000      13.048172       355.0588 
 330   0.0000      13.361170       363.5759 
 331   0.0000      13.577144       369.4529 
 332   0.0000      13.727257       373.5377 
 333   0.0000      13.825970       376.2238 
 334   0.0000      13.883456       377.7881 
 335   0.0000      14.132978       384.5779 
 336   0.0000      14.157508       385.2454 
 337   0.0000      14.174043       385.6953 
 338   0.0000      14.578911       396.7123 
 339   0.0000      14.765429       401.7878 
 340   0.0000      15.334423       417.2709 
 341   0.0000      15.666883       426.3176 
 342   0.0000      16.356982       445.0961 
 343   0.0000      16.623490       452.3482 
 344   0.0000      16.685707       454.0412 
 345   0.0000      16.742858       455.5963 
 346   0.0000      16.745995       455.6817 
 347   0.0000      16.794492       457.0014 
 348   0.0000      16.838562       458.2006 
 349   0.0000      17.084530       464.8937 
 350   0.0000      17.227179       468.7754 
 351   0.0000      17.298313       470.7110 
 352   0.0000      17.328340       471.5281 
 353   0.0000      17.404316       473.5955 
 354   0.0000      17.551843       477.6099 
 355   0.0000      17.612286       479.2547 
 356   0.0000      17.711384       481.9513 
 357   0.0000      17.725015       482.3222 
 358   0.0000      17.831859       485.2296 
 359   0.0000      17.897462       487.0147 
 360   0.0000      17.924743       487.7570 
 361   0.0000      18.297248       497.8934 
 362   0.0000      18.422001       501.2881 
 363   0.0000      18.846411       512.8369 
 364   0.0000      19.191503       522.2273 
 365   0.0000      19.471861       529.8563 
 366   0.0000      19.545382       531.8569 
 367   0.0000      20.195121       549.5372 
 368   0.0000      20.436597       556.1081 
 369   0.0000      20.623373       561.1905 
 370   0.0000      20.814183       566.3827 
 371   0.0000      20.854784       567.4875 
 372   0.0000      21.149786       575.5149 
 373   0.0000      21.568454       586.9075 
 374   0.0000      21.878660       595.3486 
 375   0.0000      23.622003       642.7874 
 376   0.0000      23.628007       642.9508 
 377   0.0000      23.701317       644.9456 
 378   0.0000      23.863099       649.3479 
 379   0.0000      23.929091       651.1437 
 380   0.0000      23.950018       651.7131 
 381   0.0000      24.235830       659.4904 
 382   0.0000      26.236247       713.9246 
 383   0.0000      26.977212       734.0873 
 384   0.0000      27.019076       735.2264 
 385   0.0000      28.066412       763.7259 
 386   0.0000      31.145555       847.5136 
 387   0.0000      32.331918       879.7962 
 388   0.0000      34.031396       926.0414 
 389   0.0000      34.667047       943.3383 
 390   0.0000      41.311195      1124.1348 
 391   0.0000      41.371542      1125.7769 
 392   0.0000      66.901056      1820.4703 
 393   0.0000      67.003038      1823.2454 
 394   0.0000      67.109324      1826.1376 
 395   0.0000      68.108020      1853.3134 
 396   0.0000      69.288898      1885.4468 
 397   0.0000      91.002114      2476.2934 
 398   0.0000      91.014483      2476.6300 
 399   0.0000      91.122238      2479.5622 
 400   0.0000      91.296080      2484.2926 
 401   0.0000      93.475433      2543.5958 
 402   0.0000      93.579408      2546.4251 
 403   0.0000     144.222414      3924.4914 

                    ********************************
                    * MULLIKEN POPULATION ANALYSIS *
                    ********************************

--------------------------------------------
MULLIKEN ATOMIC CHARGES AND SPIN POPULATIONS
--------------------------------------------
   0 Li:   -0.174841    0.905186
   1 O :   -0.013880   -0.174959
   2 H :    0.093363    0.135717
   3 H :    0.095358    0.134056
Sum of atomic charges         :    0.0000000
Sum of atomic spin populations:    1.0000000

-----------------------------------------------------
MULLIKEN REDUCED ORBITAL CHARGES AND SPIN POPULATIONS
-----------------------------------------------------
CHARGE
  0 Lis       :     2.992071  s :     2.992071
      pz      :     0.131598  p :     0.151131
      px      :     0.005924
      py      :     0.013610
      dz2     :     0.015993  d :     0.026358
      dxz     :     0.003692
      dyz     :     0.006299
      dx2y2   :     0.000185
      dxy     :     0.000189
      f0      :     0.002530  f :     0.004757
      f+1     :     0.000919
      f-1     :     0.001263
      f+2     :     0.000020
      f-2     :     0.000021
      f+3     :     0.000002
      f-3     :     0.000001
      g0      :     0.000349  g :     0.000524
      g+1     :     0.000072
      g-1     :     0.000103
      g+2     :    -0.000000
      g-2     :    -0.000000
      g+3     :     0.000001
      g-3     :     0.000000
      g+4     :    -0.000000
      g-4     :    -0.000000
  1 O s       :     3.486506  s :     3.486506
      pz      :     1.489467  p :     4.509563
      px      :     1.327315
      py      :     1.692781
      dz2     :     0.007564  d :     0.014488
      dxz     :     0.003169
      dyz     :     0.001601
      dx2y2   :     0.001086
      dxy     :     0.001066
      f0      :     0.001842  f :     0.003116
      f+1     :     0.000088
      f-1     :     0.000166
      f+2     :     0.000229
      f-2     :     0.000230
      f+3     :     0.000394
      f-3     :     0.000169
      g0      :     0.000051  g :     0.000144
      g+1     :     0.000002
      g-1     :    -0.000010
      g+2     :     0.000004
      g-2     :     0.000004
      g+3     :     0.000046
      g-3     :     0.000014
      g+4     :     0.000027
      g-4     :     0.000006
      h0      :     0.000053  h :     0.000063
      h+1     :     0.000003
      h-1     :    -0.000005
      h+2     :     0.000000
      h-2     :    -0.000000
      h+3     :     0.000003
      h-3     :     0.000001
      h+4     :     0.000005
      h-4     :     0.000000
      h+5     :     0.000002
      h-5     :     0.000001
  2 H s       :     0.833974  s :     0.833974
      pz      :     0.015086  p :     0.069778
      px      :     0.020024
      py      :     0.034668
      dz2     :     0.000533  d :     0.004142
      dxz     :     0.001851
      dyz     :     0.000483
      dx2y2   :     0.000148
      dxy     :     0.001126
      f0      :    -0.000436  f :    -0.001017
      f+1     :     0.000165
      f-1     :     0.000065
      f+2     :    -0.000050
      f-2     :    -0.000070
      f+3     :    -0.000472
      f-3     :    -0.000218
      g0      :    -0.000003  g :    -0.000240
      g+1     :    -0.000118
      g-1     :    -0.000001
      g+2     :     0.000033
      g-2     :     0.000019
      g+3     :    -0.000052
      g-3     :    -0.000032
      g+4     :    -0.000068
      g-4     :    -0.000017
  3 H s       :     0.832082  s :     0.832082
      pz      :     0.015028  p :     0.069667
      px      :     0.013830
      py      :     0.040808
      dz2     :     0.000553  d :     0.004144
      dxz     :     0.000214
      dyz     :     0.002114
      dx2y2   :     0.001139
      dxy     :     0.000124
      f0      :    -0.000427  f :    -0.001011
      f+1     :     0.000216
      f-1     :     0.000015
      f+2     :    -0.000062
      f-2     :    -0.000057
      f+3     :    -0.000596
      f-3     :    -0.000099
      g0      :    -0.000002  g :    -0.000240
      g+1     :    -0.000059
      g-1     :    -0.000060
      g+2     :     0.000018
      g-2     :     0.000033
      g+3     :    -0.000015
      g-3     :    -0.000069
      g+4     :    -0.000066
      g-4     :    -0.000019

SPIN
  0 Lis       :     0.883019  s :     0.883019
      pz      :     0.027456  p :     0.024461
      px      :    -0.001023
      py      :    -0.001971
      dz2     :    -0.000134  d :    -0.002300
      dxz     :    -0.000747
      dyz     :    -0.001777
      dx2y2   :     0.000177
      dxy     :     0.000182
      f0      :     0.000053  f :    -0.000085
      f+1     :    -0.000036
      f-1     :    -0.000134
      f+2     :     0.000013
      f-2     :     0.000014
      f+3     :     0.000003
      f-3     :     0.000001
      g0      :     0.000015  g :     0.000091
      g+1     :     0.000028
      g-1     :     0.000054
      g+2     :    -0.000004
      g-2     :    -0.000004
      g+3     :     0.000001
      g-3     :     0.000000
      g+4     :     0.000000
      g-4     :     0.000000
  1 O s       :    -0.250182  s :    -0.250182
      pz      :     0.035399  p :     0.074234
      px      :     0.017378
      py      :     0.021457
      dz2     :     0.000420  d :     0.000463
      dxz     :     0.000225
      dyz     :    -0.000333
      dx2y2   :     0.000079
      dxy     :     0.000071
      f0      :     0.000399  f :     0.000813
      f+1     :     0.000035
      f-1     :     0.000111
      f+2     :     0.000053
      f-2     :     0.000052
      f+3     :     0.000125
      f-3     :     0.000038
      g0      :    -0.000266  g :    -0.000196
      g+1     :     0.000019
      g-1     :     0.000029
      g+2     :    -0.000000
      g-2     :    -0.000000
      g+3     :     0.000013
      g-3     :     0.000005
      g+4     :     0.000003
      g-4     :     0.000002
      h0      :    -0.000094  h :    -0.000091
      h+1     :     0.000000
      h-1     :     0.000001
      h+2     :    -0.000000
      h-2     :    -0.000000
      h+3     :     0.000001
      h-3     :     0.000000
      h+4     :    -0.000000
      h-4     :     0.000000
      h+5     :     0.000001
      h-5     :     0.000000
  2 H s       :     0.160385  s :     0.160385
      pz      :    -0.012839  p :    -0.019370
      px      :    -0.004617
      py      :    -0.001914
      dz2     :    -0.000514  d :    -0.004569
      dxz     :    -0.001861
      dyz     :    -0.000368
      dx2y2   :    -0.000625
      dxy     :    -0.001201
      f0      :     0.000022  f :    -0.000733
      f+1     :    -0.000044
      f-1     :     0.000019
      f+2     :    -0.000160
      f-2     :    -0.000177
      f+3     :    -0.000091
      f-3     :    -0.000301
      g0      :    -0.000010  g :     0.000003
      g+1     :     0.000077
      g-1     :    -0.000002
      g+2     :     0.000006
      g-2     :     0.000003
      g+3     :    -0.000008
      g-3     :    -0.000024
      g+4     :    -0.000007
      g-4     :    -0.000032
  3 H s       :     0.158786  s :     0.158786
      pz      :    -0.012949  p :    -0.019444
      px      :    -0.006362
      py      :    -0.000133
      dz2     :    -0.000485  d :    -0.004561
      dxz     :    -0.001074
      dyz     :    -0.001171
      dx2y2   :    -0.001205
      dxy     :    -0.000627
      f0      :     0.000030  f :    -0.000728
      f+1     :     0.000020
      f-1     :    -0.000045
      f+2     :    -0.000178
      f-2     :    -0.000159
      f+3     :    -0.000225
      f-3     :    -0.000171
      g0      :    -0.000010  g :     0.000003
      g+1     :     0.000041
      g-1     :     0.000034
      g+2     :     0.000002
      g-2     :     0.000006
      g+3     :    -0.000015
      g-3     :    -0.000016
      g+4     :    -0.000007
      g-4     :    -0.000032


                     *******************************
                     * LOEWDIN POPULATION ANALYSIS *
                     *******************************

-------------------------------------------
LOEWDIN ATOMIC CHARGES AND SPIN POPULATIONS
-------------------------------------------
   0 Li:    0.113015    0.563684
   1 O :    1.366098    0.121542
   2 H :   -0.739557    0.157388
   3 H :   -0.739556    0.157386

----------------------------------------------------
LOEWDIN REDUCED ORBITAL CHARGES AND SPIN POPULATIONS
----------------------------------------------------
CHARGE
  0 Lis       :     2.391723  s :     2.391723
      pz      :     0.188656  p :     0.216964
      px      :     0.010272
      py      :     0.018036
      dz2     :     0.089341  d :     0.146658
      dxz     :     0.024927
      dyz     :     0.031936
      dx2y2   :     0.000225
      dxy     :     0.000229
      f0      :     0.053005  f :     0.110566
      f+1     :     0.026530
      f-1     :     0.030656
      f+2     :     0.000178
      f-2     :     0.000179
      f+3     :     0.000015
      f-3     :     0.000003
      g0      :     0.011335  g :     0.021074
      g+1     :     0.004442
      g-1     :     0.005147
      g+2     :     0.000067
      g-2     :     0.000068
      g+3     :     0.000012
      g-3     :     0.000003
      g+4     :     0.000000
      g-4     :     0.000001
  1 O s       :     2.891955  s :     2.891955
      pz      :     1.256250  p :     3.585461
      px      :     1.103819
      py      :     1.225391
      dz2     :     0.028080  d :     0.087932
      dxz     :     0.025681
      dyz     :     0.007715
      dx2y2   :     0.013221
      dxy     :     0.013235
      f0      :     0.015658  f :     0.025555
      f+1     :     0.000506
      f-1     :     0.000409
      f+2     :     0.003157
      f-2     :     0.003143
      f+3     :     0.002025
      f-3     :     0.000657
      g0      :     0.018505  g :     0.020945
      g+1     :     0.000558
      g-1     :     0.000438
      g+2     :     0.000155
      g-2     :     0.000156
      g+3     :     0.000433
      g-3     :     0.000206
      g+4     :     0.000251
      g-4     :     0.000243
      h0      :     0.021295  h :     0.022055
      h+1     :     0.000008
      h-1     :     0.000039
      h+2     :     0.000046
      h-2     :     0.000046
      h+3     :     0.000197
      h-3     :     0.000036
      h+4     :     0.000127
      h-4     :     0.000215
      h+5     :     0.000035
      h-5     :     0.000012
  2 H s       :     0.694185  s :     0.694185
      pz      :     0.178413  p :     0.531676
      px      :     0.214254
      py      :     0.139009
      dz2     :     0.078201  d :     0.382303
      dxz     :     0.102924
      dyz     :     0.027029
      dx2y2   :     0.071942
      dxy     :     0.102207
      f0      :     0.009523  f :     0.110184
      f+1     :     0.036661
      f-1     :     0.000299
      f+2     :     0.013264
      f-2     :     0.016550
      f+3     :     0.010081
      f-3     :     0.023807
      g0      :     0.004684  g :     0.021208
      g+1     :     0.007765
      g-1     :     0.000022
      g+2     :     0.003186
      g-2     :     0.000223
      g+3     :     0.001140
      g-3     :     0.001347
      g+4     :     0.000753
      g-4     :     0.002089
  3 H s       :     0.694184  s :     0.694184
      pz      :     0.178414  p :     0.531676
      px      :     0.159722
      py      :     0.193541
      dz2     :     0.078201  d :     0.382303
      dxz     :     0.064122
      dyz     :     0.065831
      dx2y2   :     0.102227
      dxy     :     0.071922
      f0      :     0.009523  f :     0.110184
      f+1     :     0.020193
      f-1     :     0.016767
      f+2     :     0.016569
      f-2     :     0.013245
      f+3     :     0.016652
      f-3     :     0.017236
      g0      :     0.004684  g :     0.021208
      g+1     :     0.003922
      g-1     :     0.003865
      g+2     :     0.000214
      g-2     :     0.003195
      g+3     :     0.001264
      g-3     :     0.001223
      g+4     :     0.000755
      g-4     :     0.002087

SPIN
  0 Lis       :     0.486275  s :     0.486275
      pz      :     0.071242  p :     0.072587
      px      :     0.000310
      py      :     0.001035
      dz2     :     0.002826  d :     0.003211
      dxz     :     0.000041
      dyz     :    -0.000029
      dx2y2   :     0.000185
      dxy     :     0.000189
      f0      :     0.001073  f :     0.001342
      f+1     :     0.000020
      f-1     :     0.000065
      f+2     :     0.000085
      f-2     :     0.000087
      f+3     :     0.000011
      f-3     :     0.000002
      g0      :     0.000134  g :     0.000269
      g+1     :     0.000022
      g-1     :     0.000040
      g+2     :     0.000030
      g-2     :     0.000031
      g+3     :     0.000010
      g-3     :     0.000002
      g+4     :    -0.000000
      g-4     :    -0.000000
  1 O s       :     0.067093  s :     0.067093
      pz      :     0.045378  p :     0.045434
      px      :    -0.001365
      py      :     0.001420
      dz2     :     0.004568  d :     0.006736
      dxz     :     0.000225
      dyz     :     0.000323
      dx2y2   :     0.000803
      dxy     :     0.000818
      f0      :     0.000263  f :     0.000688
      f+1     :     0.000003
      f-1     :     0.000017
      f+2     :     0.000091
      f-2     :     0.000092
      f+3     :     0.000185
      f-3     :     0.000037
      g0      :     0.000627  g :     0.000737
      g+1     :     0.000013
      g-1     :     0.000019
      g+2     :     0.000004
      g-2     :     0.000004
      g+3     :     0.000050
      g-3     :     0.000010
      g+4     :     0.000007
      g-4     :     0.000005
      h0      :     0.000834  h :     0.000855
      h+1     :     0.000000
      h-1     :     0.000001
      h+2     :     0.000000
      h-2     :     0.000000
      h+3     :     0.000011
      h-3     :     0.000002
      h+4     :     0.000002
      h-4     :     0.000002
      h+5     :     0.000003
      h-5     :     0.000001
  2 H s       :     0.122579  s :     0.122579
      pz      :     0.014035  p :     0.025843
      px      :     0.010984
      py      :     0.000824
      dz2     :     0.003931  d :     0.007004
      dxz     :     0.002072
      dyz     :     0.000168
      dx2y2   :     0.000755
      dxy     :     0.000078
      f0      :     0.000801  f :     0.001466
      f+1     :     0.000174
      f-1     :     0.000047
      f+2     :     0.000276
      f-2     :     0.000013
      f+3     :     0.000073
      f-3     :     0.000083
      g0      :     0.000065  g :     0.000495
      g+1     :     0.000140
      g-1     :     0.000000
      g+2     :     0.000194
      g-2     :     0.000018
      g+3     :     0.000028
      g-3     :     0.000006
      g+4     :     0.000011
      g-4     :     0.000032
  3 H s       :     0.122578  s :     0.122578
      pz      :     0.014035  p :     0.025843
      px      :     0.006818
      py      :     0.004990
      dz2     :     0.003931  d :     0.007004
      dxz     :     0.001701
      dyz     :     0.000539
      dx2y2   :     0.000070
      dxy     :     0.000762
      f0      :     0.000800  f :     0.001466
      f+1     :     0.000229
      f-1     :    -0.000008
      f+2     :     0.000010
      f-2     :     0.000279
      f+3     :     0.000070
      f-3     :     0.000086
      g0      :     0.000065  g :     0.000495
      g+1     :     0.000070
      g-1     :     0.000070
      g+2     :     0.000017
      g-2     :     0.000195
      g+3     :     0.000003
      g-3     :     0.000031
      g+4     :     0.000011
      g-4     :     0.000033


                      *****************************
                      * MAYER POPULATION ANALYSIS *
                      *****************************

  NA   - Mulliken gross atomic population
  ZA   - Total nuclear charge
  QA   - Mulliken gross atomic charge
  VA   - Mayer's total valence
  BVA  - Mayer's bonded valence
  FA   - Mayer's free valence

  ATOM       NA         ZA         QA         VA         BVA        FA
  0 Li     3.1748     3.0000    -0.1748     1.4074     0.5845     0.8229
  1 O      8.0139     8.0000    -0.0139     1.7630     1.7186     0.0444
  2 H      0.9066     1.0000     0.0934     1.2065     1.1841     0.0223
  3 H      0.9046     1.0000     0.0954     1.2039     1.1821     0.0218

  Mayer bond orders larger than 0.1
B(  0-Li,  2-H ) :   0.2831 B(  0-Li,  3-H ) :   0.2802 B(  1-O ,  2-H ) :   0.8483 
B(  1-O ,  3-H ) :   0.8491 

-------
TIMINGS
-------

Total SCF time: 0 days 0 hours 14 min 4 sec 

Total time                  ....     844.230 sec
Sum of individual times     ....     841.478 sec  ( 99.7%)

Fock matrix formation       ....     837.715 sec  ( 99.2%)
  XC integration            ....      18.985 sec  (  2.3% of F)
    Basis function eval.    ....       1.206 sec  (  6.4% of XC)
    Density eval.           ....       3.831 sec  ( 20.2% of XC)
    XC-Functional eval.     ....       0.169 sec  (  0.9% of XC)
    XC-Potential eval.      ....      13.292 sec  ( 70.0% of XC)
Diagonalization             ....       1.482 sec  (  0.2%)
Density matrix formation    ....       0.034 sec  (  0.0%)
Population analysis         ....       0.190 sec  (  0.0%)
Initial guess               ....       0.913 sec  (  0.1%)
Orbital Transformation      ....       0.000 sec  (  0.0%)
Orbital Orthonormalization  ....       0.000 sec  (  0.0%)
DIIS solution               ....       0.755 sec  (  0.1%)
Grid generation             ....       0.388 sec  (  0.0%)

-------------------------   --------------------
FINAL SINGLE POINT ENERGY       -83.873203821806
-------------------------   --------------------


                            ***************************************
                            *     ORCA property calculations      *
                            ***************************************

                                    ---------------------
                                    Active property flags
                                    ---------------------
   (+) Dipole Moment
   (+) Polarizability


------------------------------------------------------------------------------
                       ORCA ELECTRIC PROPERTIES CALCULATION
------------------------------------------------------------------------------

Dipole Moment Calculation                       ... on
Quadrupole Moment Calculation                   ... off
Polarizability Calculation                      ... Analytic (CP-SCF)
GBWName                                         ... h2o-li_pbe.gbw
Electron density file                           ... h2o-li_pbe.scfp.tmp
The origin for moment calculation is the CENTER OF MASS  = ( 0.018943,  0.045356  2.632780)

-------------
DIPOLE MOMENT
-------------
                                X             Y             Z
Electronic contribution:     -0.18467      -0.44221      -2.10788
Nuclear contribution   :      0.22273       0.53330       3.04627
                        -----------------------------------------
Total Dipole Moment    :      0.03806       0.09109       0.93839
                        -----------------------------------------
Magnitude (a.u.)       :      0.94357
Magnitude (Debye)      :      2.39837



--------------------
Rotational spectrum 
--------------------
 
Rotational constants in cm-1:    12.307592     0.874816     0.830557 
Rotational constants in MHz : 368972.319929 26226.314160 24899.457754 

 Dipole components along the rotational axes: 
x,y,z [a.u.] :     0.941146    -0.000014    -0.067621 
x,y,z [Debye]:     2.392203    -0.000035    -0.171878 

 
Transforming and storing MO dipole integrals   ... done

                ... starting polarizability calculation

Opening the Dipole integral file               ... (h2o-li_pbe.dmo.tmp) done
Reading Dipole-MO integrals                    ... done
Solving CP-SCF equations                       ... 

           ************************************************************
           *        Program running with 4 parallel MPI-processes     *
           *              working on a common directory               *
           ************************************************************

------------------------------------------------------------------------------
                           ORCA CP-SCF CALCULATION
------------------------------------------------------------------------------

Input orbitals are from        ... h2o-li_pbe.gbw
Input Perturbation             ... h2o-li_pbe.cpv.tmp
Wavefunction output            ... h2o-li_pbe.cpu.tmp
Perturbation mode              ... Real perturbation (singlet)
Solver                         ... POPLE
Max. number of iterations      ... 200
Convergence tolerance          ... 1.000e-06
Integral handling              ... Direct
Number of perturbations        ... 3
Number of operators            ... 2
Orbital ranges used for CP-SCF:
 Operator 0:  Orbitals   0...  6  to   7...403
 Operator 1:  Orbitals   0...  5  to   6...403
DFT calculation                         ... on
Exchange functional (SCF)               ... PBE
Exchange functional (CP-SCF)            ... PBE
   PBE kappa parameter  XKappa (SCF)    ...  0.804000
   PBE kappa parameter  XKappa (CP-SCF) ...  0.804000
   PBE mue parameter   XMuePBE (SCF)    ...  0.219520
   PBE mue parameter   XMuePBE (CP-SCF) ...  0.219520
Correlation functional (SCF)            ... PBE
Correlation functional (CP-SCF)         ... PBE
   PBE beta parameter CBetaPBE (SCF)    ...  0.066725
   PBE beta parameter CBetaPBE (CP-SCF) ...  0.066725
 LDA part of GGA corr.  LDAOpt (SCF)    ... PW91-LDA
 LDA part of GGA corr.  LDAOpt (CP-SCF) ... PW91-LDA
Variables per vector in CP-SCF ... 5167
Number of vectors sought       ... 3
Recalculating density on grid  ... done
Calculating the xc-kernel      ... done
     CP-SCF ITERATION   0: 
     CP-SCF ITERATION   1:      7.936802295272
     CP-SCF ITERATION   2:      0.461853301244
     CP-SCF ITERATION   3:      0.038991589868
     CP-SCF ITERATION   4:      0.006282207852
     CP-SCF ITERATION   5:      0.000356071247
     CP-SCF ITERATION   6:      0.000020970874
     CP-SCF ITERATION   7:      0.000000550222
done
Reading CP-SCF coefficients                    ... done
Doing the polarizability tensor   ... done
Cleaning up                                    ... done

-------------------------
THE POLARIZABILITY TENSOR
-------------------------

The raw cartesian tensor (atomic units):
  223.46199    -15.97030      9.92430  
  -15.97030    191.89855     23.76571  
    9.92430     23.76571    268.97501  
diagonalized tensor: 
  177.94147    230.13274    276.26134  

    0.37086      0.92275      0.10488  
    0.88789     -0.38540      0.25122  
   -0.27223      0.00004      0.96223  

Isotropic polarizability : 228.11185


Timings for individual modules:

Sum of individual times         ...     1623.851 sec (=  27.064 min)
GTO integral calculation        ...        1.461 sec (=   0.024 min)   0.1 %
SCF iterations                  ...      844.627 sec (=  14.077 min)  52.0 %
Solution of CP-SCF eqns.        ...      777.763 sec (=  12.963 min)  47.9 %
                             ****ORCA TERMINATED NORMALLY****
TOTAL RUN TIME: 0 days 0 hours 27 minutes 4 seconds 636 msec
