
                                 *****************
                                 * O   R   C   A *
                                 *****************

           --- An Ab Initio, DFT and Semiempirical electronic structure package ---

                  #######################################################
                  #                        -***-                        #
                  #          Department of theory and spectroscopy      #
                  #               Directorship: Frank Neese             #
                  #        Max Planck Institute fuer Kohlenforschung    #
                  #                Kaiser Wilhelm Platz 1               #
                  #                 D-45470 Muelheim/Ruhr               #
                  #                      Germany                        #
                  #                                                     #
                  #                  All rights reserved                #
                  #                        -***-                        #
                  #######################################################


                         Program Version 4.1.2  - RELEASE  -


 With contributions from (in alphabetic order):
   Daniel Aravena         : Magnetic Properties
   Michael Atanasov       : Ab Initio Ligand Field Theory
   Alexander A. Auer      : GIAO ZORA
   Ute Becker             : Parallelization
   Giovanni Bistoni       : ED, Open-shell LED
   Martin Brehm           : Molecular dynamics
   Dmytro Bykov           : SCF Hessian
   Vijay G. Chilkuri      : MRCI spin determinant printing
   Dipayan Datta          : RHF DLPNO-CCSD density
   Achintya Kumar Dutta   : EOM-CC, STEOM-CC
   Dmitry Ganyushin       : Spin-Orbit,Spin-Spin,Magnetic field MRCI
   Miquel Garcia          : C-PCM Hessian
   Yang Guo               : DLPNO-NEVPT2, CIM, IAO-localization
   Andreas Hansen         : Spin unrestricted coupled pair/coupled cluster methods
   Benjamin Helmich-Paris : CASSCF linear response (MC-RPA)
   Lee Huntington         : MR-EOM, pCC
   Robert Izsak           : Overlap fitted RIJCOSX, COSX-SCS-MP3, EOM
   Christian Kollmar      : KDIIS, OOCD, Brueckner-CCSD(T), CCSD density
   Simone Kossmann        : Meta GGA functionals, TD-DFT gradient, OOMP2, MP2 Hessian
   Martin Krupicka        : AUTO-CI
   Lucas Lang             : DCDCAS
   Dagmar Lenk            : GEPOL surface, SMD
   Dimitrios Liakos       : Extrapolation schemes; parallel MDCI
   Dimitrios Manganas     : ROCIS; embedding schemes
   Dimitrios Pantazis     : SARC Basis sets
   Taras Petrenko         : DFT Hessian,TD-DFT gradient, ASA, ECA, R-Raman, ABS, FL, XAS/XES, NRVS
   Peter Pinski           : DLPNO-MP2, DLPNO-MP2 Gradient
   Christoph Reimann      : Effective Core Potentials
   Marius Retegan         : Local ZFS, SOC
   Christoph Riplinger    : Optimizer, TS searches, QM/MM, DLPNO-CCSD(T), (RO)-DLPNO pert. Triples
   Tobias Risthaus        : Range-separated hybrids, TD-DFT gradient, RPA, STAB
   Michael Roemelt        : Restricted open shell CIS
   Masaaki Saitow         : Open-shell DLPNO
   Barbara Sandhoefer     : DKH picture change effects
   Avijit Sen             : IP-ROCIS
   Kantharuban Sivalingam : CASSCF convergence, NEVPT2, FIC-MRCI
   Bernardo de Souza      : ESD, SOC TD-DFT
   Georgi Stoychev        : AutoAux, RI-MP2 NMR
   Willem Van den Heuvel  : Paramagnetic NMR
   Boris Wezisla          : Elementary symmetry handling
   Frank Wennmohs         : Technical directorship


 We gratefully acknowledge several colleagues who have allowed us to
 interface, adapt or use parts of their codes:
   Stefan Grimme, W. Hujo, H. Kruse,             : VdW corrections, initial TS optimization,
                  C. Bannwarth                     DFT functionals, gCP, sTDA/sTD-DF
   Ed Valeev                                     : LibInt (2-el integral package), F12 methods
   Garnet Chan, S. Sharma, J. Yang, R. Olivares  : DMRG
   Ulf Ekstrom                                   : XCFun DFT Library
   Mihaly Kallay                                 : mrcc  (arbitrary order and MRCC methods)
   Andreas Klamt, Michael Diedenhofen            : otool_cosmo (COSMO solvation model)
   Jiri Pittner, Ondrej Demel                    : Mk-CCSD
   Frank Weinhold                                : gennbo (NPA and NBO analysis)
   Christopher J. Cramer and Donald G. Truhlar   : smd solvation model
   Lars Goerigk                                  : TD-DFT with DH, B97 family of functionals
   V. Asgeirsson, H. Jonsson                     : NEB implementation
   FAccTs GmbH                                   : IRC, NEB, NEB-TS, Multilevel


 Your calculation uses the libint2 library for the computation of 2-el integrals
 For citations please refer to: http://libint.valeyev.net

 This ORCA versions uses:
   CBLAS   interface :  Fast vector & matrix operations
   LAPACKE interface :  Fast linear algebra routines
   SCALAPACK package :  Parallel linear algebra routines


----- Orbital basis set information -----
Your calculation utilizes the basis: aug-pc-4
   H, C-F              : F. Jensen, J. Chem. Phys. 115, 9113 (2001).
                         F. Jensen, J. Chem. Phys. 116, 7372 (2002).
                         F. Jensen, J. Chem. Phys. 117, 9234 (2002).
   Si-Cl               : F. Jensen, T. Helgaker, J. Chem. Phys. 121, 3463 (2004).
   He-B, Ne-Mg, Al, Ar : F. Jensen, J. Phys. Chem. A 111, 11198 (2007).
   K, Ca, Ga-Kr        : F. Jensen, J. Chem. Phys. 136, 094110 (2012).
   Sc-Zn               : F. Jensen, J. Chem. Phys. 138, 014107 (2013).

================================================================================
                                        WARNINGS
                       Please study these warnings very carefully!
================================================================================


INFO   : the flag for use of LIBINT has been found!

================================================================================
                                       INPUT FILE
================================================================================
NAME = h2o_pbe.inp
|  1> !uks pbe nori aug-pc-4 grid5 nofinalgrid verytightscf
|  2> 
|  3> %maxcore 1500
|  4> 
|  5> %pal nprocs 4 end
|  6> 
|  7> %scf
|  8> 	maxiter 200
|  9> end
| 10> %elprop
| 11> 	dipole true
| 12> 	 polar 1
| 13> 	 maxiter 200
| 14> end
| 15> 
| 16> * xyz 0 1
| 17> O 0.0000 0.0000 0.1173
| 18> H 0.0000 0.7572 -0.4692
| 19> H 0.0000 -0.7572 -0.4692
| 20> *
| 21> 
| 22>                          ****END OF INPUT****
================================================================================

                       ****************************
                       * Single Point Calculation *
                       ****************************

---------------------------------
CARTESIAN COORDINATES (ANGSTROEM)
---------------------------------
  O      0.000000    0.000000    0.117300
  H      0.000000    0.757200   -0.469200
  H      0.000000   -0.757200   -0.469200

----------------------------
CARTESIAN COORDINATES (A.U.)
----------------------------
  NO LB      ZA    FRAG     MASS         X           Y           Z
   0 O     8.0000    0    15.999    0.000000    0.000000    0.221665
   1 H     1.0000    0     1.008    0.000000    1.430901   -0.886660
   2 H     1.0000    0     1.008    0.000000   -1.430901   -0.886660

--------------------------------
INTERNAL COORDINATES (ANGSTROEM)
--------------------------------
 O      0   0   0     0.000000000000     0.00000000     0.00000000
 H      1   0   0     0.957775594803     0.00000000     0.00000000
 H      1   2   0     0.957775594803   104.47983882     0.00000000

---------------------------
INTERNAL COORDINATES (A.U.)
---------------------------
 O      0   0   0     0.000000000000     0.00000000     0.00000000
 H      1   0   0     1.809933571931     0.00000000     0.00000000
 H      1   2   0     1.809933571931   104.47983882     0.00000000

---------------------
BASIS SET INFORMATION
---------------------
There are 2 groups of distinct atoms

 Group   1 Type O   : 27s12p7d4f3g2h contracted to 9s8p7d4f3g2h pattern {1191111111/51111111/1111111/1111/111/11}
 Group   2 Type H   : 12s7p4d3f2g contracted to 8s7p4d3f2g pattern {51111111/1111111/1111/111/11}

Atom   0O    basis set group =>   1
Atom   1H    basis set group =>   2
Atom   2H    basis set group =>   2


           ************************************************************
           *        Program running with 4 parallel MPI-processes     *
           *              working on a common directory               *
           ************************************************************
------------------------------------------------------------------------------
                           ORCA GTO INTEGRAL CALCULATION
------------------------------------------------------------------------------

                         BASIS SET STATISTICS AND STARTUP INFO

 # of primitive gaussian shells          ...  111
 # of primitive gaussian functions       ...  359
 # of contracted shells                  ...   81
 # of contracted basis functions         ...  321
 Highest angular momentum                ...    5
 Maximum contraction depth               ...   11
 Integral package used                   ... LIBINT
 Integral threshhold            Thresh   ...  1.000e-12
 Primitive cut-off              TCut     ...  1.000e-14


------------------------------ INTEGRAL EVALUATION ----------------------------


 * One electron integrals 
 Pre-screening matrix                    ... done
 Shell pair data                         ... done (   0.001 sec)



           ************************************************************
           *        Program running with 4 parallel MPI-processes     *
           *              working on a common directory               *
           ************************************************************
-------------------------------------------------------------------------------
                                 ORCA SCF
-------------------------------------------------------------------------------

------------
SCF SETTINGS
------------
Hamiltonian:
 Density Functional     Method          .... DFT(GTOs)
 Exchange Functional    Exchange        .... PBE
   PBE kappa parameter   XKappa         ....  0.804000
   PBE mue parameter    XMuePBE         ....  0.219520
 Correlation Functional Correlation     .... PBE
   PBE beta parameter  CBetaPBE         ....  0.066725
 LDA part of GGA corr.  LDAOpt          .... PW91-LDA
 Gradients option       PostSCFGGA      .... off
   Density functional embedding theory  .... OFF
   NL short-range parameter             ....  6.400000


General Settings:
 Integral files         IntName         .... h2o_pbe
 Hartree-Fock type      HFTyp           .... UHF
 Total Charge           Charge          ....    0
 Multiplicity           Mult            ....    1
 Number of Electrons    NEL             ....   10
 Basis Dimension        Dim             ....  321
 Nuclear Repulsion      ENuc            ....      9.1895337174 Eh

Convergence Acceleration:
 DIIS                   CNVDIIS         .... on
   Start iteration      DIISMaxIt       ....    12
   Startup error        DIISStart       ....  0.200000
   # of expansion vecs  DIISMaxEq       ....     5
   Bias factor          DIISBfac        ....   1.050
   Max. coefficient     DIISMaxC        ....  10.000
 Newton-Raphson         CNVNR           .... off
 SOSCF                  CNVSOSCF        .... off
 Level Shifting         CNVShift        .... on
   Level shift para.    LevelShift      ....    0.2500
   Turn off err/grad.   ShiftErr        ....    0.0010
 Zerner damping         CNVZerner       .... off
 Static damping         CNVDamp         .... on
   Fraction old density DampFac         ....    0.7000
   Max. Damping (<1)    DampMax         ....    0.9800
   Min. Damping (>=0)   DampMin         ....    0.0000
   Turn off err/grad.   DampErr         ....    0.1000
 Fernandez-Rico         CNVRico         .... off

SCF Procedure:
 Maximum # iterations   MaxIter         ....   200
 SCF integral mode      SCFMode         .... Direct
   Integral package                     .... LIBINT
 Reset frequency        DirectResetFreq ....    20
 Integral Threshold     Thresh          ....  1.000e-12 Eh
 Primitive CutOff       TCut            ....  1.000e-14 Eh

Convergence Tolerance:
 Convergence Check Mode ConvCheckMode   .... Total+1el-Energy
 Convergence forced     ConvForced      .... 0
 Energy Change          TolE            ....  1.000e-09 Eh
 1-El. energy change                    ....  1.000e-06 Eh
 DIIS Error             TolErr          ....  1.000e-08


Diagonalization of the overlap matrix:
Smallest eigenvalue                        ... 1.451e-06
Time for diagonalization                   ...    0.021 sec
Threshold for overlap eigenvalues          ... 1.000e-08
Number of eigenvalues below threshold      ... 0
Time for construction of square roots      ...    0.040 sec
Total time needed                          ...    0.061 sec

-------------------
DFT GRID GENERATION
-------------------

General Integration Accuracy     IntAcc      ...  5.010
Radial Grid Type                 RadialGrid  ... Gauss-Chebyshev
Angular Grid (max. acc.)         AngularGrid ... Lebedev-434
Angular grid pruning method      GridPruning ... 3 (G Style)
Weight generation scheme         WeightScheme... Becke
Basis function cutoff            BFCut       ...    1.0000e-12
Integration weight cutoff        WCut        ...    1.0000e-14
Grids for H and He will be reduced by one unit

# of grid points (after initial pruning)     ...  24226 (   0.0 sec)
# of grid points (after weights+screening)   ...  24010 (   0.0 sec)
nearest neighbour list constructed           ...    0.0 sec
Grid point re-assignment to atoms done       ...    0.0 sec
Grid point division into batches done        ...    0.2 sec
Reduced shell lists constructed in    0.2 sec

Total number of grid points                  ...    24010
Total number of batches                      ...      376
Average number of points per batch           ...       63
Average number of grid points per atom       ...     8003
Average number of shells per batch           ...    65.03 (80.29%)
Average number of basis functions per batch  ...   264.40 (82.37%)
Average number of large shells per batch     ...    60.23 (92.62%)
Average number of large basis fcns per batch ...   247.33 (93.54%)
Maximum spatial batch extension              ...  16.27, 13.72, 10.73 au
Average spatial batch extension              ...   0.74,  0.70,  0.64 au

Time for grid setup =    0.358 sec

------------------------------
INITIAL GUESS: MODEL POTENTIAL
------------------------------
Loading Hartree-Fock densities                     ... done
Calculating cut-offs                               ... done
Setting up the integral package                    ... done
Initializing the effective Hamiltonian             ... done
Starting the Coulomb interaction                   ... done (   0.0 sec)
Reading the grid                                   ... done
Mapping shells                                     ... done
Starting the XC term evaluation                    ... done (   0.3 sec)
  promolecular density results
     # of electrons  =      9.999021916
     EX              =     -8.731255591
     EC              =     -0.316241117
     EX+EC           =     -9.047496708
Transforming the Hamiltonian                       ... done (   0.0 sec)
Diagonalizing the Hamiltonian                      ... done (   0.0 sec)
Back transforming the eigenvectors                 ... done (   0.0 sec)
Now organizing SCF variables                       ... done
                      ------------------
                      INITIAL GUESS DONE (   0.8 sec)
                      ------------------
--------------
SCF ITERATIONS
--------------
ITER       Energy         Delta-E        Max-DP      RMS-DP      [F,P]     Damp
               ***  Starting incremental Fock matrix formation  ***
  0    -76.2910497949   0.000000000000 0.01345377  0.00018206  0.3253575 0.7000
  1    -76.3430581266  -0.052008331653 0.00813992  0.00010833  0.0974834 0.7000
                               ***Turning on DIIS***
  2    -76.3550266545  -0.011968527911 0.00616448  0.00009566  0.0202435 0.0000
  3    -76.3852646474  -0.030237992949 0.00481617  0.00005711  0.0552243 0.0000
  4    -76.3883478936  -0.003083246204 0.00130387  0.00001825  0.0087351 0.0000
  5    -76.3884985473  -0.000150653717 0.00023992  0.00000371  0.0022788 0.0000
  6    -76.3885096824  -0.000011135041 0.00032597  0.00000394  0.0008356 0.0000
  7    -76.3885116566  -0.000001974220 0.00002733  0.00000032  0.0000504 0.0000
  8    -76.3885116589  -0.000000002285 0.00000092  0.00000001  0.0000079 0.0000
  9    -76.3885116590  -0.000000000068 0.00000042  0.00000001  0.0000011 0.0000
 10    -76.3885116590   0.000000000003 0.00000079  0.00000001  0.0000004 0.0000
                 **** Energy Check signals convergence ****

               *****************************************************
               *                     SUCCESS                       *
               *           SCF CONVERGED AFTER  11 CYCLES          *
               *****************************************************


----------------
TOTAL SCF ENERGY
----------------

Total Energy       :          -76.38851166 Eh           -2078.63708 eV

Components:
Nuclear Repulsion  :            9.18953372 Eh             250.05993 eV
Electronic Energy  :          -85.57804538 Eh           -2328.69700 eV
One Electron Energy:         -122.99616935 Eh           -3346.89592 eV
Two Electron Energy:           37.41812398 Eh            1018.19892 eV

Virial components:
Potential Energy   :         -152.54505771 Eh           -4150.96205 eV
Kinetic Energy     :           76.15654605 Eh            2072.32497 eV
Virial Ratio       :            2.00304591


DFT components:
N(Alpha)           :        5.000000228458 electrons
N(Beta)            :        5.000000228458 electrons
N(Total)           :       10.000000456917 electrons
E(X)               :       -8.917223347569 Eh       
E(C)               :       -0.324464568056 Eh       
E(XC)              :       -9.241687915626 Eh       
DFET-embed. en.    :        0.000000000000 Eh       

---------------
SCF CONVERGENCE
---------------

  Last Energy change         ...   -1.5632e-12  Tolerance :   1.0000e-09
  Last MAX-Density change    ...    3.4629e-06  Tolerance :   1.0000e-08
  Last RMS-Density change    ...    4.4026e-08  Tolerance :   1.0000e-09
  Last DIIS Error            ...    1.4151e-08  Tolerance :   1.0000e-08

             **** THE GBW FILE WAS UPDATED (h2o_pbe.gbw) ****
             **** DENSITY FILE WAS UPDATED (h2o_pbe.scfp.tmp) ****
             **** ENERGY FILE WAS UPDATED (h2o_pbe.en.tmp) ****
----------------------
UHF SPIN CONTAMINATION
----------------------

Warning: in a DFT calculation there is little theoretical justification to 
         calculate <S**2> as in Hartree-Fock theory. We will do it anyways
         but you should keep in mind that the values have only limited relevance

Expectation value of <S**2>     :    -0.000000
Ideal value S*(S+1) for S=0.0   :     0.000000
Deviation                       :    -0.000000

----------------
ORBITAL ENERGIES
----------------
                 SPIN UP ORBITALS
  NO   OCC          E(Eh)            E(eV) 
   0   1.0000     -18.755012      -510.3498 
   1   1.0000      -0.932043       -25.3622 
   2   1.0000      -0.485290       -13.2054 
   3   1.0000      -0.343259        -9.3405 
   4   1.0000      -0.266533        -7.2527 
   5   0.0000      -0.034457        -0.9376 
   6   0.0000       0.012269         0.3338 
   7   0.0000       0.030605         0.8328 
   8   0.0000       0.030922         0.8414 
   9   0.0000       0.038712         1.0534 
  10   0.0000       0.054410         1.4806 
  11   0.0000       0.064245         1.7482 
  12   0.0000       0.082731         2.2512 
  13   0.0000       0.090818         2.4713 
  14   0.0000       0.090919         2.4740 
  15   0.0000       0.094039         2.5589 
  16   0.0000       0.125499         3.4150 
  17   0.0000       0.129985         3.5371 
  18   0.0000       0.145062         3.9473 
  19   0.0000       0.158540         4.3141 
  20   0.0000       0.159305         4.3349 
  21   0.0000       0.169037         4.5997 
  22   0.0000       0.179632         4.8880 
  23   0.0000       0.180296         4.9061 
  24   0.0000       0.183316         4.9883 
  25   0.0000       0.194843         5.3019 
  26   0.0000       0.209384         5.6976 
  27   0.0000       0.210004         5.7145 
  28   0.0000       0.216327         5.8865 
  29   0.0000       0.237442         6.4611 
  30   0.0000       0.243393         6.6231 
  31   0.0000       0.252180         6.8622 
  32   0.0000       0.256259         6.9732 
  33   0.0000       0.271677         7.3927 
  34   0.0000       0.273934         7.4541 
  35   0.0000       0.288583         7.8527 
  36   0.0000       0.302161         8.2222 
  37   0.0000       0.308741         8.4013 
  38   0.0000       0.325773         8.8647 
  39   0.0000       0.328669         8.9435 
  40   0.0000       0.330616         8.9965 
  41   0.0000       0.332246         9.0409 
  42   0.0000       0.371050        10.0968 
  43   0.0000       0.382393        10.4054 
  44   0.0000       0.395304        10.7568 
  45   0.0000       0.410991        11.1836 
  46   0.0000       0.414260        11.2726 
  47   0.0000       0.414636        11.2828 
  48   0.0000       0.419888        11.4257 
  49   0.0000       0.420300        11.4369 
  50   0.0000       0.428840        11.6693 
  51   0.0000       0.451535        12.2869 
  52   0.0000       0.455903        12.4058 
  53   0.0000       0.471791        12.8381 
  54   0.0000       0.483029        13.1439 
  55   0.0000       0.487618        13.2687 
  56   0.0000       0.503476        13.7003 
  57   0.0000       0.508502        13.8370 
  58   0.0000       0.514663        14.0047 
  59   0.0000       0.527363        14.3503 
  60   0.0000       0.533260        14.5107 
  61   0.0000       0.540380        14.7045 
  62   0.0000       0.545596        14.8464 
  63   0.0000       0.546632        14.8746 
  64   0.0000       0.556575        15.1452 
  65   0.0000       0.560896        15.2628 
  66   0.0000       0.561508        15.2794 
  67   0.0000       0.573437        15.6040 
  68   0.0000       0.573557        15.6073 
  69   0.0000       0.588196        16.0056 
  70   0.0000       0.604200        16.4411 
  71   0.0000       0.627259        17.0686 
  72   0.0000       0.642009        17.4700 
  73   0.0000       0.643281        17.5046 
  74   0.0000       0.677367        18.4321 
  75   0.0000       0.687014        18.6946 
  76   0.0000       0.694782        18.9060 
  77   0.0000       0.699185        19.0258 
  78   0.0000       0.710705        19.3393 
  79   0.0000       0.720959        19.6183 
  80   0.0000       0.727445        19.7948 
  81   0.0000       0.743683        20.2366 
  82   0.0000       0.754330        20.5264 
  83   0.0000       0.760256        20.6876 
  84   0.0000       0.768137        20.9021 
  85   0.0000       0.782236        21.2857 
  86   0.0000       0.805392        21.9158 
  87   0.0000       0.806137        21.9361 
  88   0.0000       0.823788        22.4164 
  89   0.0000       0.842865        22.9355 
  90   0.0000       0.846496        23.0343 
  91   0.0000       0.861961        23.4552 
  92   0.0000       0.876974        23.8637 
  93   0.0000       0.898212        24.4416 
  94   0.0000       0.899903        24.4876 
  95   0.0000       0.907277        24.6883 
  96   0.0000       0.939107        25.5544 
  97   0.0000       0.946638        25.7593 
  98   0.0000       0.974498        26.5174 
  99   0.0000       0.986404        26.8414 
 100   0.0000       1.001587        27.2546 
 101   0.0000       1.010905        27.5081 
 102   0.0000       1.011293        27.5187 
 103   0.0000       1.016247        27.6535 
 104   0.0000       1.020066        27.7574 
 105   0.0000       1.076606        29.2959 
 106   0.0000       1.081143        29.4194 
 107   0.0000       1.081845        29.4385 
 108   0.0000       1.100446        29.9447 
 109   0.0000       1.101091        29.9622 
 110   0.0000       1.119875        30.4734 
 111   0.0000       1.133863        30.8540 
 112   0.0000       1.144472        31.1427 
 113   0.0000       1.164725        31.6938 
 114   0.0000       1.204879        32.7864 
 115   0.0000       1.230691        33.4888 
 116   0.0000       1.248855        33.9831 
 117   0.0000       1.327346        36.1189 
 118   0.0000       1.370404        37.2906 
 119   0.0000       1.431341        38.9488 
 120   0.0000       1.477170        40.1958 
 121   0.0000       1.499372        40.8000 
 122   0.0000       1.577946        42.9381 
 123   0.0000       1.616625        43.9906 
 124   0.0000       1.651826        44.9485 
 125   0.0000       1.657371        45.0994 
 126   0.0000       1.668525        45.4029 
 127   0.0000       1.714698        46.6593 
 128   0.0000       1.715888        46.6917 
 129   0.0000       1.759107        47.8677 
 130   0.0000       1.830517        49.8109 
 131   0.0000       1.868394        50.8416 
 132   0.0000       1.870289        50.8931 
 133   0.0000       1.902977        51.7826 
 134   0.0000       2.008185        54.6455 
 135   0.0000       2.169275        59.0290 
 136   0.0000       2.173539        59.1450 
 137   0.0000       2.186306        59.4924 
 138   0.0000       2.290333        62.3231 
 139   0.0000       2.331556        63.4449 
 140   0.0000       2.409959        65.5783 
 141   0.0000       2.508623        68.2631 
 142   0.0000       2.526426        68.7476 
 143   0.0000       2.627258        71.4913 
 144   0.0000       2.671679        72.7001 
 145   0.0000       2.717445        73.9454 
 146   0.0000       2.878096        78.3170 
 147   0.0000       2.941107        80.0316 
 148   0.0000       3.013435        81.9997 
 149   0.0000       3.097338        84.2828 
 150   0.0000       3.105187        84.4964 
 151   0.0000       3.286525        89.4309 
 152   0.0000       3.312443        90.1361 
 153   0.0000       3.370499        91.7159 
 154   0.0000       3.393298        92.3363 
 155   0.0000       3.434399        93.4548 
 156   0.0000       3.469367        94.4063 
 157   0.0000       3.513968        95.6199 
 158   0.0000       3.562321        96.9357 
 159   0.0000       3.569734        97.1374 
 160   0.0000       3.641581        99.0925 
 161   0.0000       3.646217        99.2186 
 162   0.0000       3.666108        99.7599 
 163   0.0000       3.811711       103.7219 
 164   0.0000       3.841612       104.5356 
 165   0.0000       3.850266       104.7711 
 166   0.0000       3.930387       106.9513 
 167   0.0000       4.030490       109.6752 
 168   0.0000       4.131604       112.4267 
 169   0.0000       4.168426       113.4286 
 170   0.0000       4.312201       117.3410 
 171   0.0000       4.321932       117.6058 
 172   0.0000       4.349708       118.3616 
 173   0.0000       4.418969       120.2462 
 174   0.0000       4.433012       120.6284 
 175   0.0000       4.554947       123.9464 
 176   0.0000       4.614470       125.5661 
 177   0.0000       4.684322       127.4669 
 178   0.0000       4.705739       128.0497 
 179   0.0000       4.896775       133.2480 
 180   0.0000       5.053562       137.5144 
 181   0.0000       5.178220       140.9065 
 182   0.0000       5.367296       146.0515 
 183   0.0000       5.400444       146.9535 
 184   0.0000       5.451962       148.3554 
 185   0.0000       5.560909       151.3200 
 186   0.0000       5.608367       152.6114 
 187   0.0000       5.654412       153.8644 
 188   0.0000       5.939409       161.6195 
 189   0.0000       6.025361       163.9584 
 190   0.0000       6.055257       164.7719 
 191   0.0000       6.239635       169.7891 
 192   0.0000       6.313957       171.8115 
 193   0.0000       6.319208       171.9544 
 194   0.0000       6.734263       183.2486 
 195   0.0000       6.833410       185.9465 
 196   0.0000       6.931822       188.6245 
 197   0.0000       7.066536       192.2902 
 198   0.0000       7.178180       195.3282 
 199   0.0000       7.330151       199.4636 
 200   0.0000       7.370636       200.5652 
 201   0.0000       7.406049       201.5288 
 202   0.0000       7.408270       201.5893 
 203   0.0000       7.490502       203.8269 
 204   0.0000       7.614797       207.2092 
 205   0.0000       7.801363       212.2859 
 206   0.0000       8.358113       227.4358 
 207   0.0000       8.426032       229.2840 
 208   0.0000       8.533805       232.2166 
 209   0.0000       8.744099       237.9390 
 210   0.0000       8.795884       239.3482 
 211   0.0000       9.031062       245.7477 
 212   0.0000       9.039724       245.9834 
 213   0.0000       9.157736       249.1947 
 214   0.0000       9.271884       252.3008 
 215   0.0000       9.346831       254.3402 
 216   0.0000       9.364268       254.8147 
 217   0.0000       9.687039       263.5977 
 218   0.0000       9.742632       265.1105 
 219   0.0000      10.149575       276.1840 
 220   0.0000      10.231501       278.4133 
 221   0.0000      10.399062       282.9729 
 222   0.0000      10.604171       288.5542 
 223   0.0000      10.657387       290.0022 
 224   0.0000      10.704672       291.2889 
 225   0.0000      11.153349       303.4981 
 226   0.0000      11.383390       309.7578 
 227   0.0000      11.412130       310.5398 
 228   0.0000      11.499350       312.9132 
 229   0.0000      11.704082       318.4843 
 230   0.0000      11.760615       320.0226 
 231   0.0000      11.860717       322.7465 
 232   0.0000      11.939384       324.8872 
 233   0.0000      11.991722       326.3113 
 234   0.0000      12.061107       328.1994 
 235   0.0000      12.067499       328.3733 
 236   0.0000      12.219778       332.5171 
 237   0.0000      12.336963       335.7058 
 238   0.0000      12.341542       335.8304 
 239   0.0000      12.591793       342.6401 
 240   0.0000      12.602488       342.9311 
 241   0.0000      12.609769       343.1292 
 242   0.0000      12.690105       345.3153 
 243   0.0000      12.731274       346.4356 
 244   0.0000      12.775403       347.6364 
 245   0.0000      12.936532       352.0209 
 246   0.0000      12.948727       352.3528 
 247   0.0000      13.478819       366.7773 
 248   0.0000      13.632065       370.9473 
 249   0.0000      13.764042       374.5386 
 250   0.0000      13.880663       377.7120 
 251   0.0000      13.922837       378.8596 
 252   0.0000      14.151440       385.0803 
 253   0.0000      14.210402       386.6847 
 254   0.0000      14.238221       387.4417 
 255   0.0000      14.708541       400.2398 
 256   0.0000      14.766267       401.8106 
 257   0.0000      15.439483       420.1297 
 258   0.0000      15.700234       427.2251 
 259   0.0000      16.442511       447.4235 
 260   0.0000      16.614244       452.0966 
 261   0.0000      16.737849       455.4600 
 262   0.0000      16.766377       456.2363 
 263   0.0000      16.793360       456.9706 
 264   0.0000      16.808780       457.3902 
 265   0.0000      16.911829       460.1943 
 266   0.0000      17.072760       464.5734 
 267   0.0000      17.254453       469.5175 
 268   0.0000      17.380764       472.9546 
 269   0.0000      17.395592       473.3581 
 270   0.0000      17.439518       474.5534 
 271   0.0000      17.536635       477.1961 
 272   0.0000      17.587732       478.5865 
 273   0.0000      17.633990       479.8453 
 274   0.0000      17.749375       482.9850 
 275   0.0000      17.892301       486.8743 
 276   0.0000      17.894607       486.9370 
 277   0.0000      17.934221       488.0150 
 278   0.0000      18.392102       500.4745 
 279   0.0000      18.462438       502.3885 
 280   0.0000      18.946778       515.5680 
 281   0.0000      19.260601       524.1076 
 282   0.0000      19.490409       530.3610 
 283   0.0000      19.637818       534.3722 
 284   0.0000      20.342601       553.5503 
 285   0.0000      20.505482       557.9825 
 286   0.0000      20.638814       561.6107 
 287   0.0000      20.806443       566.1721 
 288   0.0000      20.898283       568.6712 
 289   0.0000      21.173123       576.1500 
 290   0.0000      21.517038       585.5084 
 291   0.0000      22.055345       600.1565 
 292   0.0000      23.535421       640.4314 
 293   0.0000      23.546468       640.7320 
 294   0.0000      23.754671       646.3975 
 295   0.0000      23.856148       649.1588 
 296   0.0000      23.972486       652.3245 
 297   0.0000      24.010764       653.3661 
 298   0.0000      24.197218       658.4398 
 299   0.0000      26.166796       712.0347 
 300   0.0000      27.103485       737.5233 
 301   0.0000      27.144308       738.6342 
 302   0.0000      28.144588       765.8532 
 303   0.0000      31.206901       849.1829 
 304   0.0000      32.216141       876.6458 
 305   0.0000      34.059293       926.8005 
 306   0.0000      34.658753       943.1126 
 307   0.0000      41.247939      1122.4135 
 308   0.0000      41.382389      1126.0721 
 309   0.0000      66.868961      1819.5969 
 310   0.0000      67.036100      1824.1450 
 311   0.0000      67.114152      1826.2689 
 312   0.0000      68.103768      1853.1978 
 313   0.0000      69.395633      1888.3512 
 314   0.0000      90.954206      2474.9898 
 315   0.0000      90.998998      2476.2086 
 316   0.0000      91.172477      2480.9292 
 317   0.0000      91.190215      2481.4119 
 318   0.0000      93.581401      2546.4794 
 319   0.0000      93.679207      2549.1408 
 320   0.0000     144.165053      3922.9305 

                 SPIN DOWN ORBITALS
  NO   OCC          E(Eh)            E(eV) 
   0   1.0000     -18.755012      -510.3498 
   1   1.0000      -0.932043       -25.3622 
   2   1.0000      -0.485290       -13.2054 
   3   1.0000      -0.343259        -9.3405 
   4   1.0000      -0.266533        -7.2527 
   5   0.0000      -0.034457        -0.9376 
   6   0.0000       0.012269         0.3338 
   7   0.0000       0.030605         0.8328 
   8   0.0000       0.030922         0.8414 
   9   0.0000       0.038712         1.0534 
  10   0.0000       0.054410         1.4806 
  11   0.0000       0.064245         1.7482 
  12   0.0000       0.082731         2.2512 
  13   0.0000       0.090818         2.4713 
  14   0.0000       0.090919         2.4740 
  15   0.0000       0.094039         2.5589 
  16   0.0000       0.125499         3.4150 
  17   0.0000       0.129985         3.5371 
  18   0.0000       0.145062         3.9473 
  19   0.0000       0.158540         4.3141 
  20   0.0000       0.159305         4.3349 
  21   0.0000       0.169037         4.5997 
  22   0.0000       0.179632         4.8880 
  23   0.0000       0.180296         4.9061 
  24   0.0000       0.183316         4.9883 
  25   0.0000       0.194843         5.3019 
  26   0.0000       0.209384         5.6976 
  27   0.0000       0.210004         5.7145 
  28   0.0000       0.216327         5.8865 
  29   0.0000       0.237442         6.4611 
  30   0.0000       0.243393         6.6231 
  31   0.0000       0.252180         6.8622 
  32   0.0000       0.256259         6.9732 
  33   0.0000       0.271677         7.3927 
  34   0.0000       0.273934         7.4541 
  35   0.0000       0.288583         7.8527 
  36   0.0000       0.302161         8.2222 
  37   0.0000       0.308741         8.4013 
  38   0.0000       0.325773         8.8647 
  39   0.0000       0.328669         8.9435 
  40   0.0000       0.330616         8.9965 
  41   0.0000       0.332246         9.0409 
  42   0.0000       0.371050        10.0968 
  43   0.0000       0.382393        10.4054 
  44   0.0000       0.395304        10.7568 
  45   0.0000       0.410991        11.1836 
  46   0.0000       0.414260        11.2726 
  47   0.0000       0.414636        11.2828 
  48   0.0000       0.419888        11.4257 
  49   0.0000       0.420300        11.4369 
  50   0.0000       0.428840        11.6693 
  51   0.0000       0.451535        12.2869 
  52   0.0000       0.455903        12.4058 
  53   0.0000       0.471791        12.8381 
  54   0.0000       0.483029        13.1439 
  55   0.0000       0.487618        13.2687 
  56   0.0000       0.503476        13.7003 
  57   0.0000       0.508502        13.8370 
  58   0.0000       0.514663        14.0047 
  59   0.0000       0.527363        14.3503 
  60   0.0000       0.533260        14.5107 
  61   0.0000       0.540380        14.7045 
  62   0.0000       0.545596        14.8464 
  63   0.0000       0.546632        14.8746 
  64   0.0000       0.556575        15.1452 
  65   0.0000       0.560896        15.2628 
  66   0.0000       0.561508        15.2794 
  67   0.0000       0.573437        15.6040 
  68   0.0000       0.573557        15.6073 
  69   0.0000       0.588196        16.0056 
  70   0.0000       0.604200        16.4411 
  71   0.0000       0.627259        17.0686 
  72   0.0000       0.642009        17.4700 
  73   0.0000       0.643281        17.5046 
  74   0.0000       0.677367        18.4321 
  75   0.0000       0.687014        18.6946 
  76   0.0000       0.694782        18.9060 
  77   0.0000       0.699185        19.0258 
  78   0.0000       0.710705        19.3393 
  79   0.0000       0.720959        19.6183 
  80   0.0000       0.727445        19.7948 
  81   0.0000       0.743683        20.2366 
  82   0.0000       0.754330        20.5264 
  83   0.0000       0.760256        20.6876 
  84   0.0000       0.768137        20.9021 
  85   0.0000       0.782236        21.2857 
  86   0.0000       0.805392        21.9158 
  87   0.0000       0.806137        21.9361 
  88   0.0000       0.823788        22.4164 
  89   0.0000       0.842865        22.9355 
  90   0.0000       0.846496        23.0343 
  91   0.0000       0.861961        23.4552 
  92   0.0000       0.876974        23.8637 
  93   0.0000       0.898212        24.4416 
  94   0.0000       0.899903        24.4876 
  95   0.0000       0.907277        24.6883 
  96   0.0000       0.939107        25.5544 
  97   0.0000       0.946638        25.7593 
  98   0.0000       0.974498        26.5174 
  99   0.0000       0.986404        26.8414 
 100   0.0000       1.001587        27.2546 
 101   0.0000       1.010905        27.5081 
 102   0.0000       1.011293        27.5187 
 103   0.0000       1.016247        27.6535 
 104   0.0000       1.020066        27.7574 
 105   0.0000       1.076606        29.2959 
 106   0.0000       1.081143        29.4194 
 107   0.0000       1.081845        29.4385 
 108   0.0000       1.100446        29.9447 
 109   0.0000       1.101091        29.9622 
 110   0.0000       1.119875        30.4734 
 111   0.0000       1.133863        30.8540 
 112   0.0000       1.144472        31.1427 
 113   0.0000       1.164725        31.6938 
 114   0.0000       1.204879        32.7864 
 115   0.0000       1.230691        33.4888 
 116   0.0000       1.248855        33.9831 
 117   0.0000       1.327346        36.1189 
 118   0.0000       1.370404        37.2906 
 119   0.0000       1.431341        38.9488 
 120   0.0000       1.477170        40.1958 
 121   0.0000       1.499372        40.8000 
 122   0.0000       1.577946        42.9381 
 123   0.0000       1.616625        43.9906 
 124   0.0000       1.651826        44.9485 
 125   0.0000       1.657371        45.0994 
 126   0.0000       1.668525        45.4029 
 127   0.0000       1.714698        46.6593 
 128   0.0000       1.715888        46.6917 
 129   0.0000       1.759107        47.8677 
 130   0.0000       1.830517        49.8109 
 131   0.0000       1.868394        50.8416 
 132   0.0000       1.870289        50.8931 
 133   0.0000       1.902977        51.7826 
 134   0.0000       2.008185        54.6455 
 135   0.0000       2.169275        59.0290 
 136   0.0000       2.173539        59.1450 
 137   0.0000       2.186306        59.4924 
 138   0.0000       2.290333        62.3231 
 139   0.0000       2.331556        63.4449 
 140   0.0000       2.409959        65.5783 
 141   0.0000       2.508623        68.2631 
 142   0.0000       2.526426        68.7476 
 143   0.0000       2.627258        71.4913 
 144   0.0000       2.671679        72.7001 
 145   0.0000       2.717445        73.9454 
 146   0.0000       2.878096        78.3170 
 147   0.0000       2.941107        80.0316 
 148   0.0000       3.013435        81.9997 
 149   0.0000       3.097338        84.2828 
 150   0.0000       3.105187        84.4964 
 151   0.0000       3.286525        89.4309 
 152   0.0000       3.312443        90.1361 
 153   0.0000       3.370499        91.7159 
 154   0.0000       3.393298        92.3363 
 155   0.0000       3.434399        93.4548 
 156   0.0000       3.469367        94.4063 
 157   0.0000       3.513968        95.6199 
 158   0.0000       3.562321        96.9357 
 159   0.0000       3.569734        97.1374 
 160   0.0000       3.641581        99.0925 
 161   0.0000       3.646217        99.2186 
 162   0.0000       3.666108        99.7599 
 163   0.0000       3.811711       103.7219 
 164   0.0000       3.841612       104.5356 
 165   0.0000       3.850266       104.7711 
 166   0.0000       3.930387       106.9513 
 167   0.0000       4.030490       109.6752 
 168   0.0000       4.131604       112.4267 
 169   0.0000       4.168426       113.4286 
 170   0.0000       4.312201       117.3410 
 171   0.0000       4.321932       117.6058 
 172   0.0000       4.349708       118.3616 
 173   0.0000       4.418969       120.2462 
 174   0.0000       4.433012       120.6284 
 175   0.0000       4.554947       123.9464 
 176   0.0000       4.614470       125.5661 
 177   0.0000       4.684322       127.4669 
 178   0.0000       4.705739       128.0497 
 179   0.0000       4.896775       133.2480 
 180   0.0000       5.053562       137.5144 
 181   0.0000       5.178220       140.9065 
 182   0.0000       5.367296       146.0515 
 183   0.0000       5.400444       146.9535 
 184   0.0000       5.451962       148.3554 
 185   0.0000       5.560909       151.3200 
 186   0.0000       5.608367       152.6114 
 187   0.0000       5.654412       153.8644 
 188   0.0000       5.939409       161.6195 
 189   0.0000       6.025361       163.9584 
 190   0.0000       6.055257       164.7719 
 191   0.0000       6.239635       169.7891 
 192   0.0000       6.313957       171.8115 
 193   0.0000       6.319208       171.9544 
 194   0.0000       6.734263       183.2486 
 195   0.0000       6.833410       185.9465 
 196   0.0000       6.931822       188.6245 
 197   0.0000       7.066536       192.2902 
 198   0.0000       7.178180       195.3282 
 199   0.0000       7.330151       199.4636 
 200   0.0000       7.370636       200.5652 
 201   0.0000       7.406049       201.5288 
 202   0.0000       7.408270       201.5893 
 203   0.0000       7.490502       203.8269 
 204   0.0000       7.614797       207.2092 
 205   0.0000       7.801363       212.2859 
 206   0.0000       8.358113       227.4358 
 207   0.0000       8.426032       229.2840 
 208   0.0000       8.533805       232.2166 
 209   0.0000       8.744099       237.9390 
 210   0.0000       8.795884       239.3482 
 211   0.0000       9.031062       245.7477 
 212   0.0000       9.039724       245.9834 
 213   0.0000       9.157736       249.1947 
 214   0.0000       9.271884       252.3008 
 215   0.0000       9.346831       254.3402 
 216   0.0000       9.364268       254.8147 
 217   0.0000       9.687039       263.5977 
 218   0.0000       9.742632       265.1105 
 219   0.0000      10.149575       276.1840 
 220   0.0000      10.231501       278.4133 
 221   0.0000      10.399062       282.9729 
 222   0.0000      10.604171       288.5542 
 223   0.0000      10.657387       290.0022 
 224   0.0000      10.704672       291.2889 
 225   0.0000      11.153349       303.4981 
 226   0.0000      11.383390       309.7578 
 227   0.0000      11.412130       310.5398 
 228   0.0000      11.499350       312.9132 
 229   0.0000      11.704082       318.4843 
 230   0.0000      11.760615       320.0226 
 231   0.0000      11.860717       322.7465 
 232   0.0000      11.939384       324.8872 
 233   0.0000      11.991722       326.3113 
 234   0.0000      12.061107       328.1994 
 235   0.0000      12.067499       328.3733 
 236   0.0000      12.219778       332.5171 
 237   0.0000      12.336963       335.7058 
 238   0.0000      12.341542       335.8304 
 239   0.0000      12.591793       342.6401 
 240   0.0000      12.602488       342.9311 
 241   0.0000      12.609769       343.1292 
 242   0.0000      12.690105       345.3153 
 243   0.0000      12.731274       346.4356 
 244   0.0000      12.775403       347.6364 
 245   0.0000      12.936532       352.0209 
 246   0.0000      12.948727       352.3528 
 247   0.0000      13.478819       366.7773 
 248   0.0000      13.632065       370.9473 
 249   0.0000      13.764042       374.5386 
 250   0.0000      13.880663       377.7120 
 251   0.0000      13.922837       378.8596 
 252   0.0000      14.151440       385.0803 
 253   0.0000      14.210402       386.6847 
 254   0.0000      14.238221       387.4417 
 255   0.0000      14.708541       400.2398 
 256   0.0000      14.766267       401.8106 
 257   0.0000      15.439483       420.1297 
 258   0.0000      15.700234       427.2251 
 259   0.0000      16.442511       447.4235 
 260   0.0000      16.614244       452.0966 
 261   0.0000      16.737849       455.4600 
 262   0.0000      16.766377       456.2363 
 263   0.0000      16.793360       456.9706 
 264   0.0000      16.808780       457.3902 
 265   0.0000      16.911829       460.1943 
 266   0.0000      17.072760       464.5734 
 267   0.0000      17.254453       469.5175 
 268   0.0000      17.380764       472.9546 
 269   0.0000      17.395592       473.3581 
 270   0.0000      17.439518       474.5534 
 271   0.0000      17.536635       477.1961 
 272   0.0000      17.587732       478.5865 
 273   0.0000      17.633990       479.8453 
 274   0.0000      17.749375       482.9850 
 275   0.0000      17.892301       486.8743 
 276   0.0000      17.894607       486.9370 
 277   0.0000      17.934221       488.0150 
 278   0.0000      18.392102       500.4745 
 279   0.0000      18.462438       502.3885 
 280   0.0000      18.946778       515.5680 
 281   0.0000      19.260601       524.1076 
 282   0.0000      19.490409       530.3610 
 283   0.0000      19.637818       534.3722 
 284   0.0000      20.342601       553.5503 
 285   0.0000      20.505482       557.9825 
 286   0.0000      20.638814       561.6107 
 287   0.0000      20.806443       566.1721 
 288   0.0000      20.898283       568.6712 
 289   0.0000      21.173123       576.1500 
 290   0.0000      21.517038       585.5084 
 291   0.0000      22.055345       600.1565 
 292   0.0000      23.535421       640.4314 
 293   0.0000      23.546468       640.7320 
 294   0.0000      23.754671       646.3975 
 295   0.0000      23.856148       649.1588 
 296   0.0000      23.972486       652.3245 
 297   0.0000      24.010764       653.3661 
 298   0.0000      24.197218       658.4398 
 299   0.0000      26.166796       712.0347 
 300   0.0000      27.103485       737.5233 
 301   0.0000      27.144308       738.6342 
 302   0.0000      28.144588       765.8532 
 303   0.0000      31.206901       849.1829 
 304   0.0000      32.216141       876.6458 
 305   0.0000      34.059293       926.8005 
 306   0.0000      34.658753       943.1126 
 307   0.0000      41.247939      1122.4135 
 308   0.0000      41.382389      1126.0721 
 309   0.0000      66.868961      1819.5969 
 310   0.0000      67.036100      1824.1450 
 311   0.0000      67.114152      1826.2689 
 312   0.0000      68.103768      1853.1978 
 313   0.0000      69.395633      1888.3512 
 314   0.0000      90.954206      2474.9898 
 315   0.0000      90.998998      2476.2086 
 316   0.0000      91.172477      2480.9292 
 317   0.0000      91.190215      2481.4119 
 318   0.0000      93.581401      2546.4794 
 319   0.0000      93.679207      2549.1408 
 320   0.0000     144.165053      3922.9305 

                    ********************************
                    * MULLIKEN POPULATION ANALYSIS *
                    ********************************

--------------------------------------------
MULLIKEN ATOMIC CHARGES AND SPIN POPULATIONS
--------------------------------------------
   0 O :   -0.361493    0.000000
   1 H :    0.180748   -0.000000
   2 H :    0.180745   -0.000000
Sum of atomic charges         :    0.0000000
Sum of atomic spin populations:   -0.0000000

-----------------------------------------------------
MULLIKEN REDUCED ORBITAL CHARGES AND SPIN POPULATIONS
-----------------------------------------------------
CHARGE
  0 O s       :     3.748577  s :     3.748577
      pz      :     1.489548  p :     4.593729
      px      :     1.876470
      py      :     1.227711
      dz2     :     0.003829  d :     0.017952
      dxz     :     0.003749
      dyz     :     0.009697
      dx2y2   :     0.000676
      dxy     :     0.000000
      f0      :    -0.000021  f :     0.001135
      f+1     :     0.000024
      f-1     :     0.000083
      f+2     :     0.000561
      f-2     :     0.000000
      f+3     :     0.000224
      f-3     :     0.000264
      g0      :     0.000014  g :     0.000093
      g+1     :    -0.000000
      g-1     :     0.000003
      g+2     :     0.000039
      g-2     :     0.000000
      g+3     :    -0.000001
      g-3     :     0.000038
      g+4     :    -0.000001
      g-4     :     0.000000
      h0      :     0.000001  h :     0.000007
      h+1     :    -0.000000
      h-1     :     0.000003
      h+2     :     0.000000
      h-2     :    -0.000000
      h+3     :    -0.000000
      h-3     :     0.000004
      h+4     :     0.000000
      h-4     :    -0.000000
      h+5     :    -0.000000
      h-5     :     0.000000
  1 H s       :     0.698997  s :     0.698997
      pz      :     0.033301  p :     0.111570
      px      :     0.056253
      py      :     0.022016
      dz2     :     0.002780  d :     0.008105
      dxz     :     0.002241
      dyz     :     0.001426
      dx2y2   :     0.000575
      dxy     :     0.001083
      f0      :    -0.000088  f :     0.000501
      f+1     :     0.000146
      f-1     :     0.000791
      f+2     :    -0.000316
      f-2     :     0.000892
      f+3     :    -0.000895
      f-3     :    -0.000030
      g0      :     0.000007  g :     0.000079
      g+1     :    -0.000001
      g-1     :     0.000035
      g+2     :     0.000030
      g-2     :     0.000069
      g+3     :     0.000103
      g-3     :    -0.000036
      g+4     :    -0.000005
      g-4     :    -0.000123
  2 H s       :     0.698999  s :     0.698999
      pz      :     0.033301  p :     0.111571
      px      :     0.056253
      py      :     0.022017
      dz2     :     0.002780  d :     0.008105
      dxz     :     0.002241
      dyz     :     0.001426
      dx2y2   :     0.000575
      dxy     :     0.001083
      f0      :    -0.000088  f :     0.000501
      f+1     :     0.000146
      f-1     :     0.000791
      f+2     :    -0.000316
      f-2     :     0.000892
      f+3     :    -0.000895
      f-3     :    -0.000030
      g0      :     0.000007  g :     0.000079
      g+1     :    -0.000001
      g-1     :     0.000035
      g+2     :     0.000030
      g-2     :     0.000069
      g+3     :     0.000103
      g-3     :    -0.000036
      g+4     :    -0.000005
      g-4     :    -0.000123

SPIN
  0 O s       :     0.000000  s :     0.000000
      pz      :     0.000000  p :     0.000000
      px      :     0.000000
      py      :     0.000000
      dz2     :     0.000000  d :     0.000000
      dxz     :     0.000000
      dyz     :     0.000000
      dx2y2   :     0.000000
      dxy     :     0.000000
      f0      :    -0.000000  f :     0.000000
      f+1     :    -0.000000
      f-1     :     0.000000
      f+2     :    -0.000000
      f-2     :     0.000000
      f+3     :     0.000000
      f-3     :     0.000000
      g0      :    -0.000000  g :    -0.000000
      g+1     :    -0.000000
      g-1     :     0.000000
      g+2     :    -0.000000
      g-2     :     0.000000
      g+3     :     0.000000
      g-3     :     0.000000
      g+4     :    -0.000000
      g-4     :    -0.000000
      h0      :    -0.000000  h :    -0.000000
      h+1     :    -0.000000
      h-1     :     0.000000
      h+2     :    -0.000000
      h-2     :     0.000000
      h+3     :     0.000000
      h-3     :     0.000000
      h+4     :    -0.000000
      h-4     :     0.000000
      h+5     :     0.000000
      h-5     :    -0.000000
  1 H s       :    -0.000000  s :    -0.000000
      pz      :    -0.000000  p :    -0.000000
      px      :    -0.000000
      py      :    -0.000000
      dz2     :     0.000000  d :    -0.000000
      dxz     :     0.000000
      dyz     :    -0.000000
      dx2y2   :    -0.000000
      dxy     :    -0.000000
      f0      :    -0.000000  f :     0.000000
      f+1     :     0.000000
      f-1     :     0.000000
      f+2     :    -0.000000
      f-2     :    -0.000000
      f+3     :    -0.000000
      f-3     :     0.000000
      g0      :     0.000000  g :     0.000000
      g+1     :    -0.000000
      g-1     :    -0.000000
      g+2     :     0.000000
      g-2     :     0.000000
      g+3     :    -0.000000
      g-3     :    -0.000000
      g+4     :    -0.000000
      g-4     :    -0.000000
  2 H s       :    -0.000000  s :    -0.000000
      pz      :     0.000000  p :     0.000000
      px      :     0.000000
      py      :     0.000000
      dz2     :     0.000000  d :     0.000000
      dxz     :    -0.000000
      dyz     :    -0.000000
      dx2y2   :     0.000000
      dxy     :     0.000000
      f0      :    -0.000000  f :     0.000000
      f+1     :    -0.000000
      f-1     :    -0.000000
      f+2     :     0.000000
      f-2     :     0.000000
      f+3     :     0.000000
      f-3     :     0.000000
      g0      :    -0.000000  g :    -0.000000
      g+1     :     0.000000
      g-1     :    -0.000000
      g+2     :    -0.000000
      g-2     :    -0.000000
      g+3     :     0.000000
      g-3     :     0.000000
      g+4     :    -0.000000
      g-4     :    -0.000000


                     *******************************
                     * LOEWDIN POPULATION ANALYSIS *
                     *******************************

-------------------------------------------
LOEWDIN ATOMIC CHARGES AND SPIN POPULATIONS
-------------------------------------------
   0 O :    1.372949    0.000000
   1 H :   -0.686474   -0.000000
   2 H :   -0.686474    0.000000

----------------------------------------------------
LOEWDIN REDUCED ORBITAL CHARGES AND SPIN POPULATIONS
----------------------------------------------------
CHARGE
  0 O s       :     2.914163  s :     2.914163
      pz      :     1.238270  p :     3.634029
      px      :     1.301790
      py      :     1.093969
      dz2     :     0.002687  d :     0.064464
      dxz     :     0.002507
      dyz     :     0.043757
      dx2y2   :     0.015513
      dxy     :     0.000000
      f0      :     0.001110  f :     0.011421
      f+1     :     0.000080
      f-1     :     0.003552
      f+2     :     0.004394
      f-2     :    -0.000000
      f+3     :     0.000676
      f-3     :     0.001610
      g0      :     0.000164  g :     0.002062
      g+1     :     0.000008
      g-1     :     0.000264
      g+2     :     0.000619
      g-2     :     0.000000
      g+3     :     0.000399
      g-3     :     0.000538
      g+4     :     0.000070
      g-4     :    -0.000000
      h0      :     0.000132  h :     0.000912
      h+1     :     0.000009
      h-1     :     0.000106
      h+2     :     0.000228
      h-2     :     0.000000
      h+3     :     0.000153
      h-3     :     0.000041
      h+4     :     0.000106
      h-4     :     0.000000
      h+5     :     0.000065
      h-5     :     0.000073
  1 H s       :     0.612207  s :     0.612207
      pz      :     0.206454  p :     0.572215
      px      :     0.172421
      py      :     0.193341
      dz2     :     0.084770  d :     0.390559
      dxz     :     0.046901
      dyz     :     0.102271
      dx2y2   :     0.071856
      dxy     :     0.084761
      f0      :     0.005993  f :     0.102147
      f+1     :     0.001929
      f-1     :     0.033008
      f+2     :     0.011458
      f-2     :     0.023467
      f+3     :     0.014944
      f-3     :     0.011349
      g0      :     0.000735  g :     0.009346
      g+1     :     0.000007
      g-1     :     0.001053
      g+2     :     0.002241
      g-2     :     0.000428
      g+3     :     0.001449
      g-3     :     0.001136
      g+4     :     0.001448
      g-4     :     0.000849
  2 H s       :     0.612207  s :     0.612207
      pz      :     0.206454  p :     0.572215
      px      :     0.172421
      py      :     0.193341
      dz2     :     0.084770  d :     0.390559
      dxz     :     0.046901
      dyz     :     0.102271
      dx2y2   :     0.071856
      dxy     :     0.084761
      f0      :     0.005993  f :     0.102147
      f+1     :     0.001929
      f-1     :     0.033008
      f+2     :     0.011458
      f-2     :     0.023467
      f+3     :     0.014944
      f-3     :     0.011349
      g0      :     0.000735  g :     0.009346
      g+1     :     0.000007
      g-1     :     0.001053
      g+2     :     0.002241
      g-2     :     0.000428
      g+3     :     0.001449
      g-3     :     0.001136
      g+4     :     0.001448
      g-4     :     0.000849

SPIN
  0 O s       :     0.000000  s :     0.000000
      pz      :    -0.000000  p :    -0.000000
      px      :    -0.000000
      py      :     0.000000
      dz2     :     0.000000  d :     0.000000
      dxz     :     0.000000
      dyz     :     0.000000
      dx2y2   :     0.000000
      dxy     :    -0.000000
      f0      :     0.000000  f :     0.000000
      f+1     :    -0.000000
      f-1     :    -0.000000
      f+2     :     0.000000
      f-2     :     0.000000
      f+3     :    -0.000000
      f-3     :    -0.000000
      g0      :    -0.000000  g :    -0.000000
      g+1     :     0.000000
      g-1     :    -0.000000
      g+2     :     0.000000
      g-2     :    -0.000000
      g+3     :     0.000000
      g-3     :     0.000000
      g+4     :     0.000000
      g-4     :    -0.000000
      h0      :     0.000000  h :     0.000000
      h+1     :    -0.000000
      h-1     :     0.000000
      h+2     :    -0.000000
      h-2     :     0.000000
      h+3     :    -0.000000
      h-3     :     0.000000
      h+4     :    -0.000000
      h-4     :     0.000000
      h+5     :    -0.000000
      h-5     :     0.000000
  1 H s       :    -0.000000  s :    -0.000000
      pz      :     0.000000  p :     0.000000
      px      :     0.000000
      py      :    -0.000000
      dz2     :    -0.000000  d :    -0.000000
      dxz     :    -0.000000
      dyz     :    -0.000000
      dx2y2   :    -0.000000
      dxy     :    -0.000000
      f0      :     0.000000  f :    -0.000000
      f+1     :     0.000000
      f-1     :     0.000000
      f+2     :    -0.000000
      f-2     :    -0.000000
      f+3     :    -0.000000
      f-3     :     0.000000
      g0      :    -0.000000  g :    -0.000000
      g+1     :     0.000000
      g-1     :    -0.000000
      g+2     :    -0.000000
      g-2     :    -0.000000
      g+3     :    -0.000000
      g-3     :    -0.000000
      g+4     :     0.000000
      g-4     :     0.000000
  2 H s       :     0.000000  s :     0.000000
      pz      :     0.000000  p :    -0.000000
      px      :    -0.000000
      py      :    -0.000000
      dz2     :    -0.000000  d :     0.000000
      dxz     :     0.000000
      dyz     :     0.000000
      dx2y2   :     0.000000
      dxy     :     0.000000
      f0      :    -0.000000  f :    -0.000000
      f+1     :    -0.000000
      f-1     :    -0.000000
      f+2     :     0.000000
      f-2     :    -0.000000
      f+3     :    -0.000000
      f-3     :    -0.000000
      g0      :    -0.000000  g :     0.000000
      g+1     :    -0.000000
      g-1     :    -0.000000
      g+2     :     0.000000
      g-2     :    -0.000000
      g+3     :    -0.000000
      g-3     :    -0.000000
      g+4     :     0.000000
      g-4     :     0.000000


                      *****************************
                      * MAYER POPULATION ANALYSIS *
                      *****************************

  NA   - Mulliken gross atomic population
  ZA   - Total nuclear charge
  QA   - Mulliken gross atomic charge
  VA   - Mayer's total valence
  BVA  - Mayer's bonded valence
  FA   - Mayer's free valence

  ATOM       NA         ZA         QA         VA         BVA        FA
  0 O      8.3615     8.0000    -0.3615     2.1179     2.1179     0.0000
  1 H      0.8193     1.0000     0.1807     1.0833     1.0833    -0.0000
  2 H      0.8193     1.0000     0.1807     1.0833     1.0833    -0.0000

  Mayer bond orders larger than 0.1
B(  0-O ,  1-H ) :   1.0590 B(  0-O ,  2-H ) :   1.0590 

-------
TIMINGS
-------

Total SCF time: 0 days 0 hours 4 min 35 sec 

Total time                  ....     275.246 sec
Sum of individual times     ....     273.757 sec  ( 99.5%)

Fock matrix formation       ....     271.545 sec  ( 98.7%)
  XC integration            ....       8.462 sec  (  3.1% of F)
    Basis function eval.    ....       0.562 sec  (  6.6% of XC)
    Density eval.           ....       1.689 sec  ( 20.0% of XC)
    XC-Functional eval.     ....       0.123 sec  (  1.4% of XC)
    XC-Potential eval.      ....       5.478 sec  ( 64.7% of XC)
Diagonalization             ....       0.756 sec  (  0.3%)
Density matrix formation    ....       0.012 sec  (  0.0%)
Population analysis         ....       0.128 sec  (  0.0%)
Initial guess               ....       0.489 sec  (  0.2%)
Orbital Transformation      ....       0.000 sec  (  0.0%)
Orbital Orthonormalization  ....       0.000 sec  (  0.0%)
DIIS solution               ....       0.469 sec  (  0.2%)
Grid generation             ....       0.358 sec  (  0.1%)

-------------------------   --------------------
FINAL SINGLE POINT ENERGY       -76.388511658959
-------------------------   --------------------


                            ***************************************
                            *     ORCA property calculations      *
                            ***************************************

                                    ---------------------
                                    Active property flags
                                    ---------------------
   (+) Dipole Moment
   (+) Polarizability


------------------------------------------------------------------------------
                       ORCA ELECTRIC PROPERTIES CALCULATION
------------------------------------------------------------------------------

Dipole Moment Calculation                       ... on
Quadrupole Moment Calculation                   ... off
Polarizability Calculation                      ... Analytic (CP-SCF)
GBWName                                         ... h2o_pbe.gbw
Electron density file                           ... h2o_pbe.scfp.tmp
The origin for moment calculation is the CENTER OF MASS  = ( 0.000000,  0.000000  0.097636)

-------------
DIPOLE MOMENT
-------------
                                X             Y             Z
Electronic contribution:      0.00000      -0.00000       0.26997
Nuclear contribution   :      0.00000       0.00000      -0.97636
                        -----------------------------------------
Total Dipole Moment    :      0.00000      -0.00000      -0.70639
                        -----------------------------------------
Magnitude (a.u.)       :      0.70639
Magnitude (Debye)      :      1.79550



--------------------
Rotational spectrum 
--------------------
 
Rotational constants in cm-1:    27.372330    14.584286     9.514730 
Rotational constants in MHz : 820601.811463 437225.885101 285244.437146 

 Dipole components along the rotational axes: 
x,y,z [a.u.] :    -0.000000    -0.706389     0.000000 
x,y,z [Debye]:    -0.000000    -1.795499     0.000000 

 
Transforming and storing MO dipole integrals   ... done

                ... starting polarizability calculation

Opening the Dipole integral file               ... (h2o_pbe.dmo.tmp) done
Reading Dipole-MO integrals                    ... done
Solving CP-SCF equations                       ... 

           ************************************************************
           *        Program running with 4 parallel MPI-processes     *
           *              working on a common directory               *
           ************************************************************

------------------------------------------------------------------------------
                           ORCA CP-SCF CALCULATION
------------------------------------------------------------------------------

Input orbitals are from        ... h2o_pbe.gbw
Input Perturbation             ... h2o_pbe.cpv.tmp
Wavefunction output            ... h2o_pbe.cpu.tmp
Perturbation mode              ... Real perturbation (singlet)
Solver                         ... POPLE
Max. number of iterations      ... 200
Convergence tolerance          ... 1.000e-06
Integral handling              ... Direct
Number of perturbations        ... 3
Number of operators            ... 2
Orbital ranges used for CP-SCF:
 Operator 0:  Orbitals   0...  4  to   5...320
 Operator 1:  Orbitals   0...  4  to   5...320
DFT calculation                         ... on
Exchange functional (SCF)               ... PBE
Exchange functional (CP-SCF)            ... PBE
   PBE kappa parameter  XKappa (SCF)    ...  0.804000
   PBE kappa parameter  XKappa (CP-SCF) ...  0.804000
   PBE mue parameter   XMuePBE (SCF)    ...  0.219520
   PBE mue parameter   XMuePBE (CP-SCF) ...  0.219520
Correlation functional (SCF)            ... PBE
Correlation functional (CP-SCF)         ... PBE
   PBE beta parameter CBetaPBE (SCF)    ...  0.066725
   PBE beta parameter CBetaPBE (CP-SCF) ...  0.066725
 LDA part of GGA corr.  LDAOpt (SCF)    ... PW91-LDA
 LDA part of GGA corr.  LDAOpt (CP-SCF) ... PW91-LDA
Variables per vector in CP-SCF ... 3160
Number of vectors sought       ... 3
Recalculating density on grid  ... done
Calculating the xc-kernel      ... done
     CP-SCF ITERATION   0: 
     CP-SCF ITERATION   1:      0.072932106013
     CP-SCF ITERATION   2:      0.001068041838
     CP-SCF ITERATION   3:      0.000003732083
     CP-SCF ITERATION   4:      0.000000092714
done
Reading CP-SCF coefficients                    ... done
Doing the polarizability tensor   ... done
Cleaning up                                    ... done

-------------------------
THE POLARIZABILITY TENSOR
-------------------------

The raw cartesian tensor (atomic units):
   10.61119      0.00000     -0.00000  
    0.00000     10.59807     -0.00000  
   -0.00000     -0.00000     10.53632  
diagonalized tensor: 
   10.53632     10.59807     10.61119  

    0.00000     -0.00000     -1.00000  
    0.00000      1.00000     -0.00000  
    1.00000     -0.00000      0.00000  

Isotropic polarizability :  10.58186


Timings for individual modules:

Sum of individual times         ...      469.092 sec (=   7.818 min)
GTO integral calculation        ...        1.291 sec (=   0.022 min)   0.3 %
SCF iterations                  ...      275.567 sec (=   4.593 min)  58.7 %
Solution of CP-SCF eqns.        ...      192.233 sec (=   3.204 min)  41.0 %
                             ****ORCA TERMINATED NORMALLY****
TOTAL RUN TIME: 0 days 0 hours 7 minutes 49 seconds 859 msec
