
                                 *****************
                                 * O   R   C   A *
                                 *****************

           --- An Ab Initio, DFT and Semiempirical electronic structure package ---

                  #######################################################
                  #                        -***-                        #
                  #          Department of theory and spectroscopy      #
                  #               Directorship: Frank Neese             #
                  #        Max Planck Institute fuer Kohlenforschung    #
                  #                Kaiser Wilhelm Platz 1               #
                  #                 D-45470 Muelheim/Ruhr               #
                  #                      Germany                        #
                  #                                                     #
                  #                  All rights reserved                #
                  #                        -***-                        #
                  #######################################################


                         Program Version 4.1.2  - RELEASE  -


 With contributions from (in alphabetic order):
   Daniel Aravena         : Magnetic Properties
   Michael Atanasov       : Ab Initio Ligand Field Theory
   Alexander A. Auer      : GIAO ZORA
   Ute Becker             : Parallelization
   Giovanni Bistoni       : ED, Open-shell LED
   Martin Brehm           : Molecular dynamics
   Dmytro Bykov           : SCF Hessian
   Vijay G. Chilkuri      : MRCI spin determinant printing
   Dipayan Datta          : RHF DLPNO-CCSD density
   Achintya Kumar Dutta   : EOM-CC, STEOM-CC
   Dmitry Ganyushin       : Spin-Orbit,Spin-Spin,Magnetic field MRCI
   Miquel Garcia          : C-PCM Hessian
   Yang Guo               : DLPNO-NEVPT2, CIM, IAO-localization
   Andreas Hansen         : Spin unrestricted coupled pair/coupled cluster methods
   Benjamin Helmich-Paris : CASSCF linear response (MC-RPA)
   Lee Huntington         : MR-EOM, pCC
   Robert Izsak           : Overlap fitted RIJCOSX, COSX-SCS-MP3, EOM
   Christian Kollmar      : KDIIS, OOCD, Brueckner-CCSD(T), CCSD density
   Simone Kossmann        : Meta GGA functionals, TD-DFT gradient, OOMP2, MP2 Hessian
   Martin Krupicka        : AUTO-CI
   Lucas Lang             : DCDCAS
   Dagmar Lenk            : GEPOL surface, SMD
   Dimitrios Liakos       : Extrapolation schemes; parallel MDCI
   Dimitrios Manganas     : ROCIS; embedding schemes
   Dimitrios Pantazis     : SARC Basis sets
   Taras Petrenko         : DFT Hessian,TD-DFT gradient, ASA, ECA, R-Raman, ABS, FL, XAS/XES, NRVS
   Peter Pinski           : DLPNO-MP2, DLPNO-MP2 Gradient
   Christoph Reimann      : Effective Core Potentials
   Marius Retegan         : Local ZFS, SOC
   Christoph Riplinger    : Optimizer, TS searches, QM/MM, DLPNO-CCSD(T), (RO)-DLPNO pert. Triples
   Tobias Risthaus        : Range-separated hybrids, TD-DFT gradient, RPA, STAB
   Michael Roemelt        : Restricted open shell CIS
   Masaaki Saitow         : Open-shell DLPNO
   Barbara Sandhoefer     : DKH picture change effects
   Avijit Sen             : IP-ROCIS
   Kantharuban Sivalingam : CASSCF convergence, NEVPT2, FIC-MRCI
   Bernardo de Souza      : ESD, SOC TD-DFT
   Georgi Stoychev        : AutoAux, RI-MP2 NMR
   Willem Van den Heuvel  : Paramagnetic NMR
   Boris Wezisla          : Elementary symmetry handling
   Frank Wennmohs         : Technical directorship


 We gratefully acknowledge several colleagues who have allowed us to
 interface, adapt or use parts of their codes:
   Stefan Grimme, W. Hujo, H. Kruse,             : VdW corrections, initial TS optimization,
                  C. Bannwarth                     DFT functionals, gCP, sTDA/sTD-DF
   Ed Valeev                                     : LibInt (2-el integral package), F12 methods
   Garnet Chan, S. Sharma, J. Yang, R. Olivares  : DMRG
   Ulf Ekstrom                                   : XCFun DFT Library
   Mihaly Kallay                                 : mrcc  (arbitrary order and MRCC methods)
   Andreas Klamt, Michael Diedenhofen            : otool_cosmo (COSMO solvation model)
   Jiri Pittner, Ondrej Demel                    : Mk-CCSD
   Frank Weinhold                                : gennbo (NPA and NBO analysis)
   Christopher J. Cramer and Donald G. Truhlar   : smd solvation model
   Lars Goerigk                                  : TD-DFT with DH, B97 family of functionals
   V. Asgeirsson, H. Jonsson                     : NEB implementation
   FAccTs GmbH                                   : IRC, NEB, NEB-TS, Multilevel


 Your calculation uses the libint2 library for the computation of 2-el integrals
 For citations please refer to: http://libint.valeyev.net

 This ORCA versions uses:
   CBLAS   interface :  Fast vector & matrix operations
   LAPACKE interface :  Fast linear algebra routines
   SCALAPACK package :  Parallel linear algebra routines


----- Orbital basis set information -----
Your calculation utilizes the basis: aug-pc-4
   H, C-F              : F. Jensen, J. Chem. Phys. 115, 9113 (2001).
                         F. Jensen, J. Chem. Phys. 116, 7372 (2002).
                         F. Jensen, J. Chem. Phys. 117, 9234 (2002).
   Si-Cl               : F. Jensen, T. Helgaker, J. Chem. Phys. 121, 3463 (2004).
   He-B, Ne-Mg, Al, Ar : F. Jensen, J. Phys. Chem. A 111, 11198 (2007).
   K, Ca, Ga-Kr        : F. Jensen, J. Chem. Phys. 136, 094110 (2012).
   Sc-Zn               : F. Jensen, J. Chem. Phys. 138, 014107 (2013).

================================================================================
                                        WARNINGS
                       Please study these warnings very carefully!
================================================================================


INFO   : the flag for use of LIBINT has been found!

================================================================================
                                       INPUT FILE
================================================================================
NAME = h_pbe.inp
|  1> !uks pbe nori aug-pc-4 grid5 nofinalgrid verytightscf
|  2> 
|  3> %maxcore 1500
|  4> 
|  5> %pal nprocs 4 end
|  6> 
|  7> %scf
|  8> 	maxiter 200
|  9> end
| 10> %elprop
| 11> 	dipole true
| 12> 	 polar 1
| 13> 	 maxiter 200
| 14> end
| 15> 
| 16> * xyz 0 2
| 17> H 0.0 0.0 0.0
| 18> *
| 19> 
| 20>                          ****END OF INPUT****
================================================================================

                       ****************************
                       * Single Point Calculation *
                       ****************************

---------------------------------
CARTESIAN COORDINATES (ANGSTROEM)
---------------------------------
  H      0.000000    0.000000    0.000000

----------------------------
CARTESIAN COORDINATES (A.U.)
----------------------------
  NO LB      ZA    FRAG     MASS         X           Y           Z
   0 H     1.0000    0     1.008    0.000000    0.000000    0.000000

--------------------------------
INTERNAL COORDINATES (ANGSTROEM)
--------------------------------
 H      0   0   0     0.000000000000     0.00000000     0.00000000

---------------------------
INTERNAL COORDINATES (A.U.)
---------------------------
 H      0   0   0     0.000000000000     0.00000000     0.00000000

---------------------
BASIS SET INFORMATION
---------------------
There are 1 groups of distinct atoms

 Group   1 Type H   : 12s7p4d3f2g contracted to 8s7p4d3f2g pattern {51111111/1111111/1111/111/11}

Atom   0H    basis set group =>   1


           ************************************************************
           *        Program running with 4 parallel MPI-processes     *
           *              working on a common directory               *
           ************************************************************
------------------------------------------------------------------------------
                           ORCA GTO INTEGRAL CALCULATION
------------------------------------------------------------------------------

                         BASIS SET STATISTICS AND STARTUP INFO

 # of primitive gaussian shells          ...   28
 # of primitive gaussian functions       ...   92
 # of contracted shells                  ...   24
 # of contracted basis functions         ...   88
 Highest angular momentum                ...    4
 Maximum contraction depth               ...    5
 Integral package used                   ... LIBINT
 Integral threshhold            Thresh   ...  1.000e-12
 Primitive cut-off              TCut     ...  1.000e-14


------------------------------ INTEGRAL EVALUATION ----------------------------


 * One electron integrals 
 Pre-screening matrix                    ... done
 Shell pair data                         ... done (   0.000 sec)



           ************************************************************
           *        Program running with 4 parallel MPI-processes     *
           *              working on a common directory               *
           ************************************************************
-------------------------------------------------------------------------------
                                 ORCA SCF
-------------------------------------------------------------------------------

------------
SCF SETTINGS
------------
Hamiltonian:
 Density Functional     Method          .... DFT(GTOs)
 Exchange Functional    Exchange        .... PBE
   PBE kappa parameter   XKappa         ....  0.804000
   PBE mue parameter    XMuePBE         ....  0.219520
 Correlation Functional Correlation     .... PBE
   PBE beta parameter  CBetaPBE         ....  0.066725
 LDA part of GGA corr.  LDAOpt          .... PW91-LDA
 Gradients option       PostSCFGGA      .... off
   Density functional embedding theory  .... OFF
   NL short-range parameter             ....  6.400000


General Settings:
 Integral files         IntName         .... h_pbe
 Hartree-Fock type      HFTyp           .... UHF
 Total Charge           Charge          ....    0
 Multiplicity           Mult            ....    2
 Number of Electrons    NEL             ....    1
 Basis Dimension        Dim             ....   88
 Nuclear Repulsion      ENuc            ....      0.0000000000 Eh

Convergence Acceleration:
 DIIS                   CNVDIIS         .... on
   Start iteration      DIISMaxIt       ....    12
   Startup error        DIISStart       ....  0.200000
   # of expansion vecs  DIISMaxEq       ....     5
   Bias factor          DIISBfac        ....   1.050
   Max. coefficient     DIISMaxC        ....  10.000
 Newton-Raphson         CNVNR           .... off
 SOSCF                  CNVSOSCF        .... off
 Level Shifting         CNVShift        .... on
   Level shift para.    LevelShift      ....    0.2500
   Turn off err/grad.   ShiftErr        ....    0.0010
 Zerner damping         CNVZerner       .... off
 Static damping         CNVDamp         .... on
   Fraction old density DampFac         ....    0.7000
   Max. Damping (<1)    DampMax         ....    0.9800
   Min. Damping (>=0)   DampMin         ....    0.0000
   Turn off err/grad.   DampErr         ....    0.1000
 Fernandez-Rico         CNVRico         .... off

SCF Procedure:
 Maximum # iterations   MaxIter         ....   200
 SCF integral mode      SCFMode         .... Direct
   Integral package                     .... LIBINT
 Reset frequency        DirectResetFreq ....    20
 Integral Threshold     Thresh          ....  1.000e-12 Eh
 Primitive CutOff       TCut            ....  1.000e-14 Eh

Convergence Tolerance:
 Convergence Check Mode ConvCheckMode   .... Total+1el-Energy
 Convergence forced     ConvForced      .... 0
 Energy Change          TolE            ....  1.000e-09 Eh
 1-El. energy change                    ....  1.000e-06 Eh
 DIIS Error             TolErr          ....  1.000e-08


Diagonalization of the overlap matrix:
Smallest eigenvalue                        ... 2.833e-03
Time for diagonalization                   ...    0.041 sec
Threshold for overlap eigenvalues          ... 1.000e-08
Number of eigenvalues below threshold      ... 0
Time for construction of square roots      ...    0.027 sec
Total time needed                          ...    0.068 sec

-------------------
DFT GRID GENERATION
-------------------

General Integration Accuracy     IntAcc      ...  5.010
Radial Grid Type                 RadialGrid  ... Gauss-Chebyshev
Angular Grid (max. acc.)         AngularGrid ... Lebedev-434
Angular grid pruning method      GridPruning ... 3 (G Style)
Weight generation scheme         WeightScheme... Becke
Basis function cutoff            BFCut       ...    1.0000e-12
Integration weight cutoff        WCut        ...    1.0000e-14
Grids for H and He will be reduced by one unit

# of grid points (after initial pruning)     ...   6692 (   0.0 sec)
# of grid points (after weights+screening)   ...   6692 (   0.1 sec)
Grid point division into batches done        ...    0.0 sec
Reduced shell lists constructed in    0.0 sec

Total number of grid points                  ...     6692
Total number of batches                      ...      105
Average number of points per batch           ...       63
Average number of grid points per atom       ...     6692
Average number of shells per batch           ...    14.29 (59.52%)
Average number of basis functions per batch  ...    52.71 (59.90%)
Average number of large shells per batch     ...    11.39 (79.75%)
Average number of large basis fcns per batch ...    41.39 (78.52%)
Maximum spatial batch extension              ...  19.48, 15.01, 13.53 au
Average spatial batch extension              ...   2.69,  2.51,  2.35 au

Time for grid setup =    0.140 sec

------------------------------
INITIAL GUESS: MODEL POTENTIAL
------------------------------
Loading Hartree-Fock densities                     ... done
Calculating cut-offs                               ... done
Setting up the integral package                    ... done
Initializing the effective Hamiltonian             ... done
Starting the Coulomb interaction                   ... done (   0.0 sec)
Reading the grid                                   ... done
Mapping shells                                     ... done
Starting the XC term evaluation                    ... done (   0.0 sec)
  promolecular density results
     # of electrons  =      0.999510424
     EX              =     -0.254114715
     EC              =     -0.014928917
     EX+EC           =     -0.269043632
Transforming the Hamiltonian                       ... done (   0.0 sec)
Diagonalizing the Hamiltonian                      ... done (   0.0 sec)
Back transforming the eigenvectors                 ... done (   0.0 sec)
Now organizing SCF variables                       ... done
                      ------------------
                      INITIAL GUESS DONE (   0.3 sec)
                      ------------------
--------------
SCF ITERATIONS
--------------
ITER       Energy         Delta-E        Max-DP      RMS-DP      [F,P]     Damp
               ***  Starting incremental Fock matrix formation  ***
  0     -0.4978728709   0.000000000000 0.00828535  0.00009096  0.0357125 0.7000
  1     -0.4985062404  -0.000633369517 0.00731239  0.00008868  0.0269517 0.7000
                               ***Turning on DIIS***
  2     -0.4989873333  -0.000481092895 0.01633448  0.00021929  0.0187191 0.0000
  3     -0.4999835079  -0.000996174525 0.00365404  0.00004161  0.0021457 0.0000
  4     -0.4999897491  -0.000006241291 0.00120860  0.00001508  0.0005524 0.0000
  5     -0.4999904055  -0.000000656309 0.00001706  0.00000021  0.0000225 0.0000
                 **** Energy Check signals convergence ****

               *****************************************************
               *                     SUCCESS                       *
               *           SCF CONVERGED AFTER   6 CYCLES          *
               *****************************************************


----------------
TOTAL SCF ENERGY
----------------

Total Energy       :           -0.49999041 Eh             -13.60543 eV

Components:
Nuclear Repulsion  :            0.00000000 Eh               0.00000 eV
Electronic Energy  :           -0.49999041 Eh             -13.60543 eV
One Electron Energy:           -0.49935132 Eh             -13.58804 eV
Two Electron Energy:           -0.00063908 Eh              -0.01739 eV

Virial components:
Potential Energy   :           -0.99480640 Eh             -27.07006 eV
Kinetic Energy     :            0.49481599 Eh              13.46463 eV
Virial Ratio       :            2.01045724


DFT components:
N(Alpha)           :        1.000000000059 electrons
N(Beta)            :        0.000000000033 electrons
N(Total)           :        1.000000000092 electrons
E(X)               :       -0.301759116803 Eh       
E(C)               :       -0.005707252448 Eh       
E(XC)              :       -0.307466369250 Eh       
DFET-embed. en.    :        0.000000000000 Eh       

---------------
SCF CONVERGENCE
---------------

  Last Energy change         ...   -7.1436e-10  Tolerance :   1.0000e-09
  Last MAX-Density change    ...    4.7445e-07  Tolerance :   1.0000e-08
  Last RMS-Density change    ...    8.4262e-09  Tolerance :   1.0000e-09
  Last DIIS Error            ...    4.7064e-07  Tolerance :   1.0000e-08

             **** THE GBW FILE WAS UPDATED (h_pbe.gbw) ****
             **** DENSITY FILE WAS UPDATED (h_pbe.scfp.tmp) ****
             **** ENERGY FILE WAS UPDATED (h_pbe.en.tmp) ****
----------------------
UHF SPIN CONTAMINATION
----------------------

Warning: in a DFT calculation there is little theoretical justification to 
         calculate <S**2> as in Hartree-Fock theory. We will do it anyways
         but you should keep in mind that the values have only limited relevance

Expectation value of <S**2>     :     0.750000
Ideal value S*(S+1) for S=0.5   :     0.750000
Deviation                       :     0.000000

----------------
ORBITAL ENERGIES
----------------
                 SPIN UP ORBITALS
  NO   OCC          E(Eh)            E(eV) 
   0   1.0000      -0.279087        -7.5944 
   1   0.0000       0.006175         0.1680 
   2   0.0000       0.041542         1.1304 
   3   0.0000       0.041542         1.1304 
   4   0.0000       0.041542         1.1304 
   5   0.0000       0.101236         2.7548 
   6   0.0000       0.166490         4.5304 
   7   0.0000       0.166490         4.5304 
   8   0.0000       0.166490         4.5304 
   9   0.0000       0.166490         4.5304 
  10   0.0000       0.166490         4.5304 
  11   0.0000       0.290438         7.9032 
  12   0.0000       0.290438         7.9032 
  13   0.0000       0.290438         7.9032 
  14   0.0000       0.319978         8.7070 
  15   0.0000       0.319978         8.7070 
  16   0.0000       0.319978         8.7070 
  17   0.0000       0.319978         8.7070 
  18   0.0000       0.319978         8.7070 
  19   0.0000       0.319978         8.7070 
  20   0.0000       0.319978         8.7070 
  21   0.0000       0.403175        10.9709 
  22   0.0000       0.503443        13.6994 
  23   0.0000       0.503443        13.6994 
  24   0.0000       0.503443        13.6994 
  25   0.0000       0.503443        13.6994 
  26   0.0000       0.503443        13.6994 
  27   0.0000       0.503443        13.6994 
  28   0.0000       0.503443        13.6994 
  29   0.0000       0.503443        13.6994 
  30   0.0000       0.503443        13.6994 
  31   0.0000       0.854240        23.2450 
  32   0.0000       0.854240        23.2450 
  33   0.0000       0.854240        23.2450 
  34   0.0000       0.854240        23.2450 
  35   0.0000       0.854240        23.2450 
  36   0.0000       1.059916        28.8418 
  37   0.0000       1.059916        28.8418 
  38   0.0000       1.059916        28.8418 
  39   0.0000       1.234959        33.6050 
  40   0.0000       2.728878        74.2565 
  41   0.0000       2.728878        74.2565 
  42   0.0000       2.728878        74.2565 
  43   0.0000       2.728878        74.2565 
  44   0.0000       2.728878        74.2565 
  45   0.0000       3.076419        83.7136 
  46   0.0000       3.076419        83.7136 
  47   0.0000       3.076419        83.7136 
  48   0.0000       3.461870        94.2023 
  49   0.0000       3.461870        94.2023 
  50   0.0000       3.461870        94.2023 
  51   0.0000       3.461870        94.2023 
  52   0.0000       3.461870        94.2023 
  53   0.0000       3.461870        94.2023 
  54   0.0000       3.461870        94.2023 
  55   0.0000       3.483141        94.7811 
  56   0.0000       7.991373       217.4563 
  57   0.0000       7.991373       217.4563 
  58   0.0000       7.991373       217.4563 
  59   0.0000       8.534649       232.2396 
  60   0.0000       8.534649       232.2396 
  61   0.0000       8.534649       232.2396 
  62   0.0000       8.534649       232.2396 
  63   0.0000       8.534649       232.2396 
  64   0.0000       9.875965       268.7387 
  65   0.0000      12.143102       330.4306 
  66   0.0000      12.143102       330.4306 
  67   0.0000      12.143102       330.4306 
  68   0.0000      12.143102       330.4306 
  69   0.0000      12.143102       330.4306 
  70   0.0000      12.143102       330.4306 
  71   0.0000      12.143102       330.4306 
  72   0.0000      16.673842       453.7183 
  73   0.0000      16.673842       453.7183 
  74   0.0000      16.673842       453.7183 
  75   0.0000      16.673842       453.7183 
  76   0.0000      16.673842       453.7183 
  77   0.0000      16.673842       453.7183 
  78   0.0000      16.673842       453.7183 
  79   0.0000      16.673842       453.7183 
  80   0.0000      16.673842       453.7183 
  81   0.0000      22.838819       621.4759 
  82   0.0000      22.838819       621.4759 
  83   0.0000      22.838819       621.4759 
  84   0.0000      38.008923      1034.2754 
  85   0.0000      90.510147      2462.9063 
  86   0.0000      90.510147      2462.9063 
  87   0.0000      90.510147      2462.9063 

                 SPIN DOWN ORBITALS
  NO   OCC          E(Eh)            E(eV) 
   0   0.0000       0.035521         0.9666 
   1   0.0000       0.211148         5.7456 
   2   0.0000       0.211148         5.7456 
   3   0.0000       0.211148         5.7456 
   4   0.0000       0.227800         6.1987 
   5   0.0000       0.505973        13.7682 
   6   0.0000       0.505973        13.7682 
   7   0.0000       0.505973        13.7682 
   8   0.0000       0.505973        13.7682 
   9   0.0000       0.505974        13.7682 
  10   0.0000       1.102589        30.0030 
  11   0.0000       1.102589        30.0030 
  12   0.0000       1.102589        30.0030 
  13   0.0000       1.102590        30.0030 
  14   0.0000       1.102590        30.0030 
  15   0.0000       1.102590        30.0030 
  16   0.0000       1.102591        30.0030 
  17   0.0000       1.102591        30.0030 
  18   0.0000       1.102592        30.0030 
  19   0.0000       1.141236        31.0546 
  20   0.0000       1.141236        31.0546 
  21   0.0000       1.141237        31.0546 
  22   0.0000       1.141238        31.0547 
  23   0.0000       1.141238        31.0547 
  24   0.0000       1.141240        31.0547 
  25   0.0000       1.141240        31.0547 
  26   0.0000       3.023118        82.2632 
  27   0.0000       5.967726       162.3901 
  28   0.0000       5.967735       162.3903 
  29   0.0000       5.967747       162.3906 
  30   0.0000      22.654780       616.4679 
  31   0.0000      22.654828       616.4692 
  32   0.0000      22.654891       616.4709 
  33   0.0000      22.654913       616.4715 
  34   0.0000      22.654951       616.4726 
  35   0.0000      39.495377      1074.7238 
  36   0.0000      70.130446      1908.3464 
  37   0.0000      70.130913      1908.3592 
  38   0.0000      70.131089      1908.3639 
  39   0.0000     160.247775      4360.5636 
  40   0.0000     160.248277      4360.5773 
  41   0.0000     160.249098      4360.5996 
  42   0.0000     160.250173      4360.6289 
  43   0.0000     160.251453      4360.6637 
  44   0.0000     160.252299      4360.6868 
  45   0.0000     160.252509      4360.6925 
  46   0.0000     179.591315      4886.9281 
  47   0.0000     179.592798      4886.9685 
  48   0.0000     179.594707      4887.0204 
  49   0.0000     179.595538      4887.0430 
  50   0.0000     179.596448      4887.0678 
  51   0.0000     200.390274      5452.8966 
  52   0.0000     265.539808      7225.7055 
  53   0.0000     265.542549      7225.7801 
  54   0.0000     265.548281      7225.9361 
  55   0.0000     463.960730     12625.0133 
  56   0.0000     476.864395     12976.1399 
  57   0.0000     476.886073     12976.7298 
  58   0.0000     476.888121     12976.7855 
  59   0.0000     476.896073     12977.0019 
  60   0.0000     476.902902     12977.1877 
  61   0.0000     476.912509     12977.4491 
  62   0.0000     476.914260     12977.4968 
  63   0.0000     476.919617     12977.6425 
  64   0.0000     476.921580     12977.6960 
  65   0.0000     478.336279     13016.1919 
  66   0.0000     478.341339     13016.3296 
  67   0.0000     478.348777     13016.5320 
  68   0.0000     478.352220     13016.6257 
  69   0.0000     478.359277     13016.8177 
  70   0.0000     478.368658     13017.0730 
  71   0.0000     478.375949     13017.2714 
  72   0.0000     504.195529     13719.8579 
  73   0.0000     504.208025     13720.1979 
  74   0.0000     504.217396     13720.4529 
  75   0.0000     504.222907     13720.6028 
  76   0.0000     504.230967     13720.8222 
  77   0.0000     520.967202     14176.2383 
  78   0.0000     520.983750     14176.6886 
  79   0.0000     520.995223     14177.0008 
  80   0.0000     690.563519     18791.1887 
  81   0.0000     726.297311     19763.5546 
  82   0.0000     726.322771     19764.2474 
  83   0.0000     726.387655     19766.0130 
  84   0.0000     830.248109     22592.1996 
  85   0.0000     887.507823     24150.3157 
  86   0.0000     887.629842     24153.6359 
  87   0.0000     887.750391     24156.9163 

                    ********************************
                    * MULLIKEN POPULATION ANALYSIS *
                    ********************************

--------------------------------------------
MULLIKEN ATOMIC CHARGES AND SPIN POPULATIONS
--------------------------------------------
   0 H :   -0.000000    1.000000
Sum of atomic charges         :   -0.0000000
Sum of atomic spin populations:    1.0000000

-----------------------------------------------------
MULLIKEN REDUCED ORBITAL CHARGES AND SPIN POPULATIONS
-----------------------------------------------------
CHARGE
  0 H s       :     1.000000  s :     1.000000
      pz      :     0.000000  p :     0.000000
      px      :     0.000000
      py      :     0.000000
      dz2     :     0.000000  d :     0.000000
      dxz     :     0.000000
      dyz     :     0.000000
      dx2y2   :     0.000000
      dxy     :     0.000000
      f0      :     0.000000  f :     0.000000
      f+1     :     0.000000
      f-1     :     0.000000
      f+2     :     0.000000
      f-2     :     0.000000
      f+3     :     0.000000
      f-3     :     0.000000
      g0      :     0.000000  g :     0.000000
      g+1     :     0.000000
      g-1     :     0.000000
      g+2     :     0.000000
      g-2     :     0.000000
      g+3     :     0.000000
      g-3     :     0.000000
      g+4     :     0.000000
      g-4     :     0.000000

SPIN
  0 H s       :     1.000000  s :     1.000000
      pz      :     0.000000  p :     0.000000
      px      :     0.000000
      py      :     0.000000
      dz2     :     0.000000  d :     0.000000
      dxz     :     0.000000
      dyz     :     0.000000
      dx2y2   :     0.000000
      dxy     :     0.000000
      f0      :     0.000000  f :     0.000000
      f+1     :     0.000000
      f-1     :     0.000000
      f+2     :     0.000000
      f-2     :     0.000000
      f+3     :     0.000000
      f-3     :     0.000000
      g0      :     0.000000  g :     0.000000
      g+1     :     0.000000
      g-1     :     0.000000
      g+2     :     0.000000
      g-2     :     0.000000
      g+3     :     0.000000
      g-3     :     0.000000
      g+4     :     0.000000
      g-4     :     0.000000


                     *******************************
                     * LOEWDIN POPULATION ANALYSIS *
                     *******************************

-------------------------------------------
LOEWDIN ATOMIC CHARGES AND SPIN POPULATIONS
-------------------------------------------
   0 H :   -0.000000    1.000000

----------------------------------------------------
LOEWDIN REDUCED ORBITAL CHARGES AND SPIN POPULATIONS
----------------------------------------------------
CHARGE
  0 H s       :     1.000000  s :     1.000000
      pz      :     0.000000  p :     0.000000
      px      :     0.000000
      py      :     0.000000
      dz2     :     0.000000  d :     0.000000
      dxz     :     0.000000
      dyz     :     0.000000
      dx2y2   :     0.000000
      dxy     :     0.000000
      f0      :     0.000000  f :     0.000000
      f+1     :     0.000000
      f-1     :     0.000000
      f+2     :     0.000000
      f-2     :     0.000000
      f+3     :     0.000000
      f-3     :     0.000000
      g0      :     0.000000  g :     0.000000
      g+1     :     0.000000
      g-1     :     0.000000
      g+2     :     0.000000
      g-2     :     0.000000
      g+3     :     0.000000
      g-3     :     0.000000
      g+4     :     0.000000
      g-4     :     0.000000

SPIN
  0 H s       :     1.000000  s :     1.000000
      pz      :     0.000000  p :     0.000000
      px      :     0.000000
      py      :     0.000000
      dz2     :     0.000000  d :     0.000000
      dxz     :     0.000000
      dyz     :     0.000000
      dx2y2   :     0.000000
      dxy     :     0.000000
      f0      :     0.000000  f :     0.000000
      f+1     :     0.000000
      f-1     :     0.000000
      f+2     :     0.000000
      f-2     :     0.000000
      f+3     :     0.000000
      f-3     :     0.000000
      g0      :     0.000000  g :     0.000000
      g+1     :     0.000000
      g-1     :     0.000000
      g+2     :     0.000000
      g-2     :     0.000000
      g+3     :     0.000000
      g-3     :     0.000000
      g+4     :     0.000000
      g-4     :     0.000000


                      *****************************
                      * MAYER POPULATION ANALYSIS *
                      *****************************

  NA   - Mulliken gross atomic population
  ZA   - Total nuclear charge
  QA   - Mulliken gross atomic charge
  VA   - Mayer's total valence
  BVA  - Mayer's bonded valence
  FA   - Mayer's free valence

  ATOM       NA         ZA         QA         VA         BVA        FA
  0 H      1.0000     1.0000    -0.0000     1.0000     0.0000     1.0000

  Mayer bond orders larger than 0.1


Local spin analysis not attempted because no beta electrons available
--------------------------
ATOM BASIS FOR ELEMENT H 
--------------------------
 NewGTO H 
 S 12
    1       3079.700000000000         0.000022756587
    2        461.520000000000         0.000176881494
    3        105.060000000000         0.000930050553
    4         29.764000000000         0.003922610095
    5          9.718300000000         0.014161183772
    6          3.517900000000         0.044963237285
    7          1.377000000000         0.115817057616
    8          0.568310000000         0.257630835381
    9          0.243410000000         0.349043463482
   10          0.105050000000         0.298034375204
   11          0.044198000000         0.077973526062
   12          0.017131000000        -0.000958879851
 S 12
    1       3079.700000000000         0.000006436221
    2        461.520000000000         0.000050027202
    3        105.060000000000         0.000263045197
    4         29.764000000000         0.001109427590
    5          9.718300000000         0.004005192359
    6          3.517900000000         0.008545097885
    7          1.377000000000         0.048134707615
    8          0.568310000000         0.027451247919
    9          0.243410000000         0.258146660124
   10          0.105050000000        -0.100077662249
   11          0.044198000000         0.541076726294
   12          0.017131000000        -1.397814702816
 S 12
    1       3079.700000000000         0.000007013883
    2        461.520000000000         0.000054517232
    3        105.060000000000         0.000286653966
    4         29.764000000000         0.001209000668
    5          9.718300000000         0.004364665419
    6          3.517900000000         0.035155576323
    7          1.377000000000        -0.024131093377
    8          0.568310000000         0.379700279404
    9          0.243410000000        -0.508071901386
   10          0.105050000000         2.214595312392
   11          0.044198000000        -3.980605065882
   12          0.017131000000         2.073026975598
 S 12
    1       3079.700000000000         0.000023726385
    2        461.520000000000         0.000184419497
    3        105.060000000000         0.000969685701
    4         29.764000000000         0.004089776526
    5          9.718300000000         0.014764678507
    6          3.517900000000        -0.026843166031
    7          1.377000000000         0.374069882020
    8          0.568310000000        -0.722698812545
    9          0.243410000000         3.575533863472
   10          0.105050000000        -6.181704848627
   11          0.044198000000         4.326747759590
   12          0.017131000000        -1.274285263113
 S 12
    1       3079.700000000000         0.000004302300
    2        461.520000000000         0.000033440748
    3        105.060000000000         0.000175832903
    4         29.764000000000         0.000741598312
    5          9.718300000000         0.002677276029
    6          3.517900000000         0.244437988105
    7          1.377000000000        -0.705808606480
    8          0.568310000000         4.163586164352
    9          0.243410000000        -7.177007806054
   10          0.105050000000         5.830058820411
   11          0.044198000000        -2.760170846441
   12          0.017131000000         0.701770822246
 S 12
    1       3079.700000000000         0.000117881651
    2        461.520000000000         0.000916265805
    3        105.060000000000         0.004817765276
    4         29.764000000000         0.020319556445
    5          9.718300000000         0.073356506511
    6          3.517900000000        -0.484498179636
    7          1.377000000000         3.947613895401
    8          0.568310000000        -6.869644309794
    9          0.243410000000         6.118645432456
   10          0.105050000000        -3.668300709698
   11          0.044198000000         1.568885538408
   12          0.017131000000        -0.393417297022
 S 12
    1       3079.700000000000        -0.000130465890
    2        461.520000000000        -0.001014080075
    3        105.060000000000        -0.005332076942
    4         29.764000000000        -0.022488733298
    5          9.718300000000        -0.081187545361
    6          3.517900000000         3.090187579119
    7          1.377000000000        -5.558235028360
    8          0.568310000000         5.250029855148
    9          0.243410000000        -3.664834986111
   10          0.105050000000         2.052527350571
   11          0.044198000000        -0.874243478481
   12          0.017131000000         0.221562640008
 S 12
    1       3079.700000000000        -0.002558060763
    2        461.520000000000        -0.019883192868
    3        105.060000000000        -0.104546689034
    4         29.764000000000        -0.440939362368
    5          9.718300000000        -1.591854196907
    6          3.517900000000         3.524369865171
    7          1.377000000000        -3.653278535072
    8          0.568310000000         2.906048214199
    9          0.243410000000        -1.974795465662
   10          0.105050000000         1.119736309970
   11          0.044198000000        -0.484442598965
   12          0.017131000000         0.124149283659
 P 7
    1         30.000000000000         0.000202725691
    2          6.600000000000        -0.001250441157
    3          2.100000000000         0.013471376077
    4          0.950000000000        -0.034026333392
    5          0.450000000000         0.104078799673
    6          0.150000000000        -0.080178869436
    7          0.051393000000         1.029603209666
 P 7
    1         30.000000000000        -0.000664105107
    2          6.600000000000         0.008813878389
    3          2.100000000000        -0.047398279258
    4          0.950000000000         0.202312323546
    5          0.450000000000        -0.300354273761
    6          0.150000000000         1.604824549091
    7          0.051393000000        -1.078399808775
 P 7
    1         30.000000000000         0.003271702068
    2          6.600000000000        -0.027357768223
    3          2.100000000000         0.238277637840
    4          0.950000000000        -0.775953323118
    5          0.450000000000         2.234478976832
    6          0.150000000000        -1.722101767499
    7          0.051393000000         0.621509329567
 P 7
    1         30.000000000000        -0.007625152140
    2          6.600000000000         0.097005801708
    3          2.100000000000        -0.637198301829
    4          0.950000000000         3.094802476761
    5          0.450000000000        -2.891423897166
    6          0.150000000000         1.124611547688
    7          0.051393000000        -0.341317680597
 P 7
    1         30.000000000000         0.025214462187
    2          6.600000000000        -0.239799307015
    3          2.100000000000         2.749003171803
    4          0.950000000000        -3.683509072971
    5          0.450000000000         2.126736403515
    6          0.150000000000        -0.659519581553
    7          0.051393000000         0.195169907558
 P 7
    1         30.000000000000        -0.092245486890
    2          6.600000000000         1.749508426211
    3          2.100000000000        -2.442308606190
    4          0.950000000000         2.212047771398
    5          0.450000000000        -1.127035546811
    6          0.150000000000         0.342871074068
    7          0.051393000000        -0.103069355984
 D 4
    1          2.100000000000         0.005298591513
    2          0.700000000000        -0.035645693461
    3          0.300000000000         0.074581499167
    4          0.068524000000        -1.025037922958
 D 4
    1          2.100000000000         0.052328965321
    2          0.700000000000        -0.314311652153
    3          0.300000000000         1.325018625430
    4          0.068524000000        -0.462633037935
 D 4
    1          2.100000000000        -0.160170679520
    2          0.700000000000         1.660179435501
    3          0.300000000000        -1.126513520215
    4          0.068524000000         0.227786883384
 D 4
    1          2.100000000000         1.365030711852
    2          0.700000000000        -1.156389424312
    3          0.300000000000         0.559025338014
    4          0.068524000000        -0.104573388167
 F 3
    1          2.500000000000         0.001057552105
    2          0.900000000000        -0.003197298529
    3          0.085656000000         1.000227666891
 F 3
    1          2.500000000000         0.160664258609
    2          0.900000000000        -1.085978763822
    3          0.085656000000         0.077863926660
 F 3
    1          2.500000000000         1.206771474759
    2          0.900000000000        -0.557791252982
    3          0.085656000000         0.029807589242
 G 2
    1          3.200000000000         0.000000386288
    2          0.102790000000         0.999999998850
 G 2
    1          3.200000000000         1.000004432685
    2          0.102790000000        -0.002977866868
 P 21
    1         30.000000000000         1.046446917528
    2         30.000000000000         0.379599900591
    3         30.000000000000         0.575917246451
    4          6.600000000000        -0.875979071956
    5          6.600000000000        -0.317762480891
    6          6.600000000000        -0.482099422933
    7          2.100000000000         0.837475133574
    8          2.100000000000         0.303795130099
    9          2.100000000000         0.460908589649
   10          0.950000000000        -0.725624577479
   11          0.950000000000        -0.263221203927
   12          0.950000000000        -0.399351081856
   13          0.450000000000         0.374362313607
   14          0.450000000000         0.135800387626
   15          0.450000000000         0.206032154347
   16          0.150000000000        -0.117195476944
   17          0.150000000000        -0.042512802754
   18          0.150000000000        -0.064499111467
   19          0.051393000000         0.035779700042
   20          0.051393000000         0.012979129999
   21          0.051393000000         0.019691535215
 end
-------
TIMINGS
-------

Total SCF time: 0 days 0 hours 0 min 2 sec 

Total time                  ....       2.937 sec
Sum of individual times     ....       2.506 sec  ( 85.3%)

Fock matrix formation       ....       2.092 sec  ( 71.2%)
  XC integration            ....       0.532 sec  ( 25.5% of F)
    Basis function eval.    ....       0.038 sec  (  7.2% of XC)
    Density eval.           ....       0.051 sec  (  9.7% of XC)
    XC-Functional eval.     ....       0.034 sec  (  6.4% of XC)
    XC-Potential eval.      ....       0.103 sec  ( 19.3% of XC)
Diagonalization             ....       0.044 sec  (  1.5%)
Density matrix formation    ....       0.001 sec  (  0.0%)
Population analysis         ....       0.066 sec  (  2.2%)
Initial guess               ....       0.129 sec  (  4.4%)
Orbital Transformation      ....       0.000 sec  (  0.0%)
Orbital Orthonormalization  ....       0.000 sec  (  0.0%)
DIIS solution               ....       0.034 sec  (  1.2%)
Grid generation             ....       0.140 sec  (  4.8%)

-------------------------   --------------------
FINAL SINGLE POINT ENERGY        -0.499990406169
-------------------------   --------------------


                            ***************************************
                            *     ORCA property calculations      *
                            ***************************************

                                    ---------------------
                                    Active property flags
                                    ---------------------
   (+) Dipole Moment
   (+) Polarizability


------------------------------------------------------------------------------
                       ORCA ELECTRIC PROPERTIES CALCULATION
------------------------------------------------------------------------------

Dipole Moment Calculation                       ... on
Quadrupole Moment Calculation                   ... off
Polarizability Calculation                      ... Analytic (CP-SCF)
GBWName                                         ... h_pbe.gbw
Electron density file                           ... h_pbe.scfp.tmp
The origin for moment calculation is the CENTER OF MASS  = ( 0.000000,  0.000000  0.000000)

-------------
DIPOLE MOMENT
-------------
                                X             Y             Z
Electronic contribution:     -0.00000       0.00000       0.00000
Nuclear contribution   :      0.00000       0.00000       0.00000
                        -----------------------------------------
Total Dipole Moment    :     -0.00000       0.00000       0.00000
                        -----------------------------------------
Magnitude (a.u.)       :      0.00000
Magnitude (Debye)      :      0.00000



--------------------
Rotational spectrum 
--------------------
 
Rotational constants in cm-1:     0.000000     0.000000     0.000000 
Rotational constants in MHz :     0.000000     0.000000     0.000000 

 Dipole components along the rotational axes: 
x,y,z [a.u.] :    -0.000000     0.000000     0.000000 
x,y,z [Debye]:    -0.000000     0.000000     0.000000 

 
Transforming and storing MO dipole integrals   ... done

                ... starting polarizability calculation

Opening the Dipole integral file               ... (h_pbe.dmo.tmp) done
Reading Dipole-MO integrals                    ... done
Solving CP-SCF equations                       ... 

           ************************************************************
           *        Program running with 4 parallel MPI-processes     *
           *              working on a common directory               *
           ************************************************************

------------------------------------------------------------------------------
                           ORCA CP-SCF CALCULATION
------------------------------------------------------------------------------

Input orbitals are from        ... h_pbe.gbw
Input Perturbation             ... h_pbe.cpv.tmp
Wavefunction output            ... h_pbe.cpu.tmp
Perturbation mode              ... Real perturbation (singlet)
Solver                         ... POPLE
Max. number of iterations      ... 200
Convergence tolerance          ... 1.000e-06
Integral handling              ... Direct
Number of perturbations        ... 3
Number of operators            ... 2
Orbital ranges used for CP-SCF:
 Operator 0:  Orbitals   0...  0  to   1... 87
DFT calculation                         ... on
Exchange functional (SCF)               ... PBE
Exchange functional (CP-SCF)            ... PBE
   PBE kappa parameter  XKappa (SCF)    ...  0.804000
   PBE kappa parameter  XKappa (CP-SCF) ...  0.804000
   PBE mue parameter   XMuePBE (SCF)    ...  0.219520
   PBE mue parameter   XMuePBE (CP-SCF) ...  0.219520
Correlation functional (SCF)            ... PBE
Correlation functional (CP-SCF)         ... PBE
   PBE beta parameter CBetaPBE (SCF)    ...  0.066725
   PBE beta parameter CBetaPBE (CP-SCF) ...  0.066725
 LDA part of GGA corr.  LDAOpt (SCF)    ... PW91-LDA
 LDA part of GGA corr.  LDAOpt (CP-SCF) ... PW91-LDA
Variables per vector in CP-SCF ... 87
Number of vectors sought       ... 3
Recalculating density on grid  ... done
Calculating the xc-kernel      ... done
     CP-SCF ITERATION   0: 
     CP-SCF ITERATION   1:      0.000001336910
     CP-SCF ITERATION   2:      0.000000000161
done
Reading CP-SCF coefficients                    ... done
Doing the polarizability tensor   ... done
Cleaning up                                    ... done

-------------------------
THE POLARIZABILITY TENSOR
-------------------------

The raw cartesian tensor (atomic units):
    5.56788     -0.00000      0.00000  
   -0.00000      5.56788     -0.00000  
    0.00000     -0.00000      5.56788  
diagonalized tensor: 
    5.56788      5.56788      5.56788  

   -0.00234     -0.98862      0.15041  
    0.35564     -0.14140     -0.92386  
    0.93462      0.05133      0.35192  

Isotropic polarizability :   5.56788


Timings for individual modules:

Sum of individual times         ...       15.597 sec (=   0.260 min)
GTO integral calculation        ...        2.017 sec (=   0.034 min)  12.9 %
SCF iterations                  ...        4.162 sec (=   0.069 min)  26.7 %
Solution of CP-SCF eqns.        ...        9.419 sec (=   0.157 min)  60.4 %
                             ****ORCA TERMINATED NORMALLY****
TOTAL RUN TIME: 0 days 0 hours 0 minutes 23 seconds 13 msec
