
                                 *****************
                                 * O   R   C   A *
                                 *****************

           --- An Ab Initio, DFT and Semiempirical electronic structure package ---

                  #######################################################
                  #                        -***-                        #
                  #          Department of theory and spectroscopy      #
                  #               Directorship: Frank Neese             #
                  #        Max Planck Institute fuer Kohlenforschung    #
                  #                Kaiser Wilhelm Platz 1               #
                  #                 D-45470 Muelheim/Ruhr               #
                  #                      Germany                        #
                  #                                                     #
                  #                  All rights reserved                #
                  #                        -***-                        #
                  #######################################################


                         Program Version 4.1.2  - RELEASE  -


 With contributions from (in alphabetic order):
   Daniel Aravena         : Magnetic Properties
   Michael Atanasov       : Ab Initio Ligand Field Theory
   Alexander A. Auer      : GIAO ZORA
   Ute Becker             : Parallelization
   Giovanni Bistoni       : ED, Open-shell LED
   Martin Brehm           : Molecular dynamics
   Dmytro Bykov           : SCF Hessian
   Vijay G. Chilkuri      : MRCI spin determinant printing
   Dipayan Datta          : RHF DLPNO-CCSD density
   Achintya Kumar Dutta   : EOM-CC, STEOM-CC
   Dmitry Ganyushin       : Spin-Orbit,Spin-Spin,Magnetic field MRCI
   Miquel Garcia          : C-PCM Hessian
   Yang Guo               : DLPNO-NEVPT2, CIM, IAO-localization
   Andreas Hansen         : Spin unrestricted coupled pair/coupled cluster methods
   Benjamin Helmich-Paris : CASSCF linear response (MC-RPA)
   Lee Huntington         : MR-EOM, pCC
   Robert Izsak           : Overlap fitted RIJCOSX, COSX-SCS-MP3, EOM
   Christian Kollmar      : KDIIS, OOCD, Brueckner-CCSD(T), CCSD density
   Simone Kossmann        : Meta GGA functionals, TD-DFT gradient, OOMP2, MP2 Hessian
   Martin Krupicka        : AUTO-CI
   Lucas Lang             : DCDCAS
   Dagmar Lenk            : GEPOL surface, SMD
   Dimitrios Liakos       : Extrapolation schemes; parallel MDCI
   Dimitrios Manganas     : ROCIS; embedding schemes
   Dimitrios Pantazis     : SARC Basis sets
   Taras Petrenko         : DFT Hessian,TD-DFT gradient, ASA, ECA, R-Raman, ABS, FL, XAS/XES, NRVS
   Peter Pinski           : DLPNO-MP2, DLPNO-MP2 Gradient
   Christoph Reimann      : Effective Core Potentials
   Marius Retegan         : Local ZFS, SOC
   Christoph Riplinger    : Optimizer, TS searches, QM/MM, DLPNO-CCSD(T), (RO)-DLPNO pert. Triples
   Tobias Risthaus        : Range-separated hybrids, TD-DFT gradient, RPA, STAB
   Michael Roemelt        : Restricted open shell CIS
   Masaaki Saitow         : Open-shell DLPNO
   Barbara Sandhoefer     : DKH picture change effects
   Avijit Sen             : IP-ROCIS
   Kantharuban Sivalingam : CASSCF convergence, NEVPT2, FIC-MRCI
   Bernardo de Souza      : ESD, SOC TD-DFT
   Georgi Stoychev        : AutoAux, RI-MP2 NMR
   Willem Van den Heuvel  : Paramagnetic NMR
   Boris Wezisla          : Elementary symmetry handling
   Frank Wennmohs         : Technical directorship


 We gratefully acknowledge several colleagues who have allowed us to
 interface, adapt or use parts of their codes:
   Stefan Grimme, W. Hujo, H. Kruse,             : VdW corrections, initial TS optimization,
                  C. Bannwarth                     DFT functionals, gCP, sTDA/sTD-DF
   Ed Valeev                                     : LibInt (2-el integral package), F12 methods
   Garnet Chan, S. Sharma, J. Yang, R. Olivares  : DMRG
   Ulf Ekstrom                                   : XCFun DFT Library
   Mihaly Kallay                                 : mrcc  (arbitrary order and MRCC methods)
   Andreas Klamt, Michael Diedenhofen            : otool_cosmo (COSMO solvation model)
   Jiri Pittner, Ondrej Demel                    : Mk-CCSD
   Frank Weinhold                                : gennbo (NPA and NBO analysis)
   Christopher J. Cramer and Donald G. Truhlar   : smd solvation model
   Lars Goerigk                                  : TD-DFT with DH, B97 family of functionals
   V. Asgeirsson, H. Jonsson                     : NEB implementation
   FAccTs GmbH                                   : IRC, NEB, NEB-TS, Multilevel


 Your calculation uses the libint2 library for the computation of 2-el integrals
 For citations please refer to: http://libint.valeyev.net

 This ORCA versions uses:
   CBLAS   interface :  Fast vector & matrix operations
   LAPACKE interface :  Fast linear algebra routines
   SCALAPACK package :  Parallel linear algebra routines


----- Orbital basis set information -----
Your calculation utilizes the basis: aug-pc-4
   H, C-F              : F. Jensen, J. Chem. Phys. 115, 9113 (2001).
                         F. Jensen, J. Chem. Phys. 116, 7372 (2002).
                         F. Jensen, J. Chem. Phys. 117, 9234 (2002).
   Si-Cl               : F. Jensen, T. Helgaker, J. Chem. Phys. 121, 3463 (2004).
   He-B, Ne-Mg, Al, Ar : F. Jensen, J. Phys. Chem. A 111, 11198 (2007).
   K, Ca, Ga-Kr        : F. Jensen, J. Chem. Phys. 136, 094110 (2012).
   Sc-Zn               : F. Jensen, J. Chem. Phys. 138, 014107 (2013).

================================================================================
                                        WARNINGS
                       Please study these warnings very carefully!
================================================================================


INFO   : the flag for use of LIBINT has been found!

================================================================================
                                       INPUT FILE
================================================================================
NAME = hbo_pbe.inp
|  1> !uks pbe nori aug-pc-4 grid5 nofinalgrid verytightscf
|  2> 
|  3> %maxcore 1500
|  4> 
|  5> %pal nprocs 4 end
|  6> 
|  7> %scf
|  8> 	maxiter 200
|  9> end
| 10> %elprop
| 11> 	dipole true
| 12> 	 polar 1
| 13> 	 maxiter 200
| 14> end
| 15> 
| 16> * xyz 0 1
| 17> B 0.0000 0.0000 1.1660
| 18> H 0.0000 0.0000 0.0000
| 19> O 0.0000 0.0000 2.3660
| 20> *
| 21> 
| 22>                          ****END OF INPUT****
================================================================================

                       ****************************
                       * Single Point Calculation *
                       ****************************

---------------------------------
CARTESIAN COORDINATES (ANGSTROEM)
---------------------------------
  B      0.000000    0.000000    1.166000
  H      0.000000    0.000000    0.000000
  O      0.000000    0.000000    2.366000

----------------------------
CARTESIAN COORDINATES (A.U.)
----------------------------
  NO LB      ZA    FRAG     MASS         X           Y           Z
   0 B     5.0000    0    10.810    0.000000    0.000000    2.203421
   1 H     1.0000    0     1.008    0.000000    0.000000    0.000000
   2 O     8.0000    0    15.999    0.000000    0.000000    4.471092

--------------------------------
INTERNAL COORDINATES (ANGSTROEM)
--------------------------------
 B      0   0   0     0.000000000000     0.00000000     0.00000000
 H      1   0   0     1.166000000000     0.00000000     0.00000000
 O      1   2   0     1.200000000000   180.00000000     0.00000000

---------------------------
INTERNAL COORDINATES (A.U.)
---------------------------
 B      0   0   0     0.000000000000     0.00000000     0.00000000
 H      1   0   0     2.203420672152     0.00000000     0.00000000
 O      1   2   0     2.267671360706   180.00000000     0.00000000

---------------------
BASIS SET INFORMATION
---------------------
There are 3 groups of distinct atoms

 Group   1 Type B   : 27s12p7d4f3g2h contracted to 9s8p7d4f3g2h pattern {1191111111/51111111/1111111/1111/111/11}
 Group   2 Type H   : 12s7p4d3f2g contracted to 8s7p4d3f2g pattern {51111111/1111111/1111/111/11}
 Group   3 Type O   : 27s12p7d4f3g2h contracted to 9s8p7d4f3g2h pattern {1191111111/51111111/1111111/1111/111/11}

Atom   0B    basis set group =>   1
Atom   1H    basis set group =>   2
Atom   2O    basis set group =>   3


           ************************************************************
           *        Program running with 4 parallel MPI-processes     *
           *              working on a common directory               *
           ************************************************************
------------------------------------------------------------------------------
                           ORCA GTO INTEGRAL CALCULATION
------------------------------------------------------------------------------

                         BASIS SET STATISTICS AND STARTUP INFO

 # of primitive gaussian shells          ...  138
 # of primitive gaussian functions       ...  442
 # of contracted shells                  ...   90
 # of contracted basis functions         ...  378
 Highest angular momentum                ...    5
 Maximum contraction depth               ...   11
 Integral package used                   ... LIBINT
 Integral threshhold            Thresh   ...  1.000e-12
 Primitive cut-off              TCut     ...  1.000e-14


------------------------------ INTEGRAL EVALUATION ----------------------------


 * One electron integrals 
 Pre-screening matrix                    ... done
 Shell pair data                         ... done (   0.001 sec)



           ************************************************************
           *        Program running with 4 parallel MPI-processes     *
           *              working on a common directory               *
           ************************************************************
-------------------------------------------------------------------------------
                                 ORCA SCF
-------------------------------------------------------------------------------

------------
SCF SETTINGS
------------
Hamiltonian:
 Density Functional     Method          .... DFT(GTOs)
 Exchange Functional    Exchange        .... PBE
   PBE kappa parameter   XKappa         ....  0.804000
   PBE mue parameter    XMuePBE         ....  0.219520
 Correlation Functional Correlation     .... PBE
   PBE beta parameter  CBetaPBE         ....  0.066725
 LDA part of GGA corr.  LDAOpt          .... PW91-LDA
 Gradients option       PostSCFGGA      .... off
   Density functional embedding theory  .... OFF
   NL short-range parameter             ....  6.400000


General Settings:
 Integral files         IntName         .... hbo_pbe
 Hartree-Fock type      HFTyp           .... UHF
 Total Charge           Charge          ....    0
 Multiplicity           Mult            ....    1
 Number of Electrons    NEL             ....   14
 Basis Dimension        Dim             ....  378
 Nuclear Repulsion      ENuc            ....     21.6977113315 Eh

Convergence Acceleration:
 DIIS                   CNVDIIS         .... on
   Start iteration      DIISMaxIt       ....    12
   Startup error        DIISStart       ....  0.200000
   # of expansion vecs  DIISMaxEq       ....     5
   Bias factor          DIISBfac        ....   1.050
   Max. coefficient     DIISMaxC        ....  10.000
 Newton-Raphson         CNVNR           .... off
 SOSCF                  CNVSOSCF        .... off
 Level Shifting         CNVShift        .... on
   Level shift para.    LevelShift      ....    0.2500
   Turn off err/grad.   ShiftErr        ....    0.0010
 Zerner damping         CNVZerner       .... off
 Static damping         CNVDamp         .... on
   Fraction old density DampFac         ....    0.7000
   Max. Damping (<1)    DampMax         ....    0.9800
   Min. Damping (>=0)   DampMin         ....    0.0000
   Turn off err/grad.   DampErr         ....    0.1000
 Fernandez-Rico         CNVRico         .... off

SCF Procedure:
 Maximum # iterations   MaxIter         ....   200
 SCF integral mode      SCFMode         .... Direct
   Integral package                     .... LIBINT
 Reset frequency        DirectResetFreq ....    20
 Integral Threshold     Thresh          ....  1.000e-12 Eh
 Primitive CutOff       TCut            ....  1.000e-14 Eh

Convergence Tolerance:
 Convergence Check Mode ConvCheckMode   .... Total+1el-Energy
 Convergence forced     ConvForced      .... 0
 Energy Change          TolE            ....  1.000e-09 Eh
 1-El. energy change                    ....  1.000e-06 Eh
 DIIS Error             TolErr          ....  1.000e-08


Diagonalization of the overlap matrix:
Smallest eigenvalue                        ... 7.424e-07
Time for diagonalization                   ...    0.025 sec
Threshold for overlap eigenvalues          ... 1.000e-08
Number of eigenvalues below threshold      ... 0
Time for construction of square roots      ...    0.030 sec
Total time needed                          ...    0.055 sec

-------------------
DFT GRID GENERATION
-------------------

General Integration Accuracy     IntAcc      ...  5.010
Radial Grid Type                 RadialGrid  ... Gauss-Chebyshev
Angular Grid (max. acc.)         AngularGrid ... Lebedev-434
Angular grid pruning method      GridPruning ... 3 (G Style)
Weight generation scheme         WeightScheme... Becke
Basis function cutoff            BFCut       ...    1.0000e-12
Integration weight cutoff        WCut        ...    1.0000e-14
Grids for H and He will be reduced by one unit

# of grid points (after initial pruning)     ...  28124 (   0.0 sec)
# of grid points (after weights+screening)   ...  27812 (   0.0 sec)
nearest neighbour list constructed           ...    0.0 sec
Grid point re-assignment to atoms done       ...    0.0 sec
Grid point division into batches done        ...    0.2 sec
Reduced shell lists constructed in    0.3 sec

Total number of grid points                  ...    27812
Total number of batches                      ...      436
Average number of points per batch           ...       63
Average number of grid points per atom       ...     9271
Average number of shells per batch           ...    76.14 (84.60%)
Average number of basis functions per batch  ...   331.08 (87.59%)
Average number of large shells per batch     ...    70.83 (93.03%)
Average number of large basis fcns per batch ...   310.52 (93.79%)
Maximum spatial batch extension              ...  32.60, 32.60,  2.18 au
Average spatial batch extension              ...   0.70,  0.67,  0.31 au

Time for grid setup =    0.331 sec

------------------------------
INITIAL GUESS: MODEL POTENTIAL
------------------------------
Loading Hartree-Fock densities                     ... done
Calculating cut-offs                               ... done
Setting up the integral package                    ... done
Initializing the effective Hamiltonian             ... done
Starting the Coulomb interaction                   ... done (   0.0 sec)
Reading the grid                                   ... done
Mapping shells                                     ... done
Starting the XC term evaluation                    ... done (   0.5 sec)
  promolecular density results
     # of electrons  =     13.999508220
     EX              =    -12.167958850
     EC              =     -0.424053784
     EX+EC           =    -12.592012634
Transforming the Hamiltonian                       ... done (   0.0 sec)
Diagonalizing the Hamiltonian                      ... done (   0.0 sec)
Back transforming the eigenvectors                 ... done (   0.0 sec)
Now organizing SCF variables                       ... done
                      ------------------
                      INITIAL GUESS DONE (   1.0 sec)
                      ------------------
--------------
SCF ITERATIONS
--------------
ITER       Energy         Delta-E        Max-DP      RMS-DP      [F,P]     Damp
               ***  Starting incremental Fock matrix formation  ***
  0   -100.5071457500   0.000000000000 0.02006895  0.00020299  0.3409570 0.7000
  1   -100.5783805722  -0.071234822218 0.00925110  0.00010889  0.0730470 0.7000
                               ***Turning on DIIS***
  2   -100.5879822961  -0.009601723899 0.01393639  0.00015263  0.0595038 0.0000
  3   -100.6352230380  -0.047240741837 0.00926870  0.00006128  0.0332440 0.0000
  4   -100.6368420464  -0.001619008430 0.00236850  0.00002200  0.0188072 0.0000
  5   -100.6372445488  -0.000402502348 0.00164565  0.00001415  0.0047679 0.0000
  6   -100.6372756547  -0.000031105935 0.00063165  0.00000469  0.0017087 0.0000
  7   -100.6372788051  -0.000003150429 0.00010321  0.00000161  0.0004807 0.0000
  8   -100.6372791182  -0.000000313101 0.00002900  0.00000019  0.0000776 0.0000
  9   -100.6372791241  -0.000000005916 0.00000524  0.00000005  0.0000172 0.0000
 10   -100.6372791245  -0.000000000319 0.00000237  0.00000003  0.0000022 0.0000
 11   -100.6372791245  -0.000000000014 0.00000374  0.00000004  0.0000004 0.0000
 12   -100.6372791245  -0.000000000000 0.00001731  0.00000014  0.0000001 0.0000
                 **** Energy Check signals convergence ****

               *****************************************************
               *                     SUCCESS                       *
               *           SCF CONVERGED AFTER  13 CYCLES          *
               *****************************************************


----------------
TOTAL SCF ENERGY
----------------

Total Energy       :         -100.63727912 Eh           -2738.47959 eV

Components:
Nuclear Repulsion  :           21.69771133 Eh             590.42474 eV
Electronic Energy  :         -122.33499046 Eh           -3328.90433 eV
One Electron Energy:         -180.09900436 Eh           -4900.74306 eV
Two Electron Energy:           57.76401391 Eh            1571.83873 eV

Virial components:
Potential Energy   :         -200.95511234 Eh           -5468.26661 eV
Kinetic Energy     :          100.31783321 Eh            2729.78702 eV
Virial Ratio       :            2.00318434


DFT components:
N(Alpha)           :        6.999997414127 electrons
N(Beta)            :        6.999997414127 electrons
N(Total)           :       13.999994828253 electrons
E(X)               :      -12.435813956744 Eh       
E(C)               :       -0.433986166603 Eh       
E(XC)              :      -12.869800123347 Eh       
DFET-embed. en.    :        0.000000000000 Eh       

---------------
SCF CONVERGENCE
---------------

  Last Energy change         ...   -5.4996e-12  Tolerance :   1.0000e-09
  Last MAX-Density change    ...    2.2017e-05  Tolerance :   1.0000e-08
  Last RMS-Density change    ...    1.6942e-07  Tolerance :   1.0000e-09
  Last DIIS Error            ...    1.1571e-08  Tolerance :   1.0000e-08

             **** THE GBW FILE WAS UPDATED (hbo_pbe.gbw) ****
             **** DENSITY FILE WAS UPDATED (hbo_pbe.scfp.tmp) ****
             **** ENERGY FILE WAS UPDATED (hbo_pbe.en.tmp) ****
----------------------
UHF SPIN CONTAMINATION
----------------------

Warning: in a DFT calculation there is little theoretical justification to 
         calculate <S**2> as in Hartree-Fock theory. We will do it anyways
         but you should keep in mind that the values have only limited relevance

Expectation value of <S**2>     :    -0.000000
Ideal value S*(S+1) for S=0.0   :     0.000000
Deviation                       :    -0.000000

----------------
ORBITAL ENERGIES
----------------
                 SPIN UP ORBITALS
  NO   OCC          E(Eh)            E(eV) 
   0   1.0000     -18.761013      -510.5131 
   1   1.0000      -6.543815      -178.0663 
   2   1.0000      -0.909255       -24.7421 
   3   1.0000      -0.444791       -12.1034 
   4   1.0000      -0.366851        -9.9825 
   5   1.0000      -0.328065        -8.9271 
   6   1.0000      -0.328065        -8.9271 
   7   0.0000      -0.042778        -1.1640 
   8   0.0000      -0.042778        -1.1640 
   9   0.0000      -0.007560        -0.2057 
  10   0.0000      -0.002494        -0.0679 
  11   0.0000       0.017575         0.4782 
  12   0.0000       0.017575         0.4782 
  13   0.0000       0.024279         0.6607 
  14   0.0000       0.040290         1.0963 
  15   0.0000       0.054408         1.4805 
  16   0.0000       0.054408         1.4805 
  17   0.0000       0.055811         1.5187 
  18   0.0000       0.060805         1.6546 
  19   0.0000       0.060805         1.6546 
  20   0.0000       0.062446         1.6992 
  21   0.0000       0.062446         1.6992 
  22   0.0000       0.072714         1.9786 
  23   0.0000       0.088341         2.4039 
  24   0.0000       0.093972         2.5571 
  25   0.0000       0.093972         2.5571 
  26   0.0000       0.123468         3.3597 
  27   0.0000       0.131662         3.5827 
  28   0.0000       0.131662         3.5827 
  29   0.0000       0.146178         3.9777 
  30   0.0000       0.146178         3.9777 
  31   0.0000       0.149634         4.0717 
  32   0.0000       0.151392         4.1196 
  33   0.0000       0.151392         4.1196 
  34   0.0000       0.153514         4.1773 
  35   0.0000       0.153514         4.1773 
  36   0.0000       0.164323         4.4715 
  37   0.0000       0.164323         4.4715 
  38   0.0000       0.169255         4.6057 
  39   0.0000       0.174132         4.7384 
  40   0.0000       0.189477         5.1559 
  41   0.0000       0.189477         5.1559 
  42   0.0000       0.201363         5.4794 
  43   0.0000       0.210008         5.7146 
  44   0.0000       0.210008         5.7146 
  45   0.0000       0.214082         5.8255 
  46   0.0000       0.214082         5.8255 
  47   0.0000       0.234392         6.3781 
  48   0.0000       0.234392         6.3781 
  49   0.0000       0.246421         6.7055 
  50   0.0000       0.246421         6.7055 
  51   0.0000       0.267664         7.2835 
  52   0.0000       0.300961         8.1896 
  53   0.0000       0.301770         8.2116 
  54   0.0000       0.301770         8.2116 
  55   0.0000       0.304483         8.2854 
  56   0.0000       0.304483         8.2854 
  57   0.0000       0.314995         8.5714 
  58   0.0000       0.314995         8.5714 
  59   0.0000       0.321607         8.7514 
  60   0.0000       0.321607         8.7514 
  61   0.0000       0.329431         8.9643 
  62   0.0000       0.334038         9.0896 
  63   0.0000       0.341797         9.3008 
  64   0.0000       0.341797         9.3008 
  65   0.0000       0.342213         9.3121 
  66   0.0000       0.342213         9.3121 
  67   0.0000       0.350849         9.5471 
  68   0.0000       0.350849         9.5471 
  69   0.0000       0.355067         9.6619 
  70   0.0000       0.362157         9.8548 
  71   0.0000       0.362157         9.8548 
  72   0.0000       0.375790        10.2258 
  73   0.0000       0.375790        10.2258 
  74   0.0000       0.384788        10.4706 
  75   0.0000       0.384788        10.4706 
  76   0.0000       0.389188        10.5903 
  77   0.0000       0.395336        10.7576 
  78   0.0000       0.395336        10.7576 
  79   0.0000       0.433969        11.8089 
  80   0.0000       0.433969        11.8089 
  81   0.0000       0.463772        12.6199 
  82   0.0000       0.463772        12.6199 
  83   0.0000       0.507154        13.8004 
  84   0.0000       0.541298        14.7295 
  85   0.0000       0.541298        14.7295 
  86   0.0000       0.551675        15.0118 
  87   0.0000       0.551675        15.0118 
  88   0.0000       0.574966        15.6456 
  89   0.0000       0.595198        16.1962 
  90   0.0000       0.613058        16.6822 
  91   0.0000       0.613058        16.6822 
  92   0.0000       0.614549        16.7227 
  93   0.0000       0.614549        16.7227 
  94   0.0000       0.615396        16.7458 
  95   0.0000       0.615397        16.7458 
  96   0.0000       0.622459        16.9380 
  97   0.0000       0.648456        17.6454 
  98   0.0000       0.648456        17.6454 
  99   0.0000       0.649441        17.6722 
 100   0.0000       0.649442        17.6722 
 101   0.0000       0.654338        17.8054 
 102   0.0000       0.657857        17.9012 
 103   0.0000       0.657857        17.9012 
 104   0.0000       0.666818        18.1450 
 105   0.0000       0.681784        18.5523 
 106   0.0000       0.681784        18.5523 
 107   0.0000       0.702978        19.1290 
 108   0.0000       0.715314        19.4647 
 109   0.0000       0.715314        19.4647 
 110   0.0000       0.723994        19.7009 
 111   0.0000       0.723994        19.7009 
 112   0.0000       0.771511        20.9939 
 113   0.0000       0.771511        20.9939 
 114   0.0000       0.774447        21.0738 
 115   0.0000       0.774447        21.0738 
 116   0.0000       0.801544        21.8111 
 117   0.0000       0.801544        21.8111 
 118   0.0000       0.837031        22.7768 
 119   0.0000       0.869181        23.6516 
 120   0.0000       0.869181        23.6516 
 121   0.0000       0.897262        24.4157 
 122   0.0000       0.907206        24.6863 
 123   0.0000       0.907206        24.6863 
 124   0.0000       0.938248        25.5310 
 125   0.0000       0.938249        25.5310 
 126   0.0000       0.941148        25.6099 
 127   0.0000       0.941148        25.6099 
 128   0.0000       0.943460        25.6729 
 129   0.0000       0.943460        25.6729 
 130   0.0000       0.969958        26.3939 
 131   0.0000       0.969958        26.3939 
 132   0.0000       0.974499        26.5175 
 133   0.0000       0.994269        27.0554 
 134   0.0000       0.994269        27.0554 
 135   0.0000       1.018410        27.7124 
 136   0.0000       1.083090        29.4724 
 137   0.0000       1.083090        29.4724 
 138   0.0000       1.174199        31.9516 
 139   0.0000       1.174199        31.9516 
 140   0.0000       1.174498        31.9597 
 141   0.0000       1.184391        32.2289 
 142   0.0000       1.193368        32.4732 
 143   0.0000       1.193368        32.4732 
 144   0.0000       1.195138        32.5214 
 145   0.0000       1.195139        32.5214 
 146   0.0000       1.221586        33.2410 
 147   0.0000       1.382115        37.6093 
 148   0.0000       1.428501        38.8715 
 149   0.0000       1.428501        38.8715 
 150   0.0000       1.431994        38.9665 
 151   0.0000       1.449240        39.4358 
 152   0.0000       1.449241        39.4358 
 153   0.0000       1.493749        40.6470 
 154   0.0000       1.493749        40.6470 
 155   0.0000       1.556478        42.3539 
 156   0.0000       1.557225        42.3743 
 157   0.0000       1.557225        42.3743 
 158   0.0000       1.624047        44.1926 
 159   0.0000       1.624048        44.1926 
 160   0.0000       1.766678        48.0738 
 161   0.0000       1.766678        48.0738 
 162   0.0000       1.801802        49.0295 
 163   0.0000       1.801802        49.0295 
 164   0.0000       1.813319        49.3429 
 165   0.0000       1.858332        50.5678 
 166   0.0000       1.858332        50.5678 
 167   0.0000       1.971506        53.6474 
 168   0.0000       1.982603        53.9494 
 169   0.0000       1.982603        53.9494 
 170   0.0000       1.986366        54.0518 
 171   0.0000       1.986366        54.0518 
 172   0.0000       2.114772        57.5459 
 173   0.0000       2.172527        59.1175 
 174   0.0000       2.172527        59.1175 
 175   0.0000       2.204691        59.9927 
 176   0.0000       2.358318        64.1731 
 177   0.0000       2.497720        67.9664 
 178   0.0000       2.497721        67.9664 
 179   0.0000       2.534253        68.9605 
 180   0.0000       2.674795        72.7849 
 181   0.0000       2.674795        72.7849 
 182   0.0000       2.778016        75.5937 
 183   0.0000       2.778016        75.5937 
 184   0.0000       2.800770        76.2128 
 185   0.0000       2.926762        79.6413 
 186   0.0000       2.926763        79.6413 
 187   0.0000       2.962734        80.6201 
 188   0.0000       3.131346        85.2082 
 189   0.0000       3.131346        85.2083 
 190   0.0000       3.148479        85.6745 
 191   0.0000       3.148479        85.6745 
 192   0.0000       3.192598        86.8750 
 193   0.0000       3.192601        86.8751 
 194   0.0000       3.332244        90.6750 
 195   0.0000       3.332244        90.6750 
 196   0.0000       3.431187        93.3674 
 197   0.0000       3.560203        96.8781 
 198   0.0000       3.560203        96.8781 
 199   0.0000       3.597134        97.8830 
 200   0.0000       3.658436        99.5511 
 201   0.0000       3.658436        99.5511 
 202   0.0000       3.690270       100.4173 
 203   0.0000       3.690270       100.4173 
 204   0.0000       3.690449       100.4222 
 205   0.0000       3.690451       100.4223 
 206   0.0000       3.888787       105.8193 
 207   0.0000       3.902273       106.1862 
 208   0.0000       3.902273       106.1862 
 209   0.0000       3.905491       106.2738 
 210   0.0000       3.905491       106.2738 
 211   0.0000       4.069634       110.7404 
 212   0.0000       4.069635       110.7404 
 213   0.0000       4.150715       112.9467 
 214   0.0000       4.159121       113.1754 
 215   0.0000       4.159121       113.1754 
 216   0.0000       4.228955       115.0757 
 217   0.0000       4.343180       118.1839 
 218   0.0000       4.343180       118.1839 
 219   0.0000       4.529835       123.2631 
 220   0.0000       4.529835       123.2631 
 221   0.0000       4.635468       126.1375 
 222   0.0000       4.770777       129.8195 
 223   0.0000       4.937009       134.3428 
 224   0.0000       4.937009       134.3428 
 225   0.0000       5.016642       136.5098 
 226   0.0000       5.016643       136.5098 
 227   0.0000       5.146445       140.0419 
 228   0.0000       5.146445       140.0419 
 229   0.0000       5.175962       140.8451 
 230   0.0000       5.398200       146.8925 
 231   0.0000       5.451961       148.3554 
 232   0.0000       5.451961       148.3554 
 233   0.0000       5.760269       156.7449 
 234   0.0000       5.857769       159.3980 
 235   0.0000       5.857770       159.3980 
 236   0.0000       5.957155       162.1024 
 237   0.0000       5.957155       162.1024 
 238   0.0000       5.959441       162.1646 
 239   0.0000       5.962799       162.2560 
 240   0.0000       5.962804       162.2561 
 241   0.0000       6.372038       173.3920 
 242   0.0000       6.372038       173.3920 
 243   0.0000       6.693855       182.1491 
 244   0.0000       6.693855       182.1491 
 245   0.0000       6.800187       185.0425 
 246   0.0000       7.307025       198.8343 
 247   0.0000       7.307026       198.8343 
 248   0.0000       7.438839       202.4211 
 249   0.0000       7.739256       210.5959 
 250   0.0000       7.739258       210.5959 
 251   0.0000       7.764309       211.2776 
 252   0.0000       8.149482       221.7587 
 253   0.0000       8.220120       223.6808 
 254   0.0000       8.220120       223.6808 
 255   0.0000       8.279030       225.2838 
 256   0.0000       8.279030       225.2838 
 257   0.0000       8.725148       237.4234 
 258   0.0000       8.725151       237.4234 
 259   0.0000       8.807893       239.6749 
 260   0.0000       8.807893       239.6749 
 261   0.0000       9.124059       248.2783 
 262   0.0000       9.258995       251.9501 
 263   0.0000       9.258995       251.9501 
 264   0.0000       9.272835       252.3267 
 265   0.0000       9.272842       252.3269 
 266   0.0000       9.293015       252.8758 
 267   0.0000       9.293020       252.8759 
 268   0.0000       9.399394       255.7705 
 269   0.0000       9.399400       255.7707 
 270   0.0000       9.400684       255.8056 
 271   0.0000       9.400684       255.8056 
 272   0.0000       9.412638       256.1309 
 273   0.0000       9.412638       256.1309 
 274   0.0000       9.738048       264.9857 
 275   0.0000       9.758579       265.5444 
 276   0.0000       9.758581       265.5445 
 277   0.0000       9.791926       266.4519 
 278   0.0000       9.791926       266.4519 
 279   0.0000       9.984737       271.6985 
 280   0.0000      10.136030       275.8154 
 281   0.0000      10.136031       275.8154 
 282   0.0000      10.167957       276.6842 
 283   0.0000      10.167957       276.6842 
 284   0.0000      10.215575       277.9799 
 285   0.0000      10.215575       277.9799 
 286   0.0000      10.334668       281.2206 
 287   0.0000      10.334668       281.2206 
 288   0.0000      10.591925       288.2209 
 289   0.0000      10.794627       293.7367 
 290   0.0000      10.794627       293.7367 
 291   0.0000      10.965270       298.3802 
 292   0.0000      10.965270       298.3802 
 293   0.0000      11.084703       301.6301 
 294   0.0000      11.202881       304.8459 
 295   0.0000      11.277553       306.8778 
 296   0.0000      11.277554       306.8778 
 297   0.0000      11.480223       312.3927 
 298   0.0000      11.480223       312.3927 
 299   0.0000      11.755797       319.8915 
 300   0.0000      12.041216       327.6581 
 301   0.0000      12.041216       327.6581 
 302   0.0000      12.181415       331.4731 
 303   0.0000      12.181417       331.4732 
 304   0.0000      12.266798       333.7965 
 305   0.0000      12.266798       333.7965 
 306   0.0000      12.401535       337.4629 
 307   0.0000      12.603023       342.9457 
 308   0.0000      12.603023       342.9457 
 309   0.0000      12.635238       343.8223 
 310   0.0000      12.882753       350.5575 
 311   0.0000      12.882754       350.5576 
 312   0.0000      13.020581       354.3080 
 313   0.0000      13.020582       354.3080 
 314   0.0000      13.111228       356.7747 
 315   0.0000      13.111228       356.7747 
 316   0.0000      13.118701       356.9780 
 317   0.0000      13.118701       356.9780 
 318   0.0000      13.371634       363.8607 
 319   0.0000      13.371634       363.8607 
 320   0.0000      13.814222       375.9041 
 321   0.0000      13.939524       379.3137 
 322   0.0000      15.023453       408.8089 
 323   0.0000      15.023453       408.8089 
 324   0.0000      15.081690       410.3937 
 325   0.0000      15.081692       410.3937 
 326   0.0000      15.157140       412.4468 
 327   0.0000      15.964176       434.4073 
 328   0.0000      16.691228       454.1914 
 329   0.0000      16.691385       454.1957 
 330   0.0000      16.814172       457.5369 
 331   0.0000      16.814172       457.5369 
 332   0.0000      16.892672       459.6730 
 333   0.0000      16.892672       459.6730 
 334   0.0000      16.998542       462.5538 
 335   0.0000      16.998661       462.5571 
 336   0.0000      17.278947       470.1841 
 337   0.0000      17.278947       470.1841 
 338   0.0000      18.075481       491.8589 
 339   0.0000      18.075491       491.8591 
 340   0.0000      18.098845       492.4946 
 341   0.0000      18.219336       495.7733 
 342   0.0000      18.219344       495.7736 
 343   0.0000      18.820818       512.1405 
 344   0.0000      18.820818       512.1405 
 345   0.0000      19.192326       522.2498 
 346   0.0000      19.567268       532.4524 
 347   0.0000      19.829102       539.5773 
 348   0.0000      19.829102       539.5773 
 349   0.0000      20.280845       551.8699 
 350   0.0000      20.280852       551.8700 
 351   0.0000      21.037292       572.4538 
 352   0.0000      21.426539       583.0458 
 353   0.0000      21.426539       583.0458 
 354   0.0000      23.003941       625.9691 
 355   0.0000      23.004056       625.9722 
 356   0.0000      23.668991       644.0660 
 357   0.0000      23.678057       644.3127 
 358   0.0000      23.678057       644.3127 
 359   0.0000      24.335689       662.2078 
 360   0.0000      24.335689       662.2078 
 361   0.0000      25.173293       685.0001 
 362   0.0000      26.405622       718.5335 
 363   0.0000      30.558756       831.5460 
 364   0.0000      32.080768       872.9621 
 365   0.0000      32.080768       872.9621 
 366   0.0000      34.457089       937.6251 
 367   0.0000      41.324603      1124.4996 
 368   0.0000      66.572344      1811.5256 
 369   0.0000      66.572553      1811.5313 
 370   0.0000      67.394888      1833.9081 
 371   0.0000      67.394888      1833.9081 
 372   0.0000      68.548871      1865.3096 
 373   0.0000      79.695015      2168.6116 
 374   0.0000      91.147128      2480.2394 
 375   0.0000      91.147128      2480.2394 
 376   0.0000      92.198709      2508.8544 
 377   0.0000     144.083326      3920.7066 

                 SPIN DOWN ORBITALS
  NO   OCC          E(Eh)            E(eV) 
   0   1.0000     -18.761013      -510.5131 
   1   1.0000      -6.543815      -178.0663 
   2   1.0000      -0.909255       -24.7421 
   3   1.0000      -0.444791       -12.1034 
   4   1.0000      -0.366851        -9.9825 
   5   1.0000      -0.328065        -8.9271 
   6   1.0000      -0.328065        -8.9271 
   7   0.0000      -0.042778        -1.1640 
   8   0.0000      -0.042778        -1.1640 
   9   0.0000      -0.007560        -0.2057 
  10   0.0000      -0.002494        -0.0679 
  11   0.0000       0.017575         0.4782 
  12   0.0000       0.017575         0.4782 
  13   0.0000       0.024279         0.6607 
  14   0.0000       0.040290         1.0963 
  15   0.0000       0.054408         1.4805 
  16   0.0000       0.054408         1.4805 
  17   0.0000       0.055811         1.5187 
  18   0.0000       0.060805         1.6546 
  19   0.0000       0.060805         1.6546 
  20   0.0000       0.062446         1.6992 
  21   0.0000       0.062446         1.6992 
  22   0.0000       0.072714         1.9786 
  23   0.0000       0.088341         2.4039 
  24   0.0000       0.093972         2.5571 
  25   0.0000       0.093972         2.5571 
  26   0.0000       0.123468         3.3597 
  27   0.0000       0.131662         3.5827 
  28   0.0000       0.131662         3.5827 
  29   0.0000       0.146178         3.9777 
  30   0.0000       0.146178         3.9777 
  31   0.0000       0.149634         4.0717 
  32   0.0000       0.151392         4.1196 
  33   0.0000       0.151392         4.1196 
  34   0.0000       0.153514         4.1773 
  35   0.0000       0.153514         4.1773 
  36   0.0000       0.164323         4.4715 
  37   0.0000       0.164323         4.4715 
  38   0.0000       0.169255         4.6057 
  39   0.0000       0.174132         4.7384 
  40   0.0000       0.189477         5.1559 
  41   0.0000       0.189477         5.1559 
  42   0.0000       0.201363         5.4794 
  43   0.0000       0.210008         5.7146 
  44   0.0000       0.210008         5.7146 
  45   0.0000       0.214082         5.8255 
  46   0.0000       0.214082         5.8255 
  47   0.0000       0.234392         6.3781 
  48   0.0000       0.234392         6.3781 
  49   0.0000       0.246421         6.7055 
  50   0.0000       0.246421         6.7055 
  51   0.0000       0.267664         7.2835 
  52   0.0000       0.300961         8.1896 
  53   0.0000       0.301770         8.2116 
  54   0.0000       0.301770         8.2116 
  55   0.0000       0.304483         8.2854 
  56   0.0000       0.304483         8.2854 
  57   0.0000       0.314995         8.5714 
  58   0.0000       0.314995         8.5714 
  59   0.0000       0.321607         8.7514 
  60   0.0000       0.321607         8.7514 
  61   0.0000       0.329431         8.9643 
  62   0.0000       0.334038         9.0896 
  63   0.0000       0.341797         9.3008 
  64   0.0000       0.341797         9.3008 
  65   0.0000       0.342213         9.3121 
  66   0.0000       0.342213         9.3121 
  67   0.0000       0.350849         9.5471 
  68   0.0000       0.350849         9.5471 
  69   0.0000       0.355067         9.6619 
  70   0.0000       0.362157         9.8548 
  71   0.0000       0.362157         9.8548 
  72   0.0000       0.375790        10.2258 
  73   0.0000       0.375790        10.2258 
  74   0.0000       0.384788        10.4706 
  75   0.0000       0.384788        10.4706 
  76   0.0000       0.389188        10.5903 
  77   0.0000       0.395336        10.7576 
  78   0.0000       0.395336        10.7576 
  79   0.0000       0.433969        11.8089 
  80   0.0000       0.433969        11.8089 
  81   0.0000       0.463772        12.6199 
  82   0.0000       0.463772        12.6199 
  83   0.0000       0.507154        13.8004 
  84   0.0000       0.541298        14.7295 
  85   0.0000       0.541298        14.7295 
  86   0.0000       0.551675        15.0118 
  87   0.0000       0.551675        15.0118 
  88   0.0000       0.574966        15.6456 
  89   0.0000       0.595198        16.1962 
  90   0.0000       0.613058        16.6822 
  91   0.0000       0.613058        16.6822 
  92   0.0000       0.614549        16.7227 
  93   0.0000       0.614549        16.7227 
  94   0.0000       0.615396        16.7458 
  95   0.0000       0.615397        16.7458 
  96   0.0000       0.622459        16.9380 
  97   0.0000       0.648456        17.6454 
  98   0.0000       0.648456        17.6454 
  99   0.0000       0.649441        17.6722 
 100   0.0000       0.649442        17.6722 
 101   0.0000       0.654338        17.8054 
 102   0.0000       0.657857        17.9012 
 103   0.0000       0.657857        17.9012 
 104   0.0000       0.666818        18.1450 
 105   0.0000       0.681784        18.5523 
 106   0.0000       0.681784        18.5523 
 107   0.0000       0.702978        19.1290 
 108   0.0000       0.715314        19.4647 
 109   0.0000       0.715314        19.4647 
 110   0.0000       0.723994        19.7009 
 111   0.0000       0.723994        19.7009 
 112   0.0000       0.771511        20.9939 
 113   0.0000       0.771511        20.9939 
 114   0.0000       0.774447        21.0738 
 115   0.0000       0.774447        21.0738 
 116   0.0000       0.801544        21.8111 
 117   0.0000       0.801544        21.8111 
 118   0.0000       0.837031        22.7768 
 119   0.0000       0.869181        23.6516 
 120   0.0000       0.869181        23.6516 
 121   0.0000       0.897262        24.4157 
 122   0.0000       0.907206        24.6863 
 123   0.0000       0.907206        24.6863 
 124   0.0000       0.938248        25.5310 
 125   0.0000       0.938249        25.5310 
 126   0.0000       0.941148        25.6099 
 127   0.0000       0.941148        25.6099 
 128   0.0000       0.943460        25.6729 
 129   0.0000       0.943460        25.6729 
 130   0.0000       0.969958        26.3939 
 131   0.0000       0.969958        26.3939 
 132   0.0000       0.974499        26.5175 
 133   0.0000       0.994269        27.0554 
 134   0.0000       0.994269        27.0554 
 135   0.0000       1.018410        27.7124 
 136   0.0000       1.083090        29.4724 
 137   0.0000       1.083090        29.4724 
 138   0.0000       1.174199        31.9516 
 139   0.0000       1.174199        31.9516 
 140   0.0000       1.174498        31.9597 
 141   0.0000       1.184391        32.2289 
 142   0.0000       1.193368        32.4732 
 143   0.0000       1.193368        32.4732 
 144   0.0000       1.195138        32.5214 
 145   0.0000       1.195139        32.5214 
 146   0.0000       1.221586        33.2410 
 147   0.0000       1.382115        37.6093 
 148   0.0000       1.428501        38.8715 
 149   0.0000       1.428501        38.8715 
 150   0.0000       1.431994        38.9665 
 151   0.0000       1.449240        39.4358 
 152   0.0000       1.449241        39.4358 
 153   0.0000       1.493749        40.6470 
 154   0.0000       1.493749        40.6470 
 155   0.0000       1.556478        42.3539 
 156   0.0000       1.557225        42.3743 
 157   0.0000       1.557225        42.3743 
 158   0.0000       1.624047        44.1926 
 159   0.0000       1.624048        44.1926 
 160   0.0000       1.766678        48.0738 
 161   0.0000       1.766678        48.0738 
 162   0.0000       1.801802        49.0295 
 163   0.0000       1.801802        49.0295 
 164   0.0000       1.813319        49.3429 
 165   0.0000       1.858332        50.5678 
 166   0.0000       1.858332        50.5678 
 167   0.0000       1.971506        53.6474 
 168   0.0000       1.982603        53.9494 
 169   0.0000       1.982603        53.9494 
 170   0.0000       1.986366        54.0518 
 171   0.0000       1.986366        54.0518 
 172   0.0000       2.114772        57.5459 
 173   0.0000       2.172527        59.1175 
 174   0.0000       2.172527        59.1175 
 175   0.0000       2.204691        59.9927 
 176   0.0000       2.358318        64.1731 
 177   0.0000       2.497720        67.9664 
 178   0.0000       2.497721        67.9664 
 179   0.0000       2.534253        68.9605 
 180   0.0000       2.674795        72.7849 
 181   0.0000       2.674795        72.7849 
 182   0.0000       2.778016        75.5937 
 183   0.0000       2.778016        75.5937 
 184   0.0000       2.800770        76.2128 
 185   0.0000       2.926762        79.6413 
 186   0.0000       2.926763        79.6413 
 187   0.0000       2.962734        80.6201 
 188   0.0000       3.131346        85.2082 
 189   0.0000       3.131346        85.2083 
 190   0.0000       3.148479        85.6745 
 191   0.0000       3.148479        85.6745 
 192   0.0000       3.192598        86.8750 
 193   0.0000       3.192601        86.8751 
 194   0.0000       3.332244        90.6750 
 195   0.0000       3.332244        90.6750 
 196   0.0000       3.431187        93.3674 
 197   0.0000       3.560203        96.8781 
 198   0.0000       3.560203        96.8781 
 199   0.0000       3.597134        97.8830 
 200   0.0000       3.658436        99.5511 
 201   0.0000       3.658436        99.5511 
 202   0.0000       3.690270       100.4173 
 203   0.0000       3.690270       100.4173 
 204   0.0000       3.690449       100.4222 
 205   0.0000       3.690451       100.4223 
 206   0.0000       3.888787       105.8193 
 207   0.0000       3.902273       106.1862 
 208   0.0000       3.902273       106.1862 
 209   0.0000       3.905491       106.2738 
 210   0.0000       3.905491       106.2738 
 211   0.0000       4.069634       110.7404 
 212   0.0000       4.069635       110.7404 
 213   0.0000       4.150715       112.9467 
 214   0.0000       4.159121       113.1754 
 215   0.0000       4.159121       113.1754 
 216   0.0000       4.228955       115.0757 
 217   0.0000       4.343180       118.1839 
 218   0.0000       4.343180       118.1839 
 219   0.0000       4.529835       123.2631 
 220   0.0000       4.529835       123.2631 
 221   0.0000       4.635468       126.1375 
 222   0.0000       4.770777       129.8195 
 223   0.0000       4.937009       134.3428 
 224   0.0000       4.937009       134.3428 
 225   0.0000       5.016642       136.5098 
 226   0.0000       5.016643       136.5098 
 227   0.0000       5.146445       140.0419 
 228   0.0000       5.146445       140.0419 
 229   0.0000       5.175962       140.8451 
 230   0.0000       5.398200       146.8925 
 231   0.0000       5.451961       148.3554 
 232   0.0000       5.451961       148.3554 
 233   0.0000       5.760269       156.7449 
 234   0.0000       5.857769       159.3980 
 235   0.0000       5.857770       159.3980 
 236   0.0000       5.957155       162.1024 
 237   0.0000       5.957155       162.1024 
 238   0.0000       5.959441       162.1646 
 239   0.0000       5.962799       162.2560 
 240   0.0000       5.962804       162.2561 
 241   0.0000       6.372038       173.3920 
 242   0.0000       6.372038       173.3920 
 243   0.0000       6.693855       182.1491 
 244   0.0000       6.693855       182.1491 
 245   0.0000       6.800187       185.0425 
 246   0.0000       7.307025       198.8343 
 247   0.0000       7.307026       198.8343 
 248   0.0000       7.438839       202.4211 
 249   0.0000       7.739256       210.5959 
 250   0.0000       7.739258       210.5959 
 251   0.0000       7.764309       211.2776 
 252   0.0000       8.149482       221.7587 
 253   0.0000       8.220120       223.6808 
 254   0.0000       8.220120       223.6808 
 255   0.0000       8.279030       225.2838 
 256   0.0000       8.279030       225.2838 
 257   0.0000       8.725148       237.4234 
 258   0.0000       8.725151       237.4234 
 259   0.0000       8.807893       239.6749 
 260   0.0000       8.807893       239.6749 
 261   0.0000       9.124059       248.2783 
 262   0.0000       9.258995       251.9501 
 263   0.0000       9.258995       251.9501 
 264   0.0000       9.272835       252.3267 
 265   0.0000       9.272842       252.3269 
 266   0.0000       9.293015       252.8758 
 267   0.0000       9.293020       252.8759 
 268   0.0000       9.399394       255.7705 
 269   0.0000       9.399400       255.7707 
 270   0.0000       9.400684       255.8056 
 271   0.0000       9.400684       255.8056 
 272   0.0000       9.412638       256.1309 
 273   0.0000       9.412638       256.1309 
 274   0.0000       9.738048       264.9857 
 275   0.0000       9.758579       265.5444 
 276   0.0000       9.758581       265.5445 
 277   0.0000       9.791926       266.4519 
 278   0.0000       9.791926       266.4519 
 279   0.0000       9.984737       271.6985 
 280   0.0000      10.136030       275.8154 
 281   0.0000      10.136031       275.8154 
 282   0.0000      10.167957       276.6842 
 283   0.0000      10.167957       276.6842 
 284   0.0000      10.215575       277.9799 
 285   0.0000      10.215575       277.9799 
 286   0.0000      10.334668       281.2206 
 287   0.0000      10.334668       281.2206 
 288   0.0000      10.591925       288.2209 
 289   0.0000      10.794627       293.7367 
 290   0.0000      10.794627       293.7367 
 291   0.0000      10.965270       298.3802 
 292   0.0000      10.965270       298.3802 
 293   0.0000      11.084703       301.6301 
 294   0.0000      11.202881       304.8459 
 295   0.0000      11.277553       306.8778 
 296   0.0000      11.277554       306.8778 
 297   0.0000      11.480223       312.3927 
 298   0.0000      11.480223       312.3927 
 299   0.0000      11.755797       319.8915 
 300   0.0000      12.041216       327.6581 
 301   0.0000      12.041216       327.6581 
 302   0.0000      12.181415       331.4731 
 303   0.0000      12.181417       331.4732 
 304   0.0000      12.266798       333.7965 
 305   0.0000      12.266798       333.7965 
 306   0.0000      12.401535       337.4629 
 307   0.0000      12.603023       342.9457 
 308   0.0000      12.603023       342.9457 
 309   0.0000      12.635238       343.8223 
 310   0.0000      12.882753       350.5575 
 311   0.0000      12.882754       350.5576 
 312   0.0000      13.020581       354.3080 
 313   0.0000      13.020582       354.3080 
 314   0.0000      13.111228       356.7747 
 315   0.0000      13.111228       356.7747 
 316   0.0000      13.118701       356.9780 
 317   0.0000      13.118701       356.9780 
 318   0.0000      13.371634       363.8607 
 319   0.0000      13.371634       363.8607 
 320   0.0000      13.814222       375.9041 
 321   0.0000      13.939524       379.3137 
 322   0.0000      15.023453       408.8089 
 323   0.0000      15.023453       408.8089 
 324   0.0000      15.081690       410.3937 
 325   0.0000      15.081692       410.3937 
 326   0.0000      15.157140       412.4468 
 327   0.0000      15.964176       434.4073 
 328   0.0000      16.691228       454.1914 
 329   0.0000      16.691385       454.1957 
 330   0.0000      16.814172       457.5369 
 331   0.0000      16.814172       457.5369 
 332   0.0000      16.892672       459.6730 
 333   0.0000      16.892672       459.6730 
 334   0.0000      16.998542       462.5538 
 335   0.0000      16.998661       462.5571 
 336   0.0000      17.278947       470.1841 
 337   0.0000      17.278947       470.1841 
 338   0.0000      18.075481       491.8589 
 339   0.0000      18.075491       491.8591 
 340   0.0000      18.098845       492.4946 
 341   0.0000      18.219336       495.7733 
 342   0.0000      18.219344       495.7736 
 343   0.0000      18.820818       512.1405 
 344   0.0000      18.820818       512.1405 
 345   0.0000      19.192326       522.2498 
 346   0.0000      19.567268       532.4524 
 347   0.0000      19.829102       539.5773 
 348   0.0000      19.829102       539.5773 
 349   0.0000      20.280845       551.8699 
 350   0.0000      20.280852       551.8700 
 351   0.0000      21.037292       572.4538 
 352   0.0000      21.426539       583.0458 
 353   0.0000      21.426539       583.0458 
 354   0.0000      23.003941       625.9691 
 355   0.0000      23.004056       625.9722 
 356   0.0000      23.668991       644.0660 
 357   0.0000      23.678057       644.3127 
 358   0.0000      23.678057       644.3127 
 359   0.0000      24.335689       662.2078 
 360   0.0000      24.335689       662.2078 
 361   0.0000      25.173293       685.0001 
 362   0.0000      26.405622       718.5335 
 363   0.0000      30.558756       831.5460 
 364   0.0000      32.080768       872.9621 
 365   0.0000      32.080768       872.9621 
 366   0.0000      34.457089       937.6251 
 367   0.0000      41.324603      1124.4996 
 368   0.0000      66.572344      1811.5256 
 369   0.0000      66.572553      1811.5313 
 370   0.0000      67.394888      1833.9081 
 371   0.0000      67.394888      1833.9081 
 372   0.0000      68.548871      1865.3096 
 373   0.0000      79.695015      2168.6116 
 374   0.0000      91.147128      2480.2394 
 375   0.0000      91.147128      2480.2394 
 376   0.0000      92.198709      2508.8544 
 377   0.0000     144.083326      3920.7066 

                    ********************************
                    * MULLIKEN POPULATION ANALYSIS *
                    ********************************

--------------------------------------------
MULLIKEN ATOMIC CHARGES AND SPIN POPULATIONS
--------------------------------------------
   0 B :    0.196028    0.000000
   1 H :    0.127188    0.000000
   2 O :   -0.323215   -0.000000
Sum of atomic charges         :   -0.0000000
Sum of atomic spin populations:    0.0000000

-----------------------------------------------------
MULLIKEN REDUCED ORBITAL CHARGES AND SPIN POPULATIONS
-----------------------------------------------------
CHARGE
  0 B s       :     3.168169  s :     3.168169
      pz      :     0.763143  p :     1.542300
      px      :     0.389578
      py      :     0.389578
      dz2     :     0.035369  d :     0.071267
      dxz     :     0.017949
      dyz     :     0.017949
      dx2y2   :     0.000000
      dxy     :     0.000000
      f0      :     0.005868  f :     0.019509
      f+1     :     0.006820
      f-1     :     0.006820
      f+2     :     0.000000
      f-2     :     0.000000
      f+3     :     0.000000
      f-3     :     0.000000
      g0      :     0.000647  g :     0.002589
      g+1     :     0.000971
      g-1     :     0.000971
      g+2     :     0.000000
      g-2     :     0.000000
      g+3     :     0.000000
      g-3     :     0.000000
      g+4     :     0.000000
      g-4     :     0.000000
      h0      :     0.000034  h :     0.000139
      h+1     :     0.000053
      h-1     :     0.000053
      h+2     :     0.000000
      h-2     :     0.000000
      h+3     :    -0.000000
      h-3     :    -0.000000
      h+4     :     0.000000
      h-4     :     0.000000
      h+5     :     0.000000
      h-5     :     0.000000
  1 H s       :     0.853790  s :     0.853790
      pz      :    -0.006514  p :     0.011733
      px      :     0.009123
      py      :     0.009123
      dz2     :    -0.000793  d :     0.007738
      dxz     :     0.004266
      dyz     :     0.004266
      dx2y2   :    -0.000000
      dxy     :    -0.000000
      f0      :    -0.000370  f :    -0.000286
      f+1     :     0.000042
      f-1     :     0.000042
      f+2     :    -0.000000
      f-2     :    -0.000000
      f+3     :     0.000000
      f-3     :     0.000000
      g0      :    -0.000038  g :    -0.000162
      g+1     :    -0.000062
      g-1     :    -0.000062
      g+2     :     0.000000
      g-2     :    -0.000000
      g+3     :     0.000000
      g-3     :     0.000000
      g+4     :     0.000000
      g-4     :     0.000000
  2 O s       :     3.816672  s :     3.816672
      pz      :     1.374630  p :     4.485526
      px      :     1.555448
      py      :     1.555448
      dz2     :    -0.009350  d :     0.021041
      dxz     :     0.015195
      dyz     :     0.015195
      dx2y2   :    -0.000000
      dxy     :    -0.000000
      f0      :    -0.001078  f :     0.000227
      f+1     :     0.000653
      f-1     :     0.000653
      f+2     :     0.000000
      f-2     :     0.000000
      f+3     :     0.000000
      f-3     :     0.000000
      g0      :    -0.000150  g :    -0.000206
      g+1     :    -0.000028
      g-1     :    -0.000028
      g+2     :    -0.000000
      g-2     :    -0.000000
      g+3     :     0.000000
      g-3     :     0.000000
      g+4     :     0.000000
      g-4     :     0.000000
      h0      :    -0.000029  h :    -0.000045
      h+1     :    -0.000008
      h-1     :    -0.000008
      h+2     :     0.000000
      h-2     :     0.000000
      h+3     :     0.000000
      h-3     :     0.000000
      h+4     :     0.000000
      h-4     :     0.000000
      h+5     :     0.000000
      h-5     :     0.000000

SPIN
  0 B s       :     0.000000  s :     0.000000
      pz      :    -0.000000  p :    -0.000000
      px      :     0.000000
      py      :     0.000000
      dz2     :     0.000000  d :     0.000000
      dxz     :    -0.000000
      dyz     :    -0.000000
      dx2y2   :    -0.000000
      dxy     :    -0.000000
      f0      :     0.000000  f :     0.000000
      f+1     :     0.000000
      f-1     :     0.000000
      f+2     :     0.000000
      f-2     :     0.000000
      f+3     :    -0.000000
      f-3     :     0.000000
      g0      :    -0.000000  g :    -0.000000
      g+1     :    -0.000000
      g-1     :    -0.000000
      g+2     :    -0.000000
      g-2     :     0.000000
      g+3     :    -0.000000
      g-3     :     0.000000
      g+4     :    -0.000000
      g-4     :     0.000000
      h0      :     0.000000  h :     0.000000
      h+1     :     0.000000
      h-1     :    -0.000000
      h+2     :     0.000000
      h-2     :     0.000000
      h+3     :     0.000000
      h-3     :    -0.000000
      h+4     :    -0.000000
      h-4     :     0.000000
      h+5     :     0.000000
      h-5     :     0.000000
  1 H s       :     0.000000  s :     0.000000
      pz      :     0.000000  p :     0.000000
      px      :    -0.000000
      py      :    -0.000000
      dz2     :     0.000000  d :     0.000000
      dxz     :     0.000000
      dyz     :     0.000000
      dx2y2   :     0.000000
      dxy     :     0.000000
      f0      :     0.000000  f :     0.000000
      f+1     :     0.000000
      f-1     :     0.000000
      f+2     :     0.000000
      f-2     :    -0.000000
      f+3     :    -0.000000
      f-3     :     0.000000
      g0      :     0.000000  g :     0.000000
      g+1     :     0.000000
      g-1     :     0.000000
      g+2     :     0.000000
      g-2     :     0.000000
      g+3     :    -0.000000
      g-3     :     0.000000
      g+4     :    -0.000000
      g-4     :     0.000000
  2 O s       :    -0.000000  s :    -0.000000
      pz      :     0.000000  p :     0.000000
      px      :    -0.000000
      py      :    -0.000000
      dz2     :    -0.000000  d :    -0.000000
      dxz     :    -0.000000
      dyz     :    -0.000000
      dx2y2   :     0.000000
      dxy     :    -0.000000
      f0      :     0.000000  f :     0.000000
      f+1     :    -0.000000
      f-1     :    -0.000000
      f+2     :     0.000000
      f-2     :     0.000000
      f+3     :     0.000000
      f-3     :    -0.000000
      g0      :     0.000000  g :     0.000000
      g+1     :    -0.000000
      g-1     :    -0.000000
      g+2     :    -0.000000
      g-2     :     0.000000
      g+3     :    -0.000000
      g-3     :     0.000000
      g+4     :    -0.000000
      g-4     :     0.000000
      h0      :     0.000000  h :     0.000000
      h+1     :    -0.000000
      h-1     :    -0.000000
      h+2     :     0.000000
      h-2     :    -0.000000
      h+3     :     0.000000
      h-3     :    -0.000000
      h+4     :     0.000000
      h-4     :    -0.000000
      h+5     :    -0.000000
      h-5     :    -0.000000


                     *******************************
                     * LOEWDIN POPULATION ANALYSIS *
                     *******************************

-------------------------------------------
LOEWDIN ATOMIC CHARGES AND SPIN POPULATIONS
-------------------------------------------
   0 B :    0.000875    0.000000
   1 H :   -0.389305    0.000000
   2 O :    0.388430   -0.000000

----------------------------------------------------
LOEWDIN REDUCED ORBITAL CHARGES AND SPIN POPULATIONS
----------------------------------------------------
CHARGE
  0 B s       :     2.509619  s :     2.509619
      pz      :     0.948287  p :     1.731372
      px      :     0.391542
      py      :     0.391542
      dz2     :     0.247862  d :     0.492528
      dxz     :     0.122333
      dyz     :     0.122333
      dx2y2   :     0.000000
      dxy     :     0.000000
      f0      :     0.080836  f :     0.195235
      f+1     :     0.057199
      f-1     :     0.057199
      f+2     :     0.000000
      f-2     :     0.000000
      f+3     :     0.000000
      f-3     :     0.000000
      g0      :     0.016035  g :     0.065745
      g+1     :     0.024855
      g-1     :     0.024855
      g+2     :     0.000000
      g-2     :     0.000000
      g+3     :     0.000000
      g-3     :     0.000000
      g+4     :     0.000000
      g-4     :     0.000000
      h0      :     0.001542  h :     0.004626
      h+1     :     0.001542
      h-1     :     0.001542
      h+2     :     0.000000
      h-2     :     0.000000
      h+3     :     0.000000
      h-3     :     0.000000
      h+4     :     0.000000
      h-4     :     0.000000
      h+5     :     0.000000
      h-5     :     0.000000
  1 H s       :     0.855972  s :     0.855972
      pz      :     0.120411  p :     0.184101
      px      :     0.031845
      py      :     0.031845
      dz2     :     0.067181  d :     0.149414
      dxz     :     0.041116
      dyz     :     0.041116
      dx2y2   :     0.000000
      dxy     :     0.000000
      f0      :     0.049916  f :     0.113706
      f+1     :     0.031895
      f-1     :     0.031895
      f+2     :     0.000000
      f-2     :     0.000000
      f+3     :     0.000000
      f-3     :     0.000000
      g0      :     0.035379  g :     0.086112
      g+1     :     0.025366
      g-1     :     0.025366
      g+2     :     0.000000
      g-2     :     0.000000
      g+3     :     0.000000
      g-3     :     0.000000
      g+4     :     0.000000
      g-4     :     0.000000
  2 O s       :     3.213842  s :     3.213842
      pz      :     1.649292  p :     4.123599
      px      :     1.237154
      py      :     1.237154
      dz2     :     0.108471  d :     0.149934
      dxz     :     0.020731
      dyz     :     0.020731
      dx2y2   :     0.000000
      dxy     :     0.000000
      f0      :     0.061203  f :     0.084786
      f+1     :     0.011792
      f-1     :     0.011792
      f+2     :     0.000000
      f-2     :     0.000000
      f+3     :     0.000000
      f-3     :     0.000000
      g0      :     0.024538  g :     0.029478
      g+1     :     0.002470
      g-1     :     0.002470
      g+2     :     0.000000
      g-2     :     0.000000
      g+3     :     0.000000
      g-3     :     0.000000
      g+4     :     0.000000
      g-4     :     0.000000
      h0      :     0.009613  h :     0.009931
      h+1     :     0.000159
      h-1     :     0.000159
      h+2     :     0.000000
      h-2     :     0.000000
      h+3     :     0.000000
      h-3     :     0.000000
      h+4     :     0.000000
      h-4     :     0.000000
      h+5     :     0.000000
      h-5     :     0.000000

SPIN
  0 B s       :     0.000000  s :     0.000000
      pz      :    -0.000000  p :    -0.000000
      px      :     0.000000
      py      :    -0.000000
      dz2     :     0.000000  d :     0.000000
      dxz     :     0.000000
      dyz     :    -0.000000
      dx2y2   :    -0.000000
      dxy     :    -0.000000
      f0      :    -0.000000  f :    -0.000000
      f+1     :    -0.000000
      f-1     :     0.000000
      f+2     :    -0.000000
      f-2     :     0.000000
      f+3     :    -0.000000
      f-3     :     0.000000
      g0      :    -0.000000  g :    -0.000000
      g+1     :    -0.000000
      g-1     :    -0.000000
      g+2     :     0.000000
      g-2     :    -0.000000
      g+3     :    -0.000000
      g-3     :     0.000000
      g+4     :    -0.000000
      g-4     :     0.000000
      h0      :     0.000000  h :     0.000000
      h+1     :     0.000000
      h-1     :     0.000000
      h+2     :    -0.000000
      h-2     :     0.000000
      h+3     :    -0.000000
      h-3     :     0.000000
      h+4     :    -0.000000
      h-4     :     0.000000
      h+5     :     0.000000
      h-5     :     0.000000
  1 H s       :     0.000000  s :     0.000000
      pz      :     0.000000  p :     0.000000
      px      :    -0.000000
      py      :     0.000000
      dz2     :     0.000000  d :     0.000000
      dxz     :     0.000000
      dyz     :    -0.000000
      dx2y2   :     0.000000
      dxy     :     0.000000
      f0      :     0.000000  f :     0.000000
      f+1     :     0.000000
      f-1     :     0.000000
      f+2     :    -0.000000
      f-2     :    -0.000000
      f+3     :     0.000000
      f-3     :    -0.000000
      g0      :    -0.000000  g :    -0.000000
      g+1     :     0.000000
      g-1     :    -0.000000
      g+2     :    -0.000000
      g-2     :     0.000000
      g+3     :    -0.000000
      g-3     :     0.000000
      g+4     :    -0.000000
      g-4     :     0.000000
  2 O s       :    -0.000000  s :    -0.000000
      pz      :    -0.000000  p :    -0.000000
      px      :    -0.000000
      py      :     0.000000
      dz2     :     0.000000  d :     0.000000
      dxz     :     0.000000
      dyz     :    -0.000000
      dx2y2   :     0.000000
      dxy     :    -0.000000
      f0      :    -0.000000  f :    -0.000000
      f+1     :     0.000000
      f-1     :    -0.000000
      f+2     :     0.000000
      f-2     :     0.000000
      f+3     :     0.000000
      f-3     :    -0.000000
      g0      :    -0.000000  g :    -0.000000
      g+1     :    -0.000000
      g-1     :    -0.000000
      g+2     :     0.000000
      g-2     :     0.000000
      g+3     :    -0.000000
      g-3     :     0.000000
      g+4     :    -0.000000
      g-4     :     0.000000
      h0      :     0.000000  h :     0.000000
      h+1     :    -0.000000
      h-1     :    -0.000000
      h+2     :     0.000000
      h-2     :    -0.000000
      h+3     :    -0.000000
      h-3     :    -0.000000
      h+4     :     0.000000
      h-4     :    -0.000000
      h+5     :    -0.000000
      h-5     :    -0.000000


                      *****************************
                      * MAYER POPULATION ANALYSIS *
                      *****************************

  NA   - Mulliken gross atomic population
  ZA   - Total nuclear charge
  QA   - Mulliken gross atomic charge
  VA   - Mayer's total valence
  BVA  - Mayer's bonded valence
  FA   - Mayer's free valence

  ATOM       NA         ZA         QA         VA         BVA        FA
  0 B      4.8040     5.0000     0.1960     3.0639     3.0639    -0.0000
  1 H      0.8728     1.0000     0.1272     1.0024     1.0024    -0.0000
  2 O      8.3232     8.0000    -0.3232     1.9611     1.9611    -0.0000

  Mayer bond orders larger than 0.1
B(  0-B ,  1-H ) :   1.0526 B(  0-B ,  2-O ) :   2.0113 

-------
TIMINGS
-------

Total SCF time: 0 days 0 hours 11 min 29 sec 

Total time                  ....     689.118 sec
Sum of individual times     ....     687.691 sec  ( 99.8%)

Fock matrix formation       ....     683.906 sec  ( 99.2%)
  XC integration            ....      13.128 sec  (  1.9% of F)
    Basis function eval.    ....       0.826 sec  (  6.3% of XC)
    Density eval.           ....       2.692 sec  ( 20.5% of XC)
    XC-Functional eval.     ....       0.132 sec  (  1.0% of XC)
    XC-Potential eval.      ....       8.796 sec  ( 67.0% of XC)
Diagonalization             ....       1.952 sec  (  0.3%)
Density matrix formation    ....       0.024 sec  (  0.0%)
Population analysis         ....       0.141 sec  (  0.0%)
Initial guess               ....       0.640 sec  (  0.1%)
Orbital Transformation      ....       0.000 sec  (  0.0%)
Orbital Orthonormalization  ....       0.000 sec  (  0.0%)
DIIS solution               ....       0.697 sec  (  0.1%)
Grid generation             ....       0.331 sec  (  0.0%)

-------------------------   --------------------
FINAL SINGLE POINT ENERGY      -100.637279124475
-------------------------   --------------------


                            ***************************************
                            *     ORCA property calculations      *
                            ***************************************

                                    ---------------------
                                    Active property flags
                                    ---------------------
   (+) Dipole Moment
   (+) Polarizability


------------------------------------------------------------------------------
                       ORCA ELECTRIC PROPERTIES CALCULATION
------------------------------------------------------------------------------

Dipole Moment Calculation                       ... on
Quadrupole Moment Calculation                   ... off
Polarizability Calculation                      ... Analytic (CP-SCF)
GBWName                                         ... hbo_pbe.gbw
Electron density file                           ... hbo_pbe.scfp.tmp
The origin for moment calculation is the CENTER OF MASS  = ( 0.000000,  0.000000  3.427831)

-------------
DIPOLE MOMENT
-------------
                                X             Y             Z
Electronic contribution:      0.00000      -0.00000       0.18657
Nuclear contribution   :      0.00000       0.00000      -1.20380
                        -----------------------------------------
Total Dipole Moment    :      0.00000      -0.00000      -1.01722
                        -----------------------------------------
Magnitude (a.u.)       :      1.01722
Magnitude (Debye)      :      2.58557



--------------------
Rotational spectrum 
--------------------
 
Rotational constants in cm-1:     0.000000     1.324137     1.324137 
Rotational constants in MHz :     0.000000 39696.630725 39696.630725 

 Dipole components along the rotational axes: 
x,y,z [a.u.] :    -1.017223    -0.000000     0.000000 
x,y,z [Debye]:    -2.585575    -0.000000     0.000000 

 
Transforming and storing MO dipole integrals   ... done

                ... starting polarizability calculation

Opening the Dipole integral file               ... (hbo_pbe.dmo.tmp) done
Reading Dipole-MO integrals                    ... done
Solving CP-SCF equations                       ... 

           ************************************************************
           *        Program running with 4 parallel MPI-processes     *
           *              working on a common directory               *
           ************************************************************

------------------------------------------------------------------------------
                           ORCA CP-SCF CALCULATION
------------------------------------------------------------------------------

Input orbitals are from        ... hbo_pbe.gbw
Input Perturbation             ... hbo_pbe.cpv.tmp
Wavefunction output            ... hbo_pbe.cpu.tmp
Perturbation mode              ... Real perturbation (singlet)
Solver                         ... POPLE
Max. number of iterations      ... 200
Convergence tolerance          ... 1.000e-06
Integral handling              ... Direct
Number of perturbations        ... 3
Number of operators            ... 2
Orbital ranges used for CP-SCF:
 Operator 0:  Orbitals   0...  6  to   7...377
 Operator 1:  Orbitals   0...  6  to   7...377
DFT calculation                         ... on
Exchange functional (SCF)               ... PBE
Exchange functional (CP-SCF)            ... PBE
   PBE kappa parameter  XKappa (SCF)    ...  0.804000
   PBE kappa parameter  XKappa (CP-SCF) ...  0.804000
   PBE mue parameter   XMuePBE (SCF)    ...  0.219520
   PBE mue parameter   XMuePBE (CP-SCF) ...  0.219520
Correlation functional (SCF)            ... PBE
Correlation functional (CP-SCF)         ... PBE
   PBE beta parameter CBetaPBE (SCF)    ...  0.066725
   PBE beta parameter CBetaPBE (CP-SCF) ...  0.066725
 LDA part of GGA corr.  LDAOpt (SCF)    ... PW91-LDA
 LDA part of GGA corr.  LDAOpt (CP-SCF) ... PW91-LDA
Variables per vector in CP-SCF ... 5194
Number of vectors sought       ... 3
Recalculating density on grid  ... done
Calculating the xc-kernel      ... done
     CP-SCF ITERATION   0: 
     CP-SCF ITERATION   1:      0.188088368741
     CP-SCF ITERATION   2:      0.003151494615
     CP-SCF ITERATION   3:      0.000155524714
     CP-SCF ITERATION   4:      0.000000888678
done
Reading CP-SCF coefficients                    ... done
Doing the polarizability tensor   ... done
Cleaning up                                    ... done

-------------------------
THE POLARIZABILITY TENSOR
-------------------------

The raw cartesian tensor (atomic units):
   15.14025     -0.00000      0.00000  
   -0.00000     15.14025      0.00000  
    0.00000      0.00000     22.21469  
diagonalized tensor: 
   15.14025     15.14025     22.21469  

   -0.82696      0.56226      0.00000  
   -0.56226     -0.82696      0.00000  
    0.00000      0.00000      1.00000  

Isotropic polarizability :  17.49840


Timings for individual modules:

Sum of individual times         ...     1094.898 sec (=  18.248 min)
GTO integral calculation        ...        1.744 sec (=   0.029 min)   0.2 %
SCF iterations                  ...      689.440 sec (=  11.491 min)  63.0 %
Solution of CP-SCF eqns.        ...      403.713 sec (=   6.729 min)  36.9 %
                             ****ORCA TERMINATED NORMALLY****
TOTAL RUN TIME: 0 days 0 hours 18 minutes 15 seconds 705 msec
