
                                 *****************
                                 * O   R   C   A *
                                 *****************

           --- An Ab Initio, DFT and Semiempirical electronic structure package ---

                  #######################################################
                  #                        -***-                        #
                  #          Department of theory and spectroscopy      #
                  #               Directorship: Frank Neese             #
                  #        Max Planck Institute fuer Kohlenforschung    #
                  #                Kaiser Wilhelm Platz 1               #
                  #                 D-45470 Muelheim/Ruhr               #
                  #                      Germany                        #
                  #                                                     #
                  #                  All rights reserved                #
                  #                        -***-                        #
                  #######################################################


                         Program Version 4.1.2  - RELEASE  -


 With contributions from (in alphabetic order):
   Daniel Aravena         : Magnetic Properties
   Michael Atanasov       : Ab Initio Ligand Field Theory
   Alexander A. Auer      : GIAO ZORA
   Ute Becker             : Parallelization
   Giovanni Bistoni       : ED, Open-shell LED
   Martin Brehm           : Molecular dynamics
   Dmytro Bykov           : SCF Hessian
   Vijay G. Chilkuri      : MRCI spin determinant printing
   Dipayan Datta          : RHF DLPNO-CCSD density
   Achintya Kumar Dutta   : EOM-CC, STEOM-CC
   Dmitry Ganyushin       : Spin-Orbit,Spin-Spin,Magnetic field MRCI
   Miquel Garcia          : C-PCM Hessian
   Yang Guo               : DLPNO-NEVPT2, CIM, IAO-localization
   Andreas Hansen         : Spin unrestricted coupled pair/coupled cluster methods
   Benjamin Helmich-Paris : CASSCF linear response (MC-RPA)
   Lee Huntington         : MR-EOM, pCC
   Robert Izsak           : Overlap fitted RIJCOSX, COSX-SCS-MP3, EOM
   Christian Kollmar      : KDIIS, OOCD, Brueckner-CCSD(T), CCSD density
   Simone Kossmann        : Meta GGA functionals, TD-DFT gradient, OOMP2, MP2 Hessian
   Martin Krupicka        : AUTO-CI
   Lucas Lang             : DCDCAS
   Dagmar Lenk            : GEPOL surface, SMD
   Dimitrios Liakos       : Extrapolation schemes; parallel MDCI
   Dimitrios Manganas     : ROCIS; embedding schemes
   Dimitrios Pantazis     : SARC Basis sets
   Taras Petrenko         : DFT Hessian,TD-DFT gradient, ASA, ECA, R-Raman, ABS, FL, XAS/XES, NRVS
   Peter Pinski           : DLPNO-MP2, DLPNO-MP2 Gradient
   Christoph Reimann      : Effective Core Potentials
   Marius Retegan         : Local ZFS, SOC
   Christoph Riplinger    : Optimizer, TS searches, QM/MM, DLPNO-CCSD(T), (RO)-DLPNO pert. Triples
   Tobias Risthaus        : Range-separated hybrids, TD-DFT gradient, RPA, STAB
   Michael Roemelt        : Restricted open shell CIS
   Masaaki Saitow         : Open-shell DLPNO
   Barbara Sandhoefer     : DKH picture change effects
   Avijit Sen             : IP-ROCIS
   Kantharuban Sivalingam : CASSCF convergence, NEVPT2, FIC-MRCI
   Bernardo de Souza      : ESD, SOC TD-DFT
   Georgi Stoychev        : AutoAux, RI-MP2 NMR
   Willem Van den Heuvel  : Paramagnetic NMR
   Boris Wezisla          : Elementary symmetry handling
   Frank Wennmohs         : Technical directorship


 We gratefully acknowledge several colleagues who have allowed us to
 interface, adapt or use parts of their codes:
   Stefan Grimme, W. Hujo, H. Kruse,             : VdW corrections, initial TS optimization,
                  C. Bannwarth                     DFT functionals, gCP, sTDA/sTD-DF
   Ed Valeev                                     : LibInt (2-el integral package), F12 methods
   Garnet Chan, S. Sharma, J. Yang, R. Olivares  : DMRG
   Ulf Ekstrom                                   : XCFun DFT Library
   Mihaly Kallay                                 : mrcc  (arbitrary order and MRCC methods)
   Andreas Klamt, Michael Diedenhofen            : otool_cosmo (COSMO solvation model)
   Jiri Pittner, Ondrej Demel                    : Mk-CCSD
   Frank Weinhold                                : gennbo (NPA and NBO analysis)
   Christopher J. Cramer and Donald G. Truhlar   : smd solvation model
   Lars Goerigk                                  : TD-DFT with DH, B97 family of functionals
   V. Asgeirsson, H. Jonsson                     : NEB implementation
   FAccTs GmbH                                   : IRC, NEB, NEB-TS, Multilevel


 Your calculation uses the libint2 library for the computation of 2-el integrals
 For citations please refer to: http://libint.valeyev.net

 This ORCA versions uses:
   CBLAS   interface :  Fast vector & matrix operations
   LAPACKE interface :  Fast linear algebra routines
   SCALAPACK package :  Parallel linear algebra routines


----- Orbital basis set information -----
Your calculation utilizes the basis: aug-pc-4
   H, C-F              : F. Jensen, J. Chem. Phys. 115, 9113 (2001).
                         F. Jensen, J. Chem. Phys. 116, 7372 (2002).
                         F. Jensen, J. Chem. Phys. 117, 9234 (2002).
   Si-Cl               : F. Jensen, T. Helgaker, J. Chem. Phys. 121, 3463 (2004).
   He-B, Ne-Mg, Al, Ar : F. Jensen, J. Phys. Chem. A 111, 11198 (2007).
   K, Ca, Ga-Kr        : F. Jensen, J. Chem. Phys. 136, 094110 (2012).
   Sc-Zn               : F. Jensen, J. Chem. Phys. 138, 014107 (2013).

================================================================================
                                        WARNINGS
                       Please study these warnings very carefully!
================================================================================


INFO   : the flag for use of LIBINT has been found!

================================================================================
                                       INPUT FILE
================================================================================
NAME = hbs_pbe.inp
|  1> !uks pbe nori aug-pc-4 grid5 nofinalgrid verytightscf
|  2> 
|  3> %maxcore 1500
|  4> 
|  5> %pal nprocs 4 end
|  6> 
|  7> %scf
|  8> 	maxiter 200
|  9> end
| 10> %elprop
| 11> 	dipole true
| 12> 	 polar 1
| 13> 	 maxiter 200
| 14> end
| 15> 
| 16> * xyz 0 1
| 17> B 0.0000 0.0000 0.0000
| 18> H 0.0000 0.0000 1.1692
| 19> S 0.0000 0.0000 -1.5995
| 20> *
| 21> 
| 22>                          ****END OF INPUT****
================================================================================

                       ****************************
                       * Single Point Calculation *
                       ****************************

---------------------------------
CARTESIAN COORDINATES (ANGSTROEM)
---------------------------------
  B      0.000000    0.000000    0.000000
  H      0.000000    0.000000    1.169200
  S      0.000000    0.000000   -1.599500

----------------------------
CARTESIAN COORDINATES (A.U.)
----------------------------
  NO LB      ZA    FRAG     MASS         X           Y           Z
   0 B     5.0000    0    10.810    0.000000    0.000000    0.000000
   1 H     1.0000    0     1.008    0.000000    0.000000    2.209468
   2 S    16.0000    0    32.060    0.000000    0.000000   -3.022617

--------------------------------
INTERNAL COORDINATES (ANGSTROEM)
--------------------------------
 B      0   0   0     0.000000000000     0.00000000     0.00000000
 H      1   0   0     1.169200000000     0.00000000     0.00000000
 S      1   2   0     1.599500000000   180.00000000     0.00000000

---------------------------
INTERNAL COORDINATES (A.U.)
---------------------------
 B      0   0   0     0.000000000000     0.00000000     0.00000000
 H      1   0   0     2.209467795781     0.00000000     0.00000000
 S      1   2   0     3.022616951207   180.00000000     0.00000000

---------------------
BASIS SET INFORMATION
---------------------
There are 3 groups of distinct atoms

 Group   1 Type B   : 27s12p7d4f3g2h contracted to 9s8p7d4f3g2h pattern {1191111111/51111111/1111111/1111/111/11}
 Group   2 Type H   : 12s7p4d3f2g contracted to 8s7p4d3f2g pattern {51111111/1111111/1111/111/11}
 Group   3 Type S   : 44s27p7d4f3g2h contracted to 8s7p7d4f3g2h pattern {15121211111/111111111/1111111/1111/111/11}

Atom   0B    basis set group =>   1
Atom   1H    basis set group =>   2
Atom   2S    basis set group =>   3


           ************************************************************
           *        Program running with 4 parallel MPI-processes     *
           *              working on a common directory               *
           ************************************************************
------------------------------------------------------------------------------
                           ORCA GTO INTEGRAL CALCULATION
------------------------------------------------------------------------------

                         BASIS SET STATISTICS AND STARTUP INFO

 # of primitive gaussian shells          ...  170
 # of primitive gaussian functions       ...  504
 # of contracted shells                  ...   88
 # of contracted basis functions         ...  374
 Highest angular momentum                ...    5
 Maximum contraction depth               ...   15
 Integral package used                   ... LIBINT
 Integral threshhold            Thresh   ...  1.000e-12
 Primitive cut-off              TCut     ...  1.000e-14


------------------------------ INTEGRAL EVALUATION ----------------------------


 * One electron integrals 
 Pre-screening matrix                    ... done
 Shell pair data                         ... done (   0.002 sec)



           ************************************************************
           *        Program running with 4 parallel MPI-processes     *
           *              working on a common directory               *
           ************************************************************
-------------------------------------------------------------------------------
                                 ORCA SCF
-------------------------------------------------------------------------------

------------
SCF SETTINGS
------------
Hamiltonian:
 Density Functional     Method          .... DFT(GTOs)
 Exchange Functional    Exchange        .... PBE
   PBE kappa parameter   XKappa         ....  0.804000
   PBE mue parameter    XMuePBE         ....  0.219520
 Correlation Functional Correlation     .... PBE
   PBE beta parameter  CBetaPBE         ....  0.066725
 LDA part of GGA corr.  LDAOpt          .... PW91-LDA
 Gradients option       PostSCFGGA      .... off
   Density functional embedding theory  .... OFF
   NL short-range parameter             ....  6.400000


General Settings:
 Integral files         IntName         .... hbs_pbe
 Hartree-Fock type      HFTyp           .... UHF
 Total Charge           Charge          ....    0
 Multiplicity           Mult            ....    1
 Number of Electrons    NEL             ....   22
 Basis Dimension        Dim             ....  374
 Nuclear Repulsion      ENuc            ....     31.7881742389 Eh

Convergence Acceleration:
 DIIS                   CNVDIIS         .... on
   Start iteration      DIISMaxIt       ....    12
   Startup error        DIISStart       ....  0.200000
   # of expansion vecs  DIISMaxEq       ....     5
   Bias factor          DIISBfac        ....   1.050
   Max. coefficient     DIISMaxC        ....  10.000
 Newton-Raphson         CNVNR           .... off
 SOSCF                  CNVSOSCF        .... off
 Level Shifting         CNVShift        .... on
   Level shift para.    LevelShift      ....    0.2500
   Turn off err/grad.   ShiftErr        ....    0.0010
 Zerner damping         CNVZerner       .... off
 Static damping         CNVDamp         .... on
   Fraction old density DampFac         ....    0.7000
   Max. Damping (<1)    DampMax         ....    0.9800
   Min. Damping (>=0)   DampMin         ....    0.0000
   Turn off err/grad.   DampErr         ....    0.1000
 Fernandez-Rico         CNVRico         .... off

SCF Procedure:
 Maximum # iterations   MaxIter         ....   200
 SCF integral mode      SCFMode         .... Direct
   Integral package                     .... LIBINT
 Reset frequency        DirectResetFreq ....    20
 Integral Threshold     Thresh          ....  1.000e-12 Eh
 Primitive CutOff       TCut            ....  1.000e-14 Eh

Convergence Tolerance:
 Convergence Check Mode ConvCheckMode   .... Total+1el-Energy
 Convergence forced     ConvForced      .... 0
 Energy Change          TolE            ....  1.000e-09 Eh
 1-El. energy change                    ....  1.000e-06 Eh
 DIIS Error             TolErr          ....  1.000e-08


Diagonalization of the overlap matrix:
Smallest eigenvalue                        ... 5.140e-07
Time for diagonalization                   ...    0.025 sec
Threshold for overlap eigenvalues          ... 1.000e-08
Number of eigenvalues below threshold      ... 0
Time for construction of square roots      ...    0.019 sec
Total time needed                          ...    0.044 sec

-------------------
DFT GRID GENERATION
-------------------

General Integration Accuracy     IntAcc      ...  5.010
Radial Grid Type                 RadialGrid  ... Gauss-Chebyshev
Angular Grid (max. acc.)         AngularGrid ... Lebedev-434
Angular grid pruning method      GridPruning ... 3 (G Style)
Weight generation scheme         WeightScheme... Becke
Basis function cutoff            BFCut       ...    1.0000e-12
Integration weight cutoff        WCut        ...    1.0000e-14
Grids for H and He will be reduced by one unit

# of grid points (after initial pruning)     ...  29022 (   0.0 sec)
# of grid points (after weights+screening)   ...  28724 (   0.0 sec)
nearest neighbour list constructed           ...    0.0 sec
Grid point re-assignment to atoms done       ...    0.0 sec
Grid point division into batches done        ...    0.2 sec
Reduced shell lists constructed in    0.3 sec

Total number of grid points                  ...    28724
Total number of batches                      ...      450
Average number of points per batch           ...       63
Average number of grid points per atom       ...     9575
Average number of shells per batch           ...    74.71 (84.90%)
Average number of basis functions per batch  ...   325.20 (86.95%)
Average number of large shells per batch     ...    69.21 (92.64%)
Average number of large basis fcns per batch ...   303.96 (93.47%)
Maximum spatial batch extension              ...  32.60, 32.60,  2.56 au
Average spatial batch extension              ...   0.75,  0.72,  0.35 au

Time for grid setup =    0.338 sec

------------------------------
INITIAL GUESS: MODEL POTENTIAL
------------------------------
Loading Hartree-Fock densities                     ... done
Calculating cut-offs                               ... done
Setting up the integral package                    ... done
Initializing the effective Hamiltonian             ... done
Starting the Coulomb interaction                   ... done (   0.0 sec)
Reading the grid                                   ... done
Mapping shells                                     ... done
Starting the XC term evaluation                    ... done (   0.5 sec)
  promolecular density results
     # of electrons  =     21.999512539
     EX              =    -28.929355647
     EC              =     -0.776302963
     EX+EC           =    -29.705658611
Transforming the Hamiltonian                       ... done (   0.0 sec)
Diagonalizing the Hamiltonian                      ... done (   0.0 sec)
Back transforming the eigenvectors                 ... done (   0.0 sec)
Now organizing SCF variables                       ... done
                      ------------------
                      INITIAL GUESS DONE (   1.2 sec)
                      ------------------
--------------
SCF ITERATIONS
--------------
ITER       Energy         Delta-E        Max-DP      RMS-DP      [F,P]     Damp
               ***  Starting incremental Fock matrix formation  ***
  0   -423.4290012062   0.000000000000 0.04666823  0.00034645  0.1351282 0.7000
  1   -423.4500410621  -0.021039855875 0.02613433  0.00020010  0.0636278 0.7000
                               ***Turning on DIIS***
  2   -423.4574227916  -0.007381729484 0.03561496  0.00032976  0.0256104 0.0000
  3   -423.4666839335  -0.009261141968 0.01439767  0.00013104  0.0480145 0.0000
  4   -423.4709040381  -0.004220104589 0.00931570  0.00005476  0.0134982 0.0000
  5   -423.4714432650  -0.000539226916 0.00572792  0.00004156  0.0019055 0.0000
  6   -423.4714584904  -0.000015225357 0.00138294  0.00001156  0.0007045 0.0000
  7   -423.4714605213  -0.000002030917 0.00020124  0.00000196  0.0002179 0.0000
  8   -423.4714606151  -0.000000093757 0.00002154  0.00000025  0.0000701 0.0000
  9   -423.4714606244  -0.000000009380 0.00003656  0.00000024  0.0000079 0.0000
 10   -423.4714606246  -0.000000000162 0.00003832  0.00000020  0.0000018 0.0000
 11   -423.4714606246  -0.000000000006 0.00003488  0.00000020  0.0000005 0.0000
 12   -423.4714606246   0.000000000004 0.00003738  0.00000032  0.0000001 0.0000
                 **** Energy Check signals convergence ****

               *****************************************************
               *                     SUCCESS                       *
               *           SCF CONVERGED AFTER  13 CYCLES          *
               *****************************************************


----------------
TOTAL SCF ENERGY
----------------

Total Energy       :         -423.47146062 Eh          -11523.24427 eV

Components:
Nuclear Repulsion  :           31.78817424 Eh             865.00020 eV
Electronic Energy  :         -455.25963486 Eh          -12388.24447 eV
One Electron Energy:         -646.67559218 Eh          -17596.93747 eV
Two Electron Energy:          191.41595732 Eh            5208.69300 eV

Virial components:
Potential Energy   :         -846.51308821 Eh          -23034.79220 eV
Kinetic Energy     :          423.04162759 Eh           11511.54792 eV
Virial Ratio       :            2.00101605


DFT components:
N(Alpha)           :       10.999999921782 electrons
N(Beta)            :       10.999999921782 electrons
N(Total)           :       21.999999843563 electrons
E(X)               :      -29.083038950683 Eh       
E(C)               :       -0.781109743820 Eh       
E(XC)              :      -29.864148694503 Eh       
DFET-embed. en.    :        0.000000000000 Eh       

---------------
SCF CONVERGENCE
---------------

  Last Energy change         ...    5.1159e-13  Tolerance :   1.0000e-09
  Last MAX-Density change    ...    3.4144e-04  Tolerance :   1.0000e-08
  Last RMS-Density change    ...    1.9750e-06  Tolerance :   1.0000e-09
  Last DIIS Error            ...    7.8048e-09  Tolerance :   1.0000e-08

             **** THE GBW FILE WAS UPDATED (hbs_pbe.gbw) ****
             **** DENSITY FILE WAS UPDATED (hbs_pbe.scfp.tmp) ****
             **** ENERGY FILE WAS UPDATED (hbs_pbe.en.tmp) ****
----------------------
UHF SPIN CONTAMINATION
----------------------

Warning: in a DFT calculation there is little theoretical justification to 
         calculate <S**2> as in Hartree-Fock theory. We will do it anyways
         but you should keep in mind that the values have only limited relevance

Expectation value of <S**2>     :    -0.000000
Ideal value S*(S+1) for S=0.0   :     0.000000
Deviation                       :    -0.000000

----------------
ORBITAL ENERGIES
----------------
                 SPIN UP ORBITALS
  NO   OCC          E(Eh)            E(eV) 
   0   1.0000     -88.032722     -2395.4922 
   1   1.0000      -7.674819      -208.8424 
   2   1.0000      -6.562422      -178.5726 
   3   1.0000      -5.691349      -154.8695 
   4   1.0000      -5.691349      -154.8695 
   5   1.0000      -5.690901      -154.8573 
   6   1.0000      -0.666083       -18.1250 
   7   1.0000      -0.434946       -11.8355 
   8   1.0000      -0.343796        -9.3552 
   9   1.0000      -0.272655        -7.4193 
  10   1.0000      -0.272655        -7.4193 
  11   0.0000      -0.080232        -2.1832 
  12   0.0000      -0.080232        -2.1832 
  13   0.0000      -0.010237        -0.2786 
  14   0.0000       0.001315         0.0358 
  15   0.0000       0.011710         0.3187 
  16   0.0000       0.011710         0.3187 
  17   0.0000       0.025774         0.7013 
  18   0.0000       0.030963         0.8425 
  19   0.0000       0.038736         1.0541 
  20   0.0000       0.038736         1.0541 
  21   0.0000       0.047529         1.2933 
  22   0.0000       0.051944         1.4135 
  23   0.0000       0.051944         1.4135 
  24   0.0000       0.052486         1.4282 
  25   0.0000       0.052486         1.4282 
  26   0.0000       0.068908         1.8751 
  27   0.0000       0.079318         2.1584 
  28   0.0000       0.083131         2.2621 
  29   0.0000       0.083131         2.2621 
  30   0.0000       0.085377         2.3232 
  31   0.0000       0.116956         3.1825 
  32   0.0000       0.116956         3.1825 
  33   0.0000       0.121117         3.2958 
  34   0.0000       0.121117         3.2958 
  35   0.0000       0.129217         3.5162 
  36   0.0000       0.132634         3.6092 
  37   0.0000       0.132634         3.6092 
  38   0.0000       0.133185         3.6241 
  39   0.0000       0.133185         3.6241 
  40   0.0000       0.141493         3.8502 
  41   0.0000       0.146007         3.9730 
  42   0.0000       0.146007         3.9730 
  43   0.0000       0.155374         4.2279 
  44   0.0000       0.167115         4.5474 
  45   0.0000       0.167115         4.5474 
  46   0.0000       0.179512         4.8848 
  47   0.0000       0.179512         4.8848 
  48   0.0000       0.192065         5.2264 
  49   0.0000       0.195457         5.3187 
  50   0.0000       0.195457         5.3187 
  51   0.0000       0.201054         5.4709 
  52   0.0000       0.219011         5.9596 
  53   0.0000       0.219011         5.9596 
  54   0.0000       0.230358         6.2684 
  55   0.0000       0.235834         6.4174 
  56   0.0000       0.235834         6.4174 
  57   0.0000       0.244119         6.6428 
  58   0.0000       0.244120         6.6428 
  59   0.0000       0.246608         6.7106 
  60   0.0000       0.246609         6.7106 
  61   0.0000       0.275294         7.4911 
  62   0.0000       0.278890         7.5890 
  63   0.0000       0.278890         7.5890 
  64   0.0000       0.281507         7.6602 
  65   0.0000       0.281507         7.6602 
  66   0.0000       0.293913         7.9978 
  67   0.0000       0.320496         8.7211 
  68   0.0000       0.320496         8.7211 
  69   0.0000       0.323235         8.7957 
  70   0.0000       0.325037         8.8447 
  71   0.0000       0.325037         8.8447 
  72   0.0000       0.331533         9.0215 
  73   0.0000       0.331534         9.0215 
  74   0.0000       0.333062         9.0631 
  75   0.0000       0.333062         9.0631 
  76   0.0000       0.339069         9.2265 
  77   0.0000       0.339069         9.2265 
  78   0.0000       0.343378         9.3438 
  79   0.0000       0.343378         9.3438 
  80   0.0000       0.345463         9.4005 
  81   0.0000       0.345463         9.4005 
  82   0.0000       0.366057         9.9609 
  83   0.0000       0.370126        10.0716 
  84   0.0000       0.370126        10.0716 
  85   0.0000       0.388371        10.5681 
  86   0.0000       0.402604        10.9554 
  87   0.0000       0.402604        10.9554 
  88   0.0000       0.403566        10.9816 
  89   0.0000       0.403566        10.9816 
  90   0.0000       0.408519        11.1164 
  91   0.0000       0.441773        12.0213 
  92   0.0000       0.441774        12.0213 
  93   0.0000       0.449746        12.2382 
  94   0.0000       0.465826        12.6758 
  95   0.0000       0.465826        12.6758 
  96   0.0000       0.474372        12.9083 
  97   0.0000       0.474372        12.9083 
  98   0.0000       0.483777        13.1642 
  99   0.0000       0.483777        13.1642 
 100   0.0000       0.535545        14.5729 
 101   0.0000       0.540185        14.6992 
 102   0.0000       0.540186        14.6992 
 103   0.0000       0.547505        14.8984 
 104   0.0000       0.548732        14.9318 
 105   0.0000       0.548732        14.9318 
 106   0.0000       0.550125        14.9697 
 107   0.0000       0.550125        14.9697 
 108   0.0000       0.601994        16.3811 
 109   0.0000       0.613696        16.6995 
 110   0.0000       0.613696        16.6995 
 111   0.0000       0.638249        17.3676 
 112   0.0000       0.638249        17.3676 
 113   0.0000       0.640202        17.4208 
 114   0.0000       0.640203        17.4208 
 115   0.0000       0.649806        17.6821 
 116   0.0000       0.649806        17.6821 
 117   0.0000       0.655128        17.8269 
 118   0.0000       0.655128        17.8269 
 119   0.0000       0.676377        18.4051 
 120   0.0000       0.676377        18.4051 
 121   0.0000       0.677549        18.4371 
 122   0.0000       0.677549        18.4371 
 123   0.0000       0.692452        18.8426 
 124   0.0000       0.692452        18.8426 
 125   0.0000       0.696305        18.9474 
 126   0.0000       0.698095        18.9961 
 127   0.0000       0.724326        19.7099 
 128   0.0000       0.724326        19.7099 
 129   0.0000       0.724703        19.7202 
 130   0.0000       0.737860        20.0782 
 131   0.0000       0.737861        20.0782 
 132   0.0000       0.754405        20.5284 
 133   0.0000       0.759773        20.6745 
 134   0.0000       0.759775        20.6745 
 135   0.0000       0.781843        21.2750 
 136   0.0000       0.781843        21.2750 
 137   0.0000       0.821708        22.3598 
 138   0.0000       0.821710        22.3599 
 139   0.0000       0.825875        22.4732 
 140   0.0000       0.825875        22.4732 
 141   0.0000       0.831176        22.6174 
 142   0.0000       0.871750        23.7215 
 143   0.0000       0.871750        23.7215 
 144   0.0000       0.902279        24.5522 
 145   0.0000       0.908433        24.7197 
 146   0.0000       0.908433        24.7197 
 147   0.0000       0.955944        26.0126 
 148   0.0000       0.955944        26.0126 
 149   0.0000       0.967617        26.3302 
 150   0.0000       1.021695        27.8017 
 151   0.0000       1.054752        28.7013 
 152   0.0000       1.054752        28.7013 
 153   0.0000       1.071254        29.1503 
 154   0.0000       1.071254        29.1503 
 155   0.0000       1.130150        30.7529 
 156   0.0000       1.130150        30.7529 
 157   0.0000       1.138722        30.9862 
 158   0.0000       1.219006        33.1708 
 159   0.0000       1.311498        35.6877 
 160   0.0000       1.311498        35.6877 
 161   0.0000       1.327703        36.1286 
 162   0.0000       1.327703        36.1286 
 163   0.0000       1.392109        37.8812 
 164   0.0000       1.401525        38.1374 
 165   0.0000       1.401526        38.1375 
 166   0.0000       1.434209        39.0268 
 167   0.0000       1.434209        39.0268 
 168   0.0000       1.440680        39.2029 
 169   0.0000       1.499085        40.7922 
 170   0.0000       1.499085        40.7922 
 171   0.0000       1.524025        41.4708 
 172   0.0000       1.524025        41.4708 
 173   0.0000       1.547461        42.1086 
 174   0.0000       1.547461        42.1086 
 175   0.0000       1.570604        42.7383 
 176   0.0000       1.683605        45.8132 
 177   0.0000       1.683605        45.8132 
 178   0.0000       1.716148        46.6988 
 179   0.0000       1.774930        48.2983 
 180   0.0000       1.774930        48.2983 
 181   0.0000       1.859906        50.6106 
 182   0.0000       1.904173        51.8152 
 183   0.0000       1.912147        52.0322 
 184   0.0000       1.912147        52.0322 
 185   0.0000       2.007495        54.6267 
 186   0.0000       2.194739        59.7219 
 187   0.0000       2.194740        59.7219 
 188   0.0000       2.312322        62.9215 
 189   0.0000       2.312322        62.9215 
 190   0.0000       2.380506        64.7769 
 191   0.0000       2.493308        67.8464 
 192   0.0000       2.493308        67.8464 
 193   0.0000       2.525207        68.7144 
 194   0.0000       2.525207        68.7144 
 195   0.0000       2.528717        68.8099 
 196   0.0000       2.528718        68.8099 
 197   0.0000       2.556929        69.5776 
 198   0.0000       2.811140        76.4950 
 199   0.0000       2.811141        76.4950 
 200   0.0000       2.885497        78.5184 
 201   0.0000       2.885498        78.5184 
 202   0.0000       2.891879        78.6920 
 203   0.0000       2.942821        80.0782 
 204   0.0000       2.942821        80.0782 
 205   0.0000       3.002829        81.7111 
 206   0.0000       3.044396        82.8422 
 207   0.0000       3.044396        82.8422 
 208   0.0000       3.132988        85.2529 
 209   0.0000       3.138123        85.3927 
 210   0.0000       3.138123        85.3927 
 211   0.0000       3.138779        85.4105 
 212   0.0000       3.138783        85.4106 
 213   0.0000       3.207682        87.2855 
 214   0.0000       3.207682        87.2855 
 215   0.0000       3.219392        87.6041 
 216   0.0000       3.219392        87.6041 
 217   0.0000       3.330476        90.6269 
 218   0.0000       3.330477        90.6269 
 219   0.0000       3.428586        93.2966 
 220   0.0000       3.428586        93.2966 
 221   0.0000       3.531127        96.0869 
 222   0.0000       3.581995        97.4710 
 223   0.0000       3.618789        98.4723 
 224   0.0000       3.618789        98.4723 
 225   0.0000       3.665348        99.7392 
 226   0.0000       3.665348        99.7392 
 227   0.0000       3.741176       101.8026 
 228   0.0000       3.768799       102.5542 
 229   0.0000       3.768799       102.5542 
 230   0.0000       3.785262       103.0022 
 231   0.0000       3.785262       103.0022 
 232   0.0000       3.814576       103.7999 
 233   0.0000       3.814576       103.7999 
 234   0.0000       3.881875       105.6312 
 235   0.0000       3.914609       106.5219 
 236   0.0000       3.914609       106.5219 
 237   0.0000       4.053427       110.2994 
 238   0.0000       4.066668       110.6596 
 239   0.0000       4.066668       110.6596 
 240   0.0000       4.111161       111.8704 
 241   0.0000       4.111162       111.8704 
 242   0.0000       4.498057       122.3984 
 243   0.0000       4.619165       125.6939 
 244   0.0000       4.619165       125.6939 
 245   0.0000       4.804978       130.7501 
 246   0.0000       5.049221       137.3963 
 247   0.0000       5.049221       137.3963 
 248   0.0000       5.169048       140.6569 
 249   0.0000       5.169048       140.6569 
 250   0.0000       5.176549       140.8611 
 251   0.0000       5.176550       140.8611 
 252   0.0000       5.270627       143.4211 
 253   0.0000       5.295990       144.1112 
 254   0.0000       5.295990       144.1112 
 255   0.0000       5.427385       147.6867 
 256   0.0000       5.427385       147.6867 
 257   0.0000       5.594853       152.2437 
 258   0.0000       5.605194       152.5251 
 259   0.0000       5.605196       152.5251 
 260   0.0000       5.801951       157.8791 
 261   0.0000       5.801951       157.8791 
 262   0.0000       6.022268       163.8742 
 263   0.0000       6.149029       167.3236 
 264   0.0000       6.149029       167.3236 
 265   0.0000       6.233867       169.6321 
 266   0.0000       6.257353       170.2712 
 267   0.0000       6.257353       170.2712 
 268   0.0000       6.302985       171.5129 
 269   0.0000       6.564907       178.6402 
 270   0.0000       6.564907       178.6402 
 271   0.0000       7.348788       199.9707 
 272   0.0000       7.414564       201.7605 
 273   0.0000       7.414568       201.7607 
 274   0.0000       7.938982       216.0307 
 275   0.0000       8.177758       222.5281 
 276   0.0000       8.177758       222.5281 
 277   0.0000       8.201809       223.1826 
 278   0.0000       8.201828       223.1831 
 279   0.0000       8.243776       224.3246 
 280   0.0000       8.243776       224.3246 
 281   0.0000       8.402028       228.6308 
 282   0.0000       8.529885       232.1100 
 283   0.0000       8.529886       232.1100 
 284   0.0000       8.634030       234.9439 
 285   0.0000       8.634030       234.9439 
 286   0.0000       8.716082       237.1766 
 287   0.0000       8.716085       237.1767 
 288   0.0000       8.967500       244.0181 
 289   0.0000       9.048981       246.2353 
 290   0.0000       9.048981       246.2353 
 291   0.0000       9.239879       251.4299 
 292   0.0000       9.239908       251.4307 
 293   0.0000       9.249543       251.6929 
 294   0.0000       9.249543       251.6929 
 295   0.0000       9.314518       253.4609 
 296   0.0000       9.314518       253.4609 
 297   0.0000       9.376062       255.1356 
 298   0.0000       9.376062       255.1356 
 299   0.0000       9.465326       257.5646 
 300   0.0000       9.465330       257.5647 
 301   0.0000       9.641660       262.3629 
 302   0.0000       9.826593       267.3952 
 303   0.0000       9.826594       267.3952 
 304   0.0000       9.864513       268.4270 
 305   0.0000       9.864513       268.4270 
 306   0.0000      10.109433       275.0917 
 307   0.0000      10.201840       277.6062 
 308   0.0000      10.201841       277.6062 
 309   0.0000      10.213667       277.9280 
 310   0.0000      10.213667       277.9280 
 311   0.0000      10.341110       281.3959 
 312   0.0000      10.396094       282.8921 
 313   0.0000      10.396094       282.8921 
 314   0.0000      10.397989       282.9437 
 315   0.0000      10.397989       282.9437 
 316   0.0000      10.817704       294.3647 
 317   0.0000      10.817704       294.3647 
 318   0.0000      10.909078       296.8511 
 319   0.0000      10.909083       296.8512 
 320   0.0000      11.210421       305.0511 
 321   0.0000      11.565841       314.7225 
 322   0.0000      11.565841       314.7225 
 323   0.0000      11.715246       318.7880 
 324   0.0000      11.715262       318.7885 
 325   0.0000      11.754890       319.8668 
 326   0.0000      11.799737       321.0872 
 327   0.0000      11.799737       321.0872 
 328   0.0000      12.288419       334.3849 
 329   0.0000      12.288419       334.3849 
 330   0.0000      12.404255       337.5369 
 331   0.0000      12.770408       347.5005 
 332   0.0000      12.770408       347.5005 
 333   0.0000      12.900864       351.0504 
 334   0.0000      12.988477       353.4344 
 335   0.0000      12.988479       353.4345 
 336   0.0000      14.616127       397.7250 
 337   0.0000      14.616127       397.7250 
 338   0.0000      14.620952       397.8563 
 339   0.0000      16.241979       441.9667 
 340   0.0000      16.710837       454.7250 
 341   0.0000      16.710996       454.7293 
 342   0.0000      16.886290       459.4993 
 343   0.0000      16.886305       459.4997 
 344   0.0000      16.889947       459.5988 
 345   0.0000      16.889947       459.5988 
 346   0.0000      17.265685       469.8232 
 347   0.0000      17.265685       469.8232 
 348   0.0000      17.909613       487.3453 
 349   0.0000      17.909618       487.3455 
 350   0.0000      18.610571       506.4194 
 351   0.0000      18.949985       515.6553 
 352   0.0000      19.596129       533.2378 
 353   0.0000      19.596129       533.2378 
 354   0.0000      20.137945       547.9813 
 355   0.0000      20.215776       550.0992 
 356   0.0000      20.215826       550.1006 
 357   0.0000      20.885530       568.3242 
 358   0.0000      20.885530       568.3242 
 359   0.0000      22.881614       622.6404 
 360   0.0000      23.515558       639.8909 
 361   0.0000      23.515558       639.8909 
 362   0.0000      24.920168       678.1123 
 363   0.0000      32.076855       872.8556 
 364   0.0000      41.079752      1117.8369 
 365   0.0000      62.391079      1697.7476 
 366   0.0000      62.391096      1697.7480 
 367   0.0000      62.593858      1703.2655 
 368   0.0000      62.593858      1703.2655 
 369   0.0000      63.154111      1718.5107 
 370   0.0000      78.609078      2139.0618 
 371   0.0000      91.042408      2477.3899 
 372   0.0000      91.042408      2477.3899 
 373   0.0000      92.039666      2504.5266 

                 SPIN DOWN ORBITALS
  NO   OCC          E(Eh)            E(eV) 
   0   1.0000     -88.032722     -2395.4922 
   1   1.0000      -7.674819      -208.8424 
   2   1.0000      -6.562422      -178.5726 
   3   1.0000      -5.691349      -154.8695 
   4   1.0000      -5.691349      -154.8695 
   5   1.0000      -5.690901      -154.8573 
   6   1.0000      -0.666083       -18.1250 
   7   1.0000      -0.434946       -11.8355 
   8   1.0000      -0.343796        -9.3552 
   9   1.0000      -0.272655        -7.4193 
  10   1.0000      -0.272655        -7.4193 
  11   0.0000      -0.080232        -2.1832 
  12   0.0000      -0.080232        -2.1832 
  13   0.0000      -0.010237        -0.2786 
  14   0.0000       0.001315         0.0358 
  15   0.0000       0.011710         0.3187 
  16   0.0000       0.011710         0.3187 
  17   0.0000       0.025774         0.7013 
  18   0.0000       0.030963         0.8425 
  19   0.0000       0.038736         1.0541 
  20   0.0000       0.038736         1.0541 
  21   0.0000       0.047529         1.2933 
  22   0.0000       0.051944         1.4135 
  23   0.0000       0.051944         1.4135 
  24   0.0000       0.052486         1.4282 
  25   0.0000       0.052486         1.4282 
  26   0.0000       0.068908         1.8751 
  27   0.0000       0.079318         2.1584 
  28   0.0000       0.083131         2.2621 
  29   0.0000       0.083131         2.2621 
  30   0.0000       0.085377         2.3232 
  31   0.0000       0.116956         3.1825 
  32   0.0000       0.116956         3.1825 
  33   0.0000       0.121117         3.2958 
  34   0.0000       0.121117         3.2958 
  35   0.0000       0.129217         3.5162 
  36   0.0000       0.132634         3.6092 
  37   0.0000       0.132634         3.6092 
  38   0.0000       0.133185         3.6241 
  39   0.0000       0.133185         3.6241 
  40   0.0000       0.141493         3.8502 
  41   0.0000       0.146007         3.9730 
  42   0.0000       0.146007         3.9730 
  43   0.0000       0.155374         4.2279 
  44   0.0000       0.167115         4.5474 
  45   0.0000       0.167115         4.5474 
  46   0.0000       0.179512         4.8848 
  47   0.0000       0.179512         4.8848 
  48   0.0000       0.192065         5.2264 
  49   0.0000       0.195457         5.3187 
  50   0.0000       0.195457         5.3187 
  51   0.0000       0.201054         5.4709 
  52   0.0000       0.219011         5.9596 
  53   0.0000       0.219011         5.9596 
  54   0.0000       0.230358         6.2684 
  55   0.0000       0.235834         6.4174 
  56   0.0000       0.235834         6.4174 
  57   0.0000       0.244119         6.6428 
  58   0.0000       0.244120         6.6428 
  59   0.0000       0.246608         6.7106 
  60   0.0000       0.246609         6.7106 
  61   0.0000       0.275294         7.4911 
  62   0.0000       0.278890         7.5890 
  63   0.0000       0.278890         7.5890 
  64   0.0000       0.281507         7.6602 
  65   0.0000       0.281507         7.6602 
  66   0.0000       0.293913         7.9978 
  67   0.0000       0.320496         8.7211 
  68   0.0000       0.320496         8.7211 
  69   0.0000       0.323235         8.7957 
  70   0.0000       0.325037         8.8447 
  71   0.0000       0.325037         8.8447 
  72   0.0000       0.331533         9.0215 
  73   0.0000       0.331534         9.0215 
  74   0.0000       0.333062         9.0631 
  75   0.0000       0.333062         9.0631 
  76   0.0000       0.339069         9.2265 
  77   0.0000       0.339069         9.2265 
  78   0.0000       0.343378         9.3438 
  79   0.0000       0.343378         9.3438 
  80   0.0000       0.345463         9.4005 
  81   0.0000       0.345463         9.4005 
  82   0.0000       0.366057         9.9609 
  83   0.0000       0.370126        10.0716 
  84   0.0000       0.370126        10.0716 
  85   0.0000       0.388371        10.5681 
  86   0.0000       0.402604        10.9554 
  87   0.0000       0.402604        10.9554 
  88   0.0000       0.403566        10.9816 
  89   0.0000       0.403566        10.9816 
  90   0.0000       0.408519        11.1164 
  91   0.0000       0.441773        12.0213 
  92   0.0000       0.441774        12.0213 
  93   0.0000       0.449746        12.2382 
  94   0.0000       0.465826        12.6758 
  95   0.0000       0.465826        12.6758 
  96   0.0000       0.474372        12.9083 
  97   0.0000       0.474372        12.9083 
  98   0.0000       0.483777        13.1642 
  99   0.0000       0.483777        13.1642 
 100   0.0000       0.535545        14.5729 
 101   0.0000       0.540185        14.6992 
 102   0.0000       0.540186        14.6992 
 103   0.0000       0.547505        14.8984 
 104   0.0000       0.548732        14.9318 
 105   0.0000       0.548732        14.9318 
 106   0.0000       0.550125        14.9697 
 107   0.0000       0.550125        14.9697 
 108   0.0000       0.601994        16.3811 
 109   0.0000       0.613696        16.6995 
 110   0.0000       0.613696        16.6995 
 111   0.0000       0.638249        17.3676 
 112   0.0000       0.638249        17.3676 
 113   0.0000       0.640202        17.4208 
 114   0.0000       0.640203        17.4208 
 115   0.0000       0.649806        17.6821 
 116   0.0000       0.649806        17.6821 
 117   0.0000       0.655128        17.8269 
 118   0.0000       0.655128        17.8269 
 119   0.0000       0.676377        18.4051 
 120   0.0000       0.676377        18.4051 
 121   0.0000       0.677549        18.4371 
 122   0.0000       0.677549        18.4371 
 123   0.0000       0.692452        18.8426 
 124   0.0000       0.692452        18.8426 
 125   0.0000       0.696305        18.9474 
 126   0.0000       0.698095        18.9961 
 127   0.0000       0.724326        19.7099 
 128   0.0000       0.724326        19.7099 
 129   0.0000       0.724703        19.7202 
 130   0.0000       0.737860        20.0782 
 131   0.0000       0.737861        20.0782 
 132   0.0000       0.754405        20.5284 
 133   0.0000       0.759773        20.6745 
 134   0.0000       0.759775        20.6745 
 135   0.0000       0.781843        21.2750 
 136   0.0000       0.781843        21.2750 
 137   0.0000       0.821708        22.3598 
 138   0.0000       0.821710        22.3599 
 139   0.0000       0.825875        22.4732 
 140   0.0000       0.825875        22.4732 
 141   0.0000       0.831176        22.6174 
 142   0.0000       0.871750        23.7215 
 143   0.0000       0.871750        23.7215 
 144   0.0000       0.902279        24.5522 
 145   0.0000       0.908433        24.7197 
 146   0.0000       0.908433        24.7197 
 147   0.0000       0.955944        26.0126 
 148   0.0000       0.955944        26.0126 
 149   0.0000       0.967617        26.3302 
 150   0.0000       1.021695        27.8017 
 151   0.0000       1.054752        28.7013 
 152   0.0000       1.054752        28.7013 
 153   0.0000       1.071254        29.1503 
 154   0.0000       1.071254        29.1503 
 155   0.0000       1.130150        30.7529 
 156   0.0000       1.130150        30.7529 
 157   0.0000       1.138722        30.9862 
 158   0.0000       1.219006        33.1708 
 159   0.0000       1.311498        35.6877 
 160   0.0000       1.311498        35.6877 
 161   0.0000       1.327703        36.1286 
 162   0.0000       1.327703        36.1286 
 163   0.0000       1.392109        37.8812 
 164   0.0000       1.401525        38.1374 
 165   0.0000       1.401526        38.1375 
 166   0.0000       1.434209        39.0268 
 167   0.0000       1.434209        39.0268 
 168   0.0000       1.440680        39.2029 
 169   0.0000       1.499085        40.7922 
 170   0.0000       1.499085        40.7922 
 171   0.0000       1.524025        41.4708 
 172   0.0000       1.524025        41.4708 
 173   0.0000       1.547461        42.1086 
 174   0.0000       1.547461        42.1086 
 175   0.0000       1.570604        42.7383 
 176   0.0000       1.683605        45.8132 
 177   0.0000       1.683605        45.8132 
 178   0.0000       1.716148        46.6988 
 179   0.0000       1.774930        48.2983 
 180   0.0000       1.774930        48.2983 
 181   0.0000       1.859906        50.6106 
 182   0.0000       1.904173        51.8152 
 183   0.0000       1.912147        52.0322 
 184   0.0000       1.912147        52.0322 
 185   0.0000       2.007495        54.6267 
 186   0.0000       2.194739        59.7219 
 187   0.0000       2.194740        59.7219 
 188   0.0000       2.312322        62.9215 
 189   0.0000       2.312322        62.9215 
 190   0.0000       2.380506        64.7769 
 191   0.0000       2.493308        67.8464 
 192   0.0000       2.493308        67.8464 
 193   0.0000       2.525207        68.7144 
 194   0.0000       2.525207        68.7144 
 195   0.0000       2.528717        68.8099 
 196   0.0000       2.528718        68.8099 
 197   0.0000       2.556929        69.5776 
 198   0.0000       2.811140        76.4950 
 199   0.0000       2.811141        76.4950 
 200   0.0000       2.885497        78.5184 
 201   0.0000       2.885498        78.5184 
 202   0.0000       2.891879        78.6920 
 203   0.0000       2.942821        80.0782 
 204   0.0000       2.942821        80.0782 
 205   0.0000       3.002829        81.7111 
 206   0.0000       3.044396        82.8422 
 207   0.0000       3.044396        82.8422 
 208   0.0000       3.132988        85.2529 
 209   0.0000       3.138123        85.3927 
 210   0.0000       3.138123        85.3927 
 211   0.0000       3.138779        85.4105 
 212   0.0000       3.138783        85.4106 
 213   0.0000       3.207682        87.2855 
 214   0.0000       3.207682        87.2855 
 215   0.0000       3.219392        87.6041 
 216   0.0000       3.219392        87.6041 
 217   0.0000       3.330476        90.6269 
 218   0.0000       3.330477        90.6269 
 219   0.0000       3.428586        93.2966 
 220   0.0000       3.428586        93.2966 
 221   0.0000       3.531127        96.0869 
 222   0.0000       3.581995        97.4710 
 223   0.0000       3.618789        98.4723 
 224   0.0000       3.618789        98.4723 
 225   0.0000       3.665348        99.7392 
 226   0.0000       3.665348        99.7392 
 227   0.0000       3.741176       101.8026 
 228   0.0000       3.768799       102.5542 
 229   0.0000       3.768799       102.5542 
 230   0.0000       3.785262       103.0022 
 231   0.0000       3.785262       103.0022 
 232   0.0000       3.814576       103.7999 
 233   0.0000       3.814576       103.7999 
 234   0.0000       3.881875       105.6312 
 235   0.0000       3.914609       106.5219 
 236   0.0000       3.914609       106.5219 
 237   0.0000       4.053427       110.2994 
 238   0.0000       4.066668       110.6596 
 239   0.0000       4.066668       110.6596 
 240   0.0000       4.111161       111.8704 
 241   0.0000       4.111162       111.8704 
 242   0.0000       4.498057       122.3984 
 243   0.0000       4.619165       125.6939 
 244   0.0000       4.619165       125.6939 
 245   0.0000       4.804978       130.7501 
 246   0.0000       5.049221       137.3963 
 247   0.0000       5.049221       137.3963 
 248   0.0000       5.169048       140.6569 
 249   0.0000       5.169048       140.6569 
 250   0.0000       5.176549       140.8611 
 251   0.0000       5.176550       140.8611 
 252   0.0000       5.270627       143.4211 
 253   0.0000       5.295990       144.1112 
 254   0.0000       5.295990       144.1112 
 255   0.0000       5.427385       147.6867 
 256   0.0000       5.427385       147.6867 
 257   0.0000       5.594853       152.2437 
 258   0.0000       5.605194       152.5251 
 259   0.0000       5.605196       152.5251 
 260   0.0000       5.801951       157.8791 
 261   0.0000       5.801951       157.8791 
 262   0.0000       6.022268       163.8742 
 263   0.0000       6.149029       167.3236 
 264   0.0000       6.149029       167.3236 
 265   0.0000       6.233867       169.6321 
 266   0.0000       6.257353       170.2712 
 267   0.0000       6.257353       170.2712 
 268   0.0000       6.302985       171.5129 
 269   0.0000       6.564907       178.6402 
 270   0.0000       6.564907       178.6402 
 271   0.0000       7.348788       199.9707 
 272   0.0000       7.414564       201.7605 
 273   0.0000       7.414568       201.7607 
 274   0.0000       7.938982       216.0307 
 275   0.0000       8.177758       222.5281 
 276   0.0000       8.177758       222.5281 
 277   0.0000       8.201809       223.1826 
 278   0.0000       8.201828       223.1831 
 279   0.0000       8.243776       224.3246 
 280   0.0000       8.243776       224.3246 
 281   0.0000       8.402028       228.6308 
 282   0.0000       8.529885       232.1100 
 283   0.0000       8.529886       232.1100 
 284   0.0000       8.634030       234.9439 
 285   0.0000       8.634030       234.9439 
 286   0.0000       8.716082       237.1766 
 287   0.0000       8.716085       237.1767 
 288   0.0000       8.967500       244.0181 
 289   0.0000       9.048981       246.2353 
 290   0.0000       9.048981       246.2353 
 291   0.0000       9.239879       251.4299 
 292   0.0000       9.239908       251.4307 
 293   0.0000       9.249543       251.6929 
 294   0.0000       9.249543       251.6929 
 295   0.0000       9.314518       253.4609 
 296   0.0000       9.314518       253.4609 
 297   0.0000       9.376062       255.1356 
 298   0.0000       9.376062       255.1356 
 299   0.0000       9.465326       257.5646 
 300   0.0000       9.465330       257.5647 
 301   0.0000       9.641660       262.3629 
 302   0.0000       9.826593       267.3952 
 303   0.0000       9.826594       267.3952 
 304   0.0000       9.864513       268.4270 
 305   0.0000       9.864513       268.4270 
 306   0.0000      10.109433       275.0917 
 307   0.0000      10.201840       277.6062 
 308   0.0000      10.201841       277.6062 
 309   0.0000      10.213667       277.9280 
 310   0.0000      10.213667       277.9280 
 311   0.0000      10.341110       281.3959 
 312   0.0000      10.396094       282.8921 
 313   0.0000      10.396094       282.8921 
 314   0.0000      10.397989       282.9437 
 315   0.0000      10.397989       282.9437 
 316   0.0000      10.817704       294.3647 
 317   0.0000      10.817704       294.3647 
 318   0.0000      10.909078       296.8511 
 319   0.0000      10.909083       296.8512 
 320   0.0000      11.210421       305.0511 
 321   0.0000      11.565841       314.7225 
 322   0.0000      11.565841       314.7225 
 323   0.0000      11.715246       318.7880 
 324   0.0000      11.715262       318.7885 
 325   0.0000      11.754890       319.8668 
 326   0.0000      11.799737       321.0872 
 327   0.0000      11.799737       321.0872 
 328   0.0000      12.288419       334.3849 
 329   0.0000      12.288419       334.3849 
 330   0.0000      12.404255       337.5369 
 331   0.0000      12.770408       347.5005 
 332   0.0000      12.770408       347.5005 
 333   0.0000      12.900864       351.0504 
 334   0.0000      12.988477       353.4344 
 335   0.0000      12.988479       353.4345 
 336   0.0000      14.616127       397.7250 
 337   0.0000      14.616127       397.7250 
 338   0.0000      14.620952       397.8563 
 339   0.0000      16.241979       441.9667 
 340   0.0000      16.710837       454.7250 
 341   0.0000      16.710996       454.7293 
 342   0.0000      16.886290       459.4993 
 343   0.0000      16.886305       459.4997 
 344   0.0000      16.889947       459.5988 
 345   0.0000      16.889947       459.5988 
 346   0.0000      17.265685       469.8232 
 347   0.0000      17.265685       469.8232 
 348   0.0000      17.909613       487.3453 
 349   0.0000      17.909618       487.3455 
 350   0.0000      18.610571       506.4194 
 351   0.0000      18.949985       515.6553 
 352   0.0000      19.596129       533.2378 
 353   0.0000      19.596129       533.2378 
 354   0.0000      20.137945       547.9813 
 355   0.0000      20.215776       550.0992 
 356   0.0000      20.215826       550.1006 
 357   0.0000      20.885530       568.3242 
 358   0.0000      20.885530       568.3242 
 359   0.0000      22.881614       622.6404 
 360   0.0000      23.515558       639.8909 
 361   0.0000      23.515558       639.8909 
 362   0.0000      24.920168       678.1123 
 363   0.0000      32.076855       872.8556 
 364   0.0000      41.079752      1117.8369 
 365   0.0000      62.391079      1697.7476 
 366   0.0000      62.391096      1697.7480 
 367   0.0000      62.593858      1703.2655 
 368   0.0000      62.593858      1703.2655 
 369   0.0000      63.154111      1718.5107 
 370   0.0000      78.609078      2139.0618 
 371   0.0000      91.042408      2477.3899 
 372   0.0000      91.042408      2477.3899 
 373   0.0000      92.039666      2504.5266 

                    ********************************
                    * MULLIKEN POPULATION ANALYSIS *
                    ********************************

--------------------------------------------
MULLIKEN ATOMIC CHARGES AND SPIN POPULATIONS
--------------------------------------------
   0 B :   -0.107880    0.000000
   1 H :    0.161940   -0.000000
   2 S :   -0.054060    0.000000
Sum of atomic charges         :   -0.0000000
Sum of atomic spin populations:   -0.0000000

-----------------------------------------------------
MULLIKEN REDUCED ORBITAL CHARGES AND SPIN POPULATIONS
-----------------------------------------------------
CHARGE
  0 B s       :     3.240302  s :     3.240302
      pz      :     0.683131  p :     1.728822
      px      :     0.522845
      py      :     0.522845
      dz2     :     0.014867  d :     0.121305
      dxz     :     0.053219
      dyz     :     0.053219
      dx2y2   :     0.000000
      dxy     :     0.000000
      f0      :     0.000804  f :     0.013562
      f+1     :     0.006379
      f-1     :     0.006379
      f+2     :    -0.000000
      f-2     :    -0.000000
      f+3     :     0.000000
      f-3     :     0.000000
      g0      :     0.000306  g :     0.003587
      g+1     :     0.001640
      g-1     :     0.001640
      g+2     :    -0.000000
      g-2     :    -0.000000
      g+3     :     0.000000
      g-3     :     0.000000
      g+4     :     0.000000
      g-4     :     0.000000
      h0      :     0.000044  h :     0.000303
      h+1     :     0.000129
      h-1     :     0.000129
      h+2     :    -0.000000
      h-2     :    -0.000000
      h+3     :     0.000000
      h-3     :     0.000000
      h+4     :     0.000000
      h-4     :     0.000000
      h+5     :     0.000000
      h-5     :     0.000000
  1 H s       :     0.905841  s :     0.905841
      pz      :    -0.001465  p :    -0.011931
      px      :    -0.005233
      py      :    -0.005233
      dz2     :     0.011815  d :    -0.038886
      dxz     :    -0.025350
      dyz     :    -0.025350
      dx2y2   :     0.000000
      dxy     :    -0.000000
      f0      :     0.003409  f :    -0.014571
      f+1     :    -0.008990
      f-1     :    -0.008990
      f+2     :    -0.000000
      f-2     :    -0.000000
      f+3     :    -0.000000
      f-3     :    -0.000000
      g0      :     0.000361  g :    -0.002394
      g+1     :    -0.001377
      g-1     :    -0.001377
      g+2     :     0.000000
      g-2     :     0.000000
      g+3     :    -0.000000
      g-3     :    -0.000000
      g+4     :     0.000000
      g-4     :     0.000000
  2 S s       :     5.924310  s :     5.924310
      pz      :     3.196801  p :    10.056166
      px      :     3.429683
      py      :     3.429683
      dz2     :     0.017183  d :     0.063732
      dxz     :     0.023274
      dyz     :     0.023274
      dx2y2   :     0.000000
      dxy     :     0.000000
      f0      :     0.001619  f :     0.008415
      f+1     :     0.003398
      f-1     :     0.003398
      f+2     :    -0.000000
      f-2     :    -0.000000
      f+3     :     0.000000
      f-3     :     0.000000
      g0      :     0.000570  g :     0.001320
      g+1     :     0.000375
      g-1     :     0.000375
      g+2     :    -0.000000
      g-2     :    -0.000000
      g+3     :     0.000000
      g-3     :     0.000000
      g+4     :     0.000000
      g-4     :    -0.000000
      h0      :     0.000102  h :     0.000118
      h+1     :     0.000008
      h-1     :     0.000008
      h+2     :     0.000000
      h-2     :     0.000000
      h+3     :     0.000000
      h-3     :     0.000000
      h+4     :     0.000000
      h-4     :     0.000000
      h+5     :     0.000000
      h-5     :     0.000000

SPIN
  0 B s       :     0.000000  s :     0.000000
      pz      :     0.000000  p :     0.000000
      px      :     0.000000
      py      :     0.000000
      dz2     :    -0.000000  d :    -0.000000
      dxz     :    -0.000000
      dyz     :     0.000000
      dx2y2   :     0.000000
      dxy     :    -0.000000
      f0      :    -0.000000  f :    -0.000000
      f+1     :     0.000000
      f-1     :     0.000000
      f+2     :     0.000000
      f-2     :    -0.000000
      f+3     :     0.000000
      f-3     :    -0.000000
      g0      :     0.000000  g :     0.000000
      g+1     :     0.000000
      g-1     :     0.000000
      g+2     :     0.000000
      g-2     :    -0.000000
      g+3     :     0.000000
      g-3     :    -0.000000
      g+4     :    -0.000000
      g-4     :     0.000000
      h0      :    -0.000000  h :    -0.000000
      h+1     :    -0.000000
      h-1     :     0.000000
      h+2     :     0.000000
      h-2     :     0.000000
      h+3     :    -0.000000
      h-3     :     0.000000
      h+4     :    -0.000000
      h-4     :    -0.000000
      h+5     :    -0.000000
      h-5     :    -0.000000
  1 H s       :    -0.000000  s :    -0.000000
      pz      :     0.000000  p :     0.000000
      px      :    -0.000000
      py      :     0.000000
      dz2     :     0.000000  d :     0.000000
      dxz     :    -0.000000
      dyz     :     0.000000
      dx2y2   :     0.000000
      dxy     :    -0.000000
      f0      :     0.000000  f :     0.000000
      f+1     :    -0.000000
      f-1     :    -0.000000
      f+2     :     0.000000
      f-2     :    -0.000000
      f+3     :     0.000000
      f-3     :    -0.000000
      g0      :     0.000000  g :     0.000000
      g+1     :    -0.000000
      g-1     :     0.000000
      g+2     :     0.000000
      g-2     :    -0.000000
      g+3     :     0.000000
      g-3     :    -0.000000
      g+4     :     0.000000
      g-4     :     0.000000
  2 S s       :    -0.000000  s :    -0.000000
      pz      :     0.000000  p :     0.000000
      px      :     0.000000
      py      :    -0.000000
      dz2     :     0.000000  d :     0.000000
      dxz     :     0.000000
      dyz     :    -0.000000
      dx2y2   :    -0.000000
      dxy     :     0.000000
      f0      :     0.000000  f :     0.000000
      f+1     :    -0.000000
      f-1     :    -0.000000
      f+2     :    -0.000000
      f-2     :     0.000000
      f+3     :    -0.000000
      f-3     :     0.000000
      g0      :     0.000000  g :     0.000000
      g+1     :    -0.000000
      g-1     :     0.000000
      g+2     :    -0.000000
      g-2     :     0.000000
      g+3     :    -0.000000
      g-3     :     0.000000
      g+4     :     0.000000
      g-4     :    -0.000000
      h0      :     0.000000  h :     0.000000
      h+1     :    -0.000000
      h-1     :     0.000000
      h+2     :    -0.000000
      h-2     :     0.000000
      h+3     :     0.000000
      h-3     :    -0.000000
      h+4     :    -0.000000
      h-4     :     0.000000
      h+5     :     0.000000
      h-5     :     0.000000


                     *******************************
                     * LOEWDIN POPULATION ANALYSIS *
                     *******************************

-------------------------------------------
LOEWDIN ATOMIC CHARGES AND SPIN POPULATIONS
-------------------------------------------
   0 B :   -0.305153    0.000000
   1 H :   -0.660269   -0.000000
   2 S :    0.965422   -0.000000

----------------------------------------------------
LOEWDIN REDUCED ORBITAL CHARGES AND SPIN POPULATIONS
----------------------------------------------------
CHARGE
  0 B s       :     2.621108  s :     2.621108
      pz      :     1.079028  p :     1.956533
      px      :     0.438752
      py      :     0.438752
      dz2     :     0.239782  d :     0.527836
      dxz     :     0.144027
      dyz     :     0.144027
      dx2y2   :     0.000000
      dxy     :     0.000000
      f0      :     0.060414  f :     0.147197
      f+1     :     0.043391
      f-1     :     0.043391
      f+2     :     0.000000
      f-2     :     0.000000
      f+3     :     0.000000
      f-3     :     0.000000
      g0      :     0.017986  g :     0.041120
      g+1     :     0.011567
      g-1     :     0.011567
      g+2     :     0.000000
      g-2     :     0.000000
      g+3     :     0.000000
      g-3     :     0.000000
      g+4     :     0.000000
      g-4     :     0.000000
      h0      :     0.004405  h :     0.011359
      h+1     :     0.003477
      h-1     :     0.003477
      h+2     :     0.000000
      h-2     :     0.000000
      h+3     :     0.000000
      h-3     :     0.000000
      h+4     :     0.000000
      h-4     :     0.000000
      h+5     :     0.000000
      h-5     :     0.000000
  1 H s       :     0.887078  s :     0.887078
      pz      :     0.164602  p :     0.260287
      px      :     0.047843
      py      :     0.047843
      dz2     :     0.096440  d :     0.215432
      dxz     :     0.059496
      dyz     :     0.059496
      dx2y2   :     0.000000
      dxy     :     0.000000
      f0      :     0.064414  f :     0.169150
      f+1     :     0.052368
      f-1     :     0.052368
      f+2     :     0.000000
      f-2     :     0.000000
      f+3     :     0.000000
      f-3     :     0.000000
      g0      :     0.040861  g :     0.128321
      g+1     :     0.043730
      g-1     :     0.043730
      g+2     :     0.000000
      g-2     :     0.000000
      g+3     :     0.000000
      g-3     :     0.000000
      g+4     :     0.000000
      g-4     :     0.000000
  2 S s       :     5.146315  s :     5.146315
      pz      :     3.352667  p :     9.594712
      px      :     3.121023
      py      :     3.121023
      dz2     :     0.121911  d :     0.156947
      dxz     :     0.017518
      dyz     :     0.017518
      dx2y2   :     0.000000
      dxy     :     0.000000
      f0      :     0.054741  f :     0.071818
      f+1     :     0.008538
      f-1     :     0.008538
      f+2     :     0.000000
      f-2     :     0.000000
      f+3     :     0.000000
      f-3     :     0.000000
      g0      :     0.032700  g :     0.045651
      g+1     :     0.006476
      g-1     :     0.006476
      g+2     :     0.000000
      g-2     :     0.000000
      g+3     :     0.000000
      g-3     :     0.000000
      g+4     :     0.000000
      g-4     :     0.000000
      h0      :     0.015548  h :     0.019135
      h+1     :     0.001793
      h-1     :     0.001793
      h+2     :     0.000000
      h-2     :     0.000000
      h+3     :     0.000000
      h-3     :     0.000000
      h+4     :     0.000000
      h-4     :     0.000000
      h+5     :     0.000000
      h-5     :     0.000000

SPIN
  0 B s       :     0.000000  s :     0.000000
      pz      :     0.000000  p :     0.000000
      px      :     0.000000
      py      :     0.000000
      dz2     :     0.000000  d :    -0.000000
      dxz     :    -0.000000
      dyz     :    -0.000000
      dx2y2   :    -0.000000
      dxy     :    -0.000000
      f0      :     0.000000  f :     0.000000
      f+1     :    -0.000000
      f-1     :    -0.000000
      f+2     :    -0.000000
      f-2     :    -0.000000
      f+3     :     0.000000
      f-3     :    -0.000000
      g0      :     0.000000  g :     0.000000
      g+1     :     0.000000
      g-1     :     0.000000
      g+2     :     0.000000
      g-2     :    -0.000000
      g+3     :     0.000000
      g-3     :     0.000000
      g+4     :    -0.000000
      g-4     :     0.000000
      h0      :    -0.000000  h :    -0.000000
      h+1     :    -0.000000
      h-1     :     0.000000
      h+2     :     0.000000
      h-2     :     0.000000
      h+3     :    -0.000000
      h-3     :     0.000000
      h+4     :    -0.000000
      h-4     :    -0.000000
      h+5     :    -0.000000
      h-5     :    -0.000000
  1 H s       :    -0.000000  s :    -0.000000
      pz      :    -0.000000  p :     0.000000
      px      :     0.000000
      py      :     0.000000
      dz2     :    -0.000000  d :    -0.000000
      dxz     :     0.000000
      dyz     :     0.000000
      dx2y2   :     0.000000
      dxy     :    -0.000000
      f0      :     0.000000  f :     0.000000
      f+1     :    -0.000000
      f-1     :     0.000000
      f+2     :     0.000000
      f-2     :    -0.000000
      f+3     :     0.000000
      f-3     :    -0.000000
      g0      :     0.000000  g :     0.000000
      g+1     :     0.000000
      g-1     :     0.000000
      g+2     :     0.000000
      g-2     :     0.000000
      g+3     :     0.000000
      g-3     :    -0.000000
      g+4     :     0.000000
      g-4     :     0.000000
  2 S s       :    -0.000000  s :    -0.000000
      pz      :     0.000000  p :    -0.000000
      px      :    -0.000000
      py      :    -0.000000
      dz2     :    -0.000000  d :    -0.000000
      dxz     :    -0.000000
      dyz     :     0.000000
      dx2y2   :    -0.000000
      dxy     :     0.000000
      f0      :     0.000000  f :     0.000000
      f+1     :     0.000000
      f-1     :     0.000000
      f+2     :    -0.000000
      f-2     :    -0.000000
      f+3     :    -0.000000
      f-3     :     0.000000
      g0      :     0.000000  g :     0.000000
      g+1     :     0.000000
      g-1     :     0.000000
      g+2     :     0.000000
      g-2     :    -0.000000
      g+3     :    -0.000000
      g-3     :     0.000000
      g+4     :     0.000000
      g-4     :    -0.000000
      h0      :     0.000000  h :     0.000000
      h+1     :     0.000000
      h-1     :     0.000000
      h+2     :     0.000000
      h-2     :    -0.000000
      h+3     :     0.000000
      h-3     :    -0.000000
      h+4     :    -0.000000
      h-4     :     0.000000
      h+5     :     0.000000
      h-5     :     0.000000


                      *****************************
                      * MAYER POPULATION ANALYSIS *
                      *****************************

  NA   - Mulliken gross atomic population
  ZA   - Total nuclear charge
  QA   - Mulliken gross atomic charge
  VA   - Mayer's total valence
  BVA  - Mayer's bonded valence
  FA   - Mayer's free valence

  ATOM       NA         ZA         QA         VA         BVA        FA
  0 B      5.1079     5.0000    -0.1079     3.2963     3.2963    -0.0000
  1 H      0.8381     1.0000     0.1619     0.7891     0.7891    -0.0000
  2 S     16.0541    16.0000    -0.0541     2.2314     2.2314     0.0000

  Mayer bond orders larger than 0.1
B(  0-B ,  1-H ) :   0.9270 B(  0-B ,  2-S ) :   2.3693 B(  1-H ,  2-S ) :  -0.1379 


-------
TIMINGS
-------

Total SCF time: 0 days 0 hours 14 min 29 sec 

Total time                  ....     869.034 sec
Sum of individual times     ....     868.278 sec  ( 99.9%)

Fock matrix formation       ....     864.985 sec  ( 99.5%)
  XC integration            ....      13.216 sec  (  1.5% of F)
    Basis function eval.    ....       0.897 sec  (  6.8% of XC)
    Density eval.           ....       2.698 sec  ( 20.4% of XC)
    XC-Functional eval.     ....       0.138 sec  (  1.0% of XC)
    XC-Potential eval.      ....       8.420 sec  ( 63.7% of XC)
Diagonalization             ....       1.226 sec  (  0.1%)
Density matrix formation    ....       0.021 sec  (  0.0%)
Population analysis         ....       0.176 sec  (  0.0%)
Initial guess               ....       0.845 sec  (  0.1%)
Orbital Transformation      ....       0.000 sec  (  0.0%)
Orbital Orthonormalization  ....       0.000 sec  (  0.0%)
DIIS solution               ....       0.687 sec  (  0.1%)
Grid generation             ....       0.338 sec  (  0.0%)

-------------------------   --------------------
FINAL SINGLE POINT ENERGY      -423.471460624613
-------------------------   --------------------


                            ***************************************
                            *     ORCA property calculations      *
                            ***************************************

                                    ---------------------
                                    Active property flags
                                    ---------------------
   (+) Dipole Moment
   (+) Polarizability


------------------------------------------------------------------------------
                       ORCA ELECTRIC PROPERTIES CALCULATION
------------------------------------------------------------------------------

Dipole Moment Calculation                       ... on
Quadrupole Moment Calculation                   ... off
Polarizability Calculation                      ... Analytic (CP-SCF)
GBWName                                         ... hbs_pbe.gbw
Electron density file                           ... hbs_pbe.scfp.tmp
The origin for moment calculation is the CENTER OF MASS  = ( 0.000000,  0.000000 -2.157755)

-------------
DIPOLE MOMENT
-------------
                                X             Y             Z
Electronic contribution:      0.00000      -0.00000      -0.83553
Nuclear contribution   :      0.00000       0.00000       1.31820
                        -----------------------------------------
Total Dipole Moment    :      0.00000      -0.00000       0.48266
                        -----------------------------------------
Magnitude (a.u.)       :      0.48266
Magnitude (Debye)      :      1.22683



--------------------
Rotational spectrum 
--------------------
 
Rotational constants in cm-1:     0.000000     0.643600     0.643600 
Rotational constants in MHz :     0.000000 19294.633300 19294.633300 

 Dipole components along the rotational axes: 
x,y,z [a.u.] :     0.482664    -0.000000     0.000000 
x,y,z [Debye]:     1.226833    -0.000000     0.000000 

 
Transforming and storing MO dipole integrals   ... done

                ... starting polarizability calculation

Opening the Dipole integral file               ... (hbs_pbe.dmo.tmp) done
Reading Dipole-MO integrals                    ... done
Solving CP-SCF equations                       ... 

           ************************************************************
           *        Program running with 4 parallel MPI-processes     *
           *              working on a common directory               *
           ************************************************************

------------------------------------------------------------------------------
                           ORCA CP-SCF CALCULATION
------------------------------------------------------------------------------

Input orbitals are from        ... hbs_pbe.gbw
Input Perturbation             ... hbs_pbe.cpv.tmp
Wavefunction output            ... hbs_pbe.cpu.tmp
Perturbation mode              ... Real perturbation (singlet)
Solver                         ... POPLE
Max. number of iterations      ... 200
Convergence tolerance          ... 1.000e-06
Integral handling              ... Direct
Number of perturbations        ... 3
Number of operators            ... 2
Orbital ranges used for CP-SCF:
 Operator 0:  Orbitals   0... 10  to  11...373
 Operator 1:  Orbitals   0... 10  to  11...373
DFT calculation                         ... on
Exchange functional (SCF)               ... PBE
Exchange functional (CP-SCF)            ... PBE
   PBE kappa parameter  XKappa (SCF)    ...  0.804000
   PBE kappa parameter  XKappa (CP-SCF) ...  0.804000
   PBE mue parameter   XMuePBE (SCF)    ...  0.219520
   PBE mue parameter   XMuePBE (CP-SCF) ...  0.219520
Correlation functional (SCF)            ... PBE
Correlation functional (CP-SCF)         ... PBE
   PBE beta parameter CBetaPBE (SCF)    ...  0.066725
   PBE beta parameter CBetaPBE (CP-SCF) ...  0.066725
 LDA part of GGA corr.  LDAOpt (SCF)    ... PW91-LDA
 LDA part of GGA corr.  LDAOpt (CP-SCF) ... PW91-LDA
Variables per vector in CP-SCF ... 7986
Number of vectors sought       ... 3
Recalculating density on grid  ... done
Calculating the xc-kernel      ... done
     CP-SCF ITERATION   0: 
     CP-SCF ITERATION   1:      0.332479557247
     CP-SCF ITERATION   2:      0.004225987909
     CP-SCF ITERATION   3:      0.000348945016
     CP-SCF ITERATION   4:      0.000007826928
     CP-SCF ITERATION   5:      0.000000176571
done
Reading CP-SCF coefficients                    ... done
Doing the polarizability tensor   ... done
Cleaning up                                    ... done

-------------------------
THE POLARIZABILITY TENSOR
-------------------------

The raw cartesian tensor (atomic units):
   29.71021      0.00000      0.00000  
    0.00000     29.71021      0.00000  
    0.00000      0.00000     46.00248  
diagonalized tensor: 
   29.71021     29.71021     46.00248  

    0.62469     -0.78087      0.00000  
   -0.78087     -0.62469      0.00000  
   -0.00000      0.00000      1.00000  

Isotropic polarizability :  35.14097


Timings for individual modules:

Sum of individual times         ...     1409.438 sec (=  23.491 min)
GTO integral calculation        ...        1.998 sec (=   0.033 min)   0.1 %
SCF iterations                  ...      869.393 sec (=  14.490 min)  61.7 %
Solution of CP-SCF eqns.        ...      538.048 sec (=   8.967 min)  38.2 %
                             ****ORCA TERMINATED NORMALLY****
TOTAL RUN TIME: 0 days 0 hours 23 minutes 30 seconds 497 msec
