
                                 *****************
                                 * O   R   C   A *
                                 *****************

           --- An Ab Initio, DFT and Semiempirical electronic structure package ---

                  #######################################################
                  #                        -***-                        #
                  #          Department of theory and spectroscopy      #
                  #               Directorship: Frank Neese             #
                  #        Max Planck Institute fuer Kohlenforschung    #
                  #                Kaiser Wilhelm Platz 1               #
                  #                 D-45470 Muelheim/Ruhr               #
                  #                      Germany                        #
                  #                                                     #
                  #                  All rights reserved                #
                  #                        -***-                        #
                  #######################################################


                         Program Version 4.1.2  - RELEASE  -


 With contributions from (in alphabetic order):
   Daniel Aravena         : Magnetic Properties
   Michael Atanasov       : Ab Initio Ligand Field Theory
   Alexander A. Auer      : GIAO ZORA
   Ute Becker             : Parallelization
   Giovanni Bistoni       : ED, Open-shell LED
   Martin Brehm           : Molecular dynamics
   Dmytro Bykov           : SCF Hessian
   Vijay G. Chilkuri      : MRCI spin determinant printing
   Dipayan Datta          : RHF DLPNO-CCSD density
   Achintya Kumar Dutta   : EOM-CC, STEOM-CC
   Dmitry Ganyushin       : Spin-Orbit,Spin-Spin,Magnetic field MRCI
   Miquel Garcia          : C-PCM Hessian
   Yang Guo               : DLPNO-NEVPT2, CIM, IAO-localization
   Andreas Hansen         : Spin unrestricted coupled pair/coupled cluster methods
   Benjamin Helmich-Paris : CASSCF linear response (MC-RPA)
   Lee Huntington         : MR-EOM, pCC
   Robert Izsak           : Overlap fitted RIJCOSX, COSX-SCS-MP3, EOM
   Christian Kollmar      : KDIIS, OOCD, Brueckner-CCSD(T), CCSD density
   Simone Kossmann        : Meta GGA functionals, TD-DFT gradient, OOMP2, MP2 Hessian
   Martin Krupicka        : AUTO-CI
   Lucas Lang             : DCDCAS
   Dagmar Lenk            : GEPOL surface, SMD
   Dimitrios Liakos       : Extrapolation schemes; parallel MDCI
   Dimitrios Manganas     : ROCIS; embedding schemes
   Dimitrios Pantazis     : SARC Basis sets
   Taras Petrenko         : DFT Hessian,TD-DFT gradient, ASA, ECA, R-Raman, ABS, FL, XAS/XES, NRVS
   Peter Pinski           : DLPNO-MP2, DLPNO-MP2 Gradient
   Christoph Reimann      : Effective Core Potentials
   Marius Retegan         : Local ZFS, SOC
   Christoph Riplinger    : Optimizer, TS searches, QM/MM, DLPNO-CCSD(T), (RO)-DLPNO pert. Triples
   Tobias Risthaus        : Range-separated hybrids, TD-DFT gradient, RPA, STAB
   Michael Roemelt        : Restricted open shell CIS
   Masaaki Saitow         : Open-shell DLPNO
   Barbara Sandhoefer     : DKH picture change effects
   Avijit Sen             : IP-ROCIS
   Kantharuban Sivalingam : CASSCF convergence, NEVPT2, FIC-MRCI
   Bernardo de Souza      : ESD, SOC TD-DFT
   Georgi Stoychev        : AutoAux, RI-MP2 NMR
   Willem Van den Heuvel  : Paramagnetic NMR
   Boris Wezisla          : Elementary symmetry handling
   Frank Wennmohs         : Technical directorship


 We gratefully acknowledge several colleagues who have allowed us to
 interface, adapt or use parts of their codes:
   Stefan Grimme, W. Hujo, H. Kruse,             : VdW corrections, initial TS optimization,
                  C. Bannwarth                     DFT functionals, gCP, sTDA/sTD-DF
   Ed Valeev                                     : LibInt (2-el integral package), F12 methods
   Garnet Chan, S. Sharma, J. Yang, R. Olivares  : DMRG
   Ulf Ekstrom                                   : XCFun DFT Library
   Mihaly Kallay                                 : mrcc  (arbitrary order and MRCC methods)
   Andreas Klamt, Michael Diedenhofen            : otool_cosmo (COSMO solvation model)
   Jiri Pittner, Ondrej Demel                    : Mk-CCSD
   Frank Weinhold                                : gennbo (NPA and NBO analysis)
   Christopher J. Cramer and Donald G. Truhlar   : smd solvation model
   Lars Goerigk                                  : TD-DFT with DH, B97 family of functionals
   V. Asgeirsson, H. Jonsson                     : NEB implementation
   FAccTs GmbH                                   : IRC, NEB, NEB-TS, Multilevel


 Your calculation uses the libint2 library for the computation of 2-el integrals
 For citations please refer to: http://libint.valeyev.net

 This ORCA versions uses:
   CBLAS   interface :  Fast vector & matrix operations
   LAPACKE interface :  Fast linear algebra routines
   SCALAPACK package :  Parallel linear algebra routines


----- Orbital basis set information -----
Your calculation utilizes the basis: aug-pc-4
   H, C-F              : F. Jensen, J. Chem. Phys. 115, 9113 (2001).
                         F. Jensen, J. Chem. Phys. 116, 7372 (2002).
                         F. Jensen, J. Chem. Phys. 117, 9234 (2002).
   Si-Cl               : F. Jensen, T. Helgaker, J. Chem. Phys. 121, 3463 (2004).
   He-B, Ne-Mg, Al, Ar : F. Jensen, J. Phys. Chem. A 111, 11198 (2007).
   K, Ca, Ga-Kr        : F. Jensen, J. Chem. Phys. 136, 094110 (2012).
   Sc-Zn               : F. Jensen, J. Chem. Phys. 138, 014107 (2013).

================================================================================
                                        WARNINGS
                       Please study these warnings very carefully!
================================================================================


INFO   : the flag for use of LIBINT has been found!

================================================================================
                                       INPUT FILE
================================================================================
NAME = hcho_pbe.inp
|  1> !uks pbe nori aug-pc-4 grid5 nofinalgrid verytightscf
|  2> 
|  3> %maxcore 1500
|  4> 
|  5> %pal nprocs 4 end
|  6> 
|  7> %scf
|  8> 	maxiter 200
|  9> end
| 10> %elprop
| 11> 	dipole true
| 12> 	 polar 1
| 13> 	 maxiter 200
| 14> end
| 15> 
| 16> * xyz 0 1
| 17> O 0.0000 0.0000 1.2050
| 18> C 0.0000 0.0000 0.0000
| 19> H 0.0000 0.9429 -0.5876
| 20> H 0.0000 -0.9429 -0.5876
| 21> *
| 22> 
| 23>                          ****END OF INPUT****
================================================================================

                       ****************************
                       * Single Point Calculation *
                       ****************************

---------------------------------
CARTESIAN COORDINATES (ANGSTROEM)
---------------------------------
  O      0.000000    0.000000    1.205000
  C      0.000000    0.000000    0.000000
  H      0.000000    0.942900   -0.587600
  H      0.000000   -0.942900   -0.587600

----------------------------
CARTESIAN COORDINATES (A.U.)
----------------------------
  NO LB      ZA    FRAG     MASS         X           Y           Z
   0 O     8.0000    0    15.999    0.000000    0.000000    2.277120
   1 C     6.0000    0    12.011    0.000000    0.000000    0.000000
   2 H     1.0000    0     1.008    0.000000    1.781823   -1.110403
   3 H     1.0000    0     1.008    0.000000   -1.781823   -1.110403

--------------------------------
INTERNAL COORDINATES (ANGSTROEM)
--------------------------------
 O      0   0   0     0.000000000000     0.00000000     0.00000000
 C      1   0   0     1.205000000000     0.00000000     0.00000000
 H      2   1   0     1.111005927077   121.93049181     0.00000000
 H      2   1   3     1.111005927077   121.93049181   180.00000000

---------------------------
INTERNAL COORDINATES (A.U.)
---------------------------
 O      0   0   0     0.000000000000     0.00000000     0.00000000
 C      1   0   0     2.277119991375     0.00000000     0.00000000
 H      2   1   0     2.099496935339   121.93049181     0.00000000
 H      2   1   3     2.099496935339   121.93049181   180.00000000

---------------------
BASIS SET INFORMATION
---------------------
There are 3 groups of distinct atoms

 Group   1 Type O   : 27s12p7d4f3g2h contracted to 9s8p7d4f3g2h pattern {1191111111/51111111/1111111/1111/111/11}
 Group   2 Type C   : 28s12p7d4f3g2h contracted to 9s8p7d4f3g2h pattern {11101111111/51111111/1111111/1111/111/11}
 Group   3 Type H   : 12s7p4d3f2g contracted to 8s7p4d3f2g pattern {51111111/1111111/1111/111/11}

Atom   0O    basis set group =>   1
Atom   1C    basis set group =>   2
Atom   2H    basis set group =>   3
Atom   3H    basis set group =>   3


           ************************************************************
           *        Program running with 4 parallel MPI-processes     *
           *              working on a common directory               *
           ************************************************************
------------------------------------------------------------------------------
                           ORCA GTO INTEGRAL CALCULATION
------------------------------------------------------------------------------

                         BASIS SET STATISTICS AND STARTUP INFO

 # of primitive gaussian shells          ...  167
 # of primitive gaussian functions       ...  535
 # of contracted shells                  ...  114
 # of contracted basis functions         ...  466
 Highest angular momentum                ...    5
 Maximum contraction depth               ...   11
 Integral package used                   ... LIBINT
 Integral threshhold            Thresh   ...  1.000e-12
 Primitive cut-off              TCut     ...  1.000e-14


------------------------------ INTEGRAL EVALUATION ----------------------------


 * One electron integrals 
 Pre-screening matrix                    ... done
 Shell pair data                         ... done (   0.002 sec)



           ************************************************************
           *        Program running with 4 parallel MPI-processes     *
           *              working on a common directory               *
           ************************************************************
-------------------------------------------------------------------------------
                                 ORCA SCF
-------------------------------------------------------------------------------

------------
SCF SETTINGS
------------
Hamiltonian:
 Density Functional     Method          .... DFT(GTOs)
 Exchange Functional    Exchange        .... PBE
   PBE kappa parameter   XKappa         ....  0.804000
   PBE mue parameter    XMuePBE         ....  0.219520
 Correlation Functional Correlation     .... PBE
   PBE beta parameter  CBetaPBE         ....  0.066725
 LDA part of GGA corr.  LDAOpt          .... PW91-LDA
 Gradients option       PostSCFGGA      .... off
   Density functional embedding theory  .... OFF
   NL short-range parameter             ....  6.400000


General Settings:
 Integral files         IntName         .... hcho_pbe
 Hartree-Fock type      HFTyp           .... UHF
 Total Charge           Charge          ....    0
 Multiplicity           Mult            ....    1
 Number of Electrons    NEL             ....   16
 Basis Dimension        Dim             ....  466
 Nuclear Repulsion      ENuc            ....     31.2557348557 Eh

Convergence Acceleration:
 DIIS                   CNVDIIS         .... on
   Start iteration      DIISMaxIt       ....    12
   Startup error        DIISStart       ....  0.200000
   # of expansion vecs  DIISMaxEq       ....     5
   Bias factor          DIISBfac        ....   1.050
   Max. coefficient     DIISMaxC        ....  10.000
 Newton-Raphson         CNVNR           .... off
 SOSCF                  CNVSOSCF        .... off
 Level Shifting         CNVShift        .... on
   Level shift para.    LevelShift      ....    0.2500
   Turn off err/grad.   ShiftErr        ....    0.0010
 Zerner damping         CNVZerner       .... off
 Static damping         CNVDamp         .... on
   Fraction old density DampFac         ....    0.7000
   Max. Damping (<1)    DampMax         ....    0.9800
   Min. Damping (>=0)   DampMin         ....    0.0000
   Turn off err/grad.   DampErr         ....    0.1000
 Fernandez-Rico         CNVRico         .... off

SCF Procedure:
 Maximum # iterations   MaxIter         ....   200
 SCF integral mode      SCFMode         .... Direct
   Integral package                     .... LIBINT
 Reset frequency        DirectResetFreq ....    20
 Integral Threshold     Thresh          ....  1.000e-12 Eh
 Primitive CutOff       TCut            ....  1.000e-14 Eh

Convergence Tolerance:
 Convergence Check Mode ConvCheckMode   .... Total+1el-Energy
 Convergence forced     ConvForced      .... 0
 Energy Change          TolE            ....  1.000e-09 Eh
 1-El. energy change                    ....  1.000e-06 Eh
 DIIS Error             TolErr          ....  1.000e-08


Diagonalization of the overlap matrix:
Smallest eigenvalue                        ... 1.744e-07
Time for diagonalization                   ...    0.045 sec
Threshold for overlap eigenvalues          ... 1.000e-08
Number of eigenvalues below threshold      ... 0
Time for construction of square roots      ...    0.035 sec
Total time needed                          ...    0.081 sec

-------------------
DFT GRID GENERATION
-------------------

General Integration Accuracy     IntAcc      ...  5.010
Radial Grid Type                 RadialGrid  ... Gauss-Chebyshev
Angular Grid (max. acc.)         AngularGrid ... Lebedev-434
Angular grid pruning method      GridPruning ... 3 (G Style)
Weight generation scheme         WeightScheme... Becke
Basis function cutoff            BFCut       ...    1.0000e-12
Integration weight cutoff        WCut        ...    1.0000e-14
Grids for H and He will be reduced by one unit

# of grid points (after initial pruning)     ...  34924 (   0.0 sec)
# of grid points (after weights+screening)   ...  34294 (   0.0 sec)
nearest neighbour list constructed           ...    0.0 sec
Grid point re-assignment to atoms done       ...    0.0 sec
Grid point division into batches done        ...    0.3 sec
Reduced shell lists constructed in    0.4 sec

Total number of grid points                  ...    34294
Total number of batches                      ...      537
Average number of points per batch           ...       63
Average number of grid points per atom       ...     8574
Average number of shells per batch           ...    79.21 (69.49%)
Average number of basis functions per batch  ...   335.39 (71.97%)
Average number of large shells per batch     ...    69.87 (88.20%)
Average number of large basis fcns per batch ...   298.46 (88.99%)
Maximum spatial batch extension              ...  16.27, 16.27, 14.68 au
Average spatial batch extension              ...   0.98,  0.97,  0.91 au

Time for grid setup =    0.407 sec

------------------------------
INITIAL GUESS: MODEL POTENTIAL
------------------------------
Loading Hartree-Fock densities                     ... done
Calculating cut-offs                               ... done
Setting up the integral package                    ... done
Initializing the effective Hamiltonian             ... done
Starting the Coulomb interaction                   ... done (   0.0 sec)
Reading the grid                                   ... done
Mapping shells                                     ... done
Starting the XC term evaluation                    ... done (   0.8 sec)
  promolecular density results
     # of electrons  =     15.999023268
     EX              =    -13.800698493
     EC              =     -0.510339750
     EX+EC           =    -14.311038243
Transforming the Hamiltonian                       ... done (   0.0 sec)
Diagonalizing the Hamiltonian                      ... done (   0.0 sec)
Back transforming the eigenvectors                 ... done (   0.0 sec)
Now organizing SCF variables                       ... done
                      ------------------
                      INITIAL GUESS DONE (   1.5 sec)
                      ------------------
--------------
SCF ITERATIONS
--------------
ITER       Energy         Delta-E        Max-DP      RMS-DP      [F,P]     Damp
               ***  Starting incremental Fock matrix formation  ***
  0   -114.3522298974   0.000000000000 0.01926442  0.00020941  0.2733279 0.7000
  1   -114.3942277707  -0.041997873386 0.00979503  0.00011499  0.0668657 0.7000
                               ***Turning on DIIS***
  2   -114.4015843841  -0.007356613394 0.01519077  0.00016662  0.0358599 0.0000
  3   -114.4273096633  -0.025725279205 0.00624493  0.00007351  0.0298393 0.0000
  4   -114.4283080135  -0.000998350194 0.00212342  0.00002416  0.0305965 0.0000
  5   -114.4291901045  -0.000882090963 0.00218045  0.00001759  0.0072454 0.0000
  6   -114.4292411842  -0.000051079681 0.00129954  0.00001006  0.0019988 0.0000
  7   -114.4292446242  -0.000003440058 0.00129560  0.00000981  0.0005713 0.0000
  8   -114.4292449545  -0.000000330261 0.00001230  0.00000016  0.0001206 0.0000
  9   -114.4292449614  -0.000000006883 0.00000712  0.00000006  0.0000706 0.0000
 10   -114.4292449676  -0.000000006178 0.00000191  0.00000002  0.0000056 0.0000
                 **** Energy Check signals convergence ****

               *****************************************************
               *                     SUCCESS                       *
               *           SCF CONVERGED AFTER  11 CYCLES          *
               *****************************************************


----------------
TOTAL SCF ENERGY
----------------

Total Energy       :         -114.42924497 Eh           -3113.77806 eV

Components:
Nuclear Repulsion  :           31.25573486 Eh             850.51178 eV
Electronic Energy  :         -145.68497982 Eh           -3964.28984 eV
One Electron Energy:         -217.42356830 Eh           -5916.39608 eV
Two Electron Energy:           71.73858847 Eh            1952.10624 eV

Virial components:
Potential Energy   :         -228.46066068 Eh           -6216.73063 eV
Kinetic Energy     :          114.03141571 Eh            3102.95257 eV
Virial Ratio       :            2.00348877


DFT components:
N(Alpha)           :        7.999999725871 electrons
N(Beta)            :        7.999999725871 electrons
N(Total)           :       15.999999451743 electrons
E(X)               :      -14.048800060122 Eh       
E(C)               :       -0.514304339570 Eh       
E(XC)              :      -14.563104399692 Eh       
DFET-embed. en.    :        0.000000000000 Eh       

---------------
SCF CONVERGENCE
---------------

  Last Energy change         ...   -4.4125e-11  Tolerance :   1.0000e-09
  Last MAX-Density change    ...    8.0926e-06  Tolerance :   1.0000e-08
  Last RMS-Density change    ...    7.7519e-08  Tolerance :   1.0000e-09
  Last DIIS Error            ...    1.1523e-06  Tolerance :   1.0000e-08

             **** THE GBW FILE WAS UPDATED (hcho_pbe.gbw) ****
             **** DENSITY FILE WAS UPDATED (hcho_pbe.scfp.tmp) ****
             **** ENERGY FILE WAS UPDATED (hcho_pbe.en.tmp) ****
----------------------
UHF SPIN CONTAMINATION
----------------------

Warning: in a DFT calculation there is little theoretical justification to 
         calculate <S**2> as in Hartree-Fock theory. We will do it anyways
         but you should keep in mind that the values have only limited relevance

Expectation value of <S**2>     :    -0.000000
Ideal value S*(S+1) for S=0.0   :     0.000000
Deviation                       :    -0.000000

----------------
ORBITAL ENERGIES
----------------
                 SPIN UP ORBITALS
  NO   OCC          E(Eh)            E(eV) 
   0   1.0000     -18.773319      -510.8480 
   1   1.0000      -9.983537      -271.6658 
   2   1.0000      -0.980090       -26.6696 
   3   1.0000      -0.577749       -15.7214 
   4   1.0000      -0.447453       -12.1758 
   5   1.0000      -0.404330       -11.0024 
   6   1.0000      -0.371479       -10.1085 
   7   1.0000      -0.230155        -6.2628 
   8   0.0000      -0.098728        -2.6865 
   9   0.0000      -0.016955        -0.4614 
  10   0.0000       0.009956         0.2709 
  11   0.0000       0.011824         0.3217 
  12   0.0000       0.018520         0.5039 
  13   0.0000       0.037032         1.0077 
  14   0.0000       0.037296         1.0149 
  15   0.0000       0.050886         1.3847 
  16   0.0000       0.054582         1.4852 
  17   0.0000       0.057862         1.5745 
  18   0.0000       0.058774         1.5993 
  19   0.0000       0.060748         1.6530 
  20   0.0000       0.072745         1.9795 
  21   0.0000       0.080421         2.1884 
  22   0.0000       0.092929         2.5287 
  23   0.0000       0.108935         2.9643 
  24   0.0000       0.118339         3.2202 
  25   0.0000       0.125203         3.4070 
  26   0.0000       0.127710         3.4752 
  27   0.0000       0.128999         3.5102 
  28   0.0000       0.132406         3.6030 
  29   0.0000       0.133809         3.6411 
  30   0.0000       0.133973         3.6456 
  31   0.0000       0.140175         3.8143 
  32   0.0000       0.151606         4.1254 
  33   0.0000       0.153224         4.1694 
  34   0.0000       0.170657         4.6438 
  35   0.0000       0.183026         4.9804 
  36   0.0000       0.189945         5.1687 
  37   0.0000       0.192416         5.2359 
  38   0.0000       0.205860         5.6017 
  39   0.0000       0.220549         6.0014 
  40   0.0000       0.220736         6.0065 
  41   0.0000       0.234097         6.3701 
  42   0.0000       0.237241         6.4557 
  43   0.0000       0.239866         6.5271 
  44   0.0000       0.248356         6.7581 
  45   0.0000       0.252969         6.8836 
  46   0.0000       0.253147         6.8885 
  47   0.0000       0.256983         6.9929 
  48   0.0000       0.260057         7.0765 
  49   0.0000       0.266308         7.2466 
  50   0.0000       0.273052         7.4301 
  51   0.0000       0.284137         7.7318 
  52   0.0000       0.293359         7.9827 
  53   0.0000       0.294235         8.0065 
  54   0.0000       0.294329         8.0091 
  55   0.0000       0.294397         8.0109 
  56   0.0000       0.299537         8.1508 
  57   0.0000       0.302867         8.2414 
  58   0.0000       0.306066         8.3285 
  59   0.0000       0.321484         8.7480 
  60   0.0000       0.332568         9.0496 
  61   0.0000       0.334033         9.0895 
  62   0.0000       0.363395         9.8885 
  63   0.0000       0.364389         9.9155 
  64   0.0000       0.368795        10.0354 
  65   0.0000       0.369802        10.0628 
  66   0.0000       0.392527        10.6812 
  67   0.0000       0.395257        10.7555 
  68   0.0000       0.401724        10.9315 
  69   0.0000       0.402486        10.9522 
  70   0.0000       0.410833        11.1793 
  71   0.0000       0.417875        11.3709 
  72   0.0000       0.421963        11.4822 
  73   0.0000       0.421984        11.4828 
  74   0.0000       0.437397        11.9022 
  75   0.0000       0.442135        12.0311 
  76   0.0000       0.459131        12.4936 
  77   0.0000       0.460608        12.5338 
  78   0.0000       0.469571        12.7777 
  79   0.0000       0.477642        12.9973 
  80   0.0000       0.485354        13.2071 
  81   0.0000       0.488096        13.2818 
  82   0.0000       0.488467        13.2919 
  83   0.0000       0.499311        13.5869 
  84   0.0000       0.500911        13.6305 
  85   0.0000       0.505697        13.7607 
  86   0.0000       0.512823        13.9546 
  87   0.0000       0.518570        14.1110 
  88   0.0000       0.522729        14.2242 
  89   0.0000       0.527860        14.3638 
  90   0.0000       0.539246        14.6736 
  91   0.0000       0.544715        14.8224 
  92   0.0000       0.550297        14.9743 
  93   0.0000       0.557892        15.1810 
  94   0.0000       0.558422        15.1954 
  95   0.0000       0.578867        15.7518 
  96   0.0000       0.588242        16.0069 
  97   0.0000       0.593689        16.1551 
  98   0.0000       0.599168        16.3042 
  99   0.0000       0.604497        16.4492 
 100   0.0000       0.604940        16.4613 
 101   0.0000       0.610418        16.6103 
 102   0.0000       0.618024        16.8173 
 103   0.0000       0.624420        16.9913 
 104   0.0000       0.637715        17.3531 
 105   0.0000       0.641119        17.4457 
 106   0.0000       0.652059        17.7434 
 107   0.0000       0.653931        17.7944 
 108   0.0000       0.658274        17.9125 
 109   0.0000       0.660575        17.9752 
 110   0.0000       0.663953        18.0671 
 111   0.0000       0.703541        19.1443 
 112   0.0000       0.717144        19.5145 
 113   0.0000       0.720358        19.6019 
 114   0.0000       0.735296        20.0084 
 115   0.0000       0.737619        20.0716 
 116   0.0000       0.755297        20.5527 
 117   0.0000       0.763548        20.7772 
 118   0.0000       0.768126        20.9018 
 119   0.0000       0.769125        20.9290 
 120   0.0000       0.773282        21.0421 
 121   0.0000       0.776858        21.1394 
 122   0.0000       0.784965        21.3600 
 123   0.0000       0.787069        21.4172 
 124   0.0000       0.802472        21.8364 
 125   0.0000       0.810592        22.0573 
 126   0.0000       0.810827        22.0637 
 127   0.0000       0.823886        22.4191 
 128   0.0000       0.826694        22.4955 
 129   0.0000       0.831224        22.6188 
 130   0.0000       0.847450        23.0603 
 131   0.0000       0.848160        23.0796 
 132   0.0000       0.848353        23.0848 
 133   0.0000       0.851779        23.1781 
 134   0.0000       0.861197        23.4344 
 135   0.0000       0.871001        23.7012 
 136   0.0000       0.871845        23.7241 
 137   0.0000       0.880502        23.9597 
 138   0.0000       0.888659        24.1816 
 139   0.0000       0.890643        24.2356 
 140   0.0000       0.916812        24.9477 
 141   0.0000       0.918408        24.9912 
 142   0.0000       0.934267        25.4227 
 143   0.0000       0.957035        26.0423 
 144   0.0000       0.964324        26.2406 
 145   0.0000       0.973448        26.4889 
 146   0.0000       0.978889        26.6369 
 147   0.0000       0.980342        26.6765 
 148   0.0000       0.985890        26.8274 
 149   0.0000       0.992551        27.0087 
 150   0.0000       1.000951        27.2373 
 151   0.0000       1.021940        27.8084 
 152   0.0000       1.030401        28.0386 
 153   0.0000       1.035390        28.1744 
 154   0.0000       1.039327        28.2815 
 155   0.0000       1.073545        29.2126 
 156   0.0000       1.081751        29.4359 
 157   0.0000       1.094224        29.7754 
 158   0.0000       1.113429        30.2979 
 159   0.0000       1.117297        30.4032 
 160   0.0000       1.126506        30.6538 
 161   0.0000       1.129335        30.7308 
 162   0.0000       1.145318        31.1657 
 163   0.0000       1.194011        32.4907 
 164   0.0000       1.201781        32.7021 
 165   0.0000       1.202283        32.7158 
 166   0.0000       1.203634        32.7525 
 167   0.0000       1.230513        33.4840 
 168   0.0000       1.260228        34.2926 
 169   0.0000       1.273729        34.6599 
 170   0.0000       1.293325        35.1932 
 171   0.0000       1.308315        35.6010 
 172   0.0000       1.339019        36.4366 
 173   0.0000       1.351524        36.7768 
 174   0.0000       1.356037        36.8996 
 175   0.0000       1.436753        39.0960 
 176   0.0000       1.461278        39.7634 
 177   0.0000       1.463926        39.8354 
 178   0.0000       1.488649        40.5082 
 179   0.0000       1.544028        42.0151 
 180   0.0000       1.558350        42.4048 
 181   0.0000       1.560800        42.4715 
 182   0.0000       1.562031        42.5050 
 183   0.0000       1.628480        44.3132 
 184   0.0000       1.630133        44.3582 
 185   0.0000       1.662698        45.2443 
 186   0.0000       1.699814        46.2543 
 187   0.0000       1.706154        46.4268 
 188   0.0000       1.742132        47.4058 
 189   0.0000       1.777890        48.3788 
 190   0.0000       1.779335        48.4182 
 191   0.0000       1.829627        49.7867 
 192   0.0000       1.860990        50.6401 
 193   0.0000       1.893314        51.5197 
 194   0.0000       1.900104        51.7045 
 195   0.0000       1.933217        52.6055 
 196   0.0000       1.938125        52.7391 
 197   0.0000       1.982254        53.9399 
 198   0.0000       1.987882        54.0930 
 199   0.0000       2.039318        55.4927 
 200   0.0000       2.046632        55.6917 
 201   0.0000       2.110047        57.4173 
 202   0.0000       2.157591        58.7110 
 203   0.0000       2.216015        60.3008 
 204   0.0000       2.221476        60.4494 
 205   0.0000       2.223365        60.5008 
 206   0.0000       2.223809        60.5129 
 207   0.0000       2.267153        61.6924 
 208   0.0000       2.296781        62.4986 
 209   0.0000       2.314174        62.9719 
 210   0.0000       2.351136        63.9777 
 211   0.0000       2.382723        64.8372 
 212   0.0000       2.451626        66.7121 
 213   0.0000       2.472319        67.2752 
 214   0.0000       2.555993        69.5521 
 215   0.0000       2.563110        69.7458 
 216   0.0000       2.586059        70.3702 
 217   0.0000       2.616215        71.1908 
 218   0.0000       2.719839        74.0106 
 219   0.0000       2.774783        75.5057 
 220   0.0000       2.866827        78.0103 
 221   0.0000       2.976934        81.0065 
 222   0.0000       2.990010        81.3623 
 223   0.0000       3.039251        82.7022 
 224   0.0000       3.198483        87.0352 
 225   0.0000       3.211293        87.3837 
 226   0.0000       3.218281        87.5739 
 227   0.0000       3.331278        90.6487 
 228   0.0000       3.389734        92.2394 
 229   0.0000       3.432492        93.4028 
 230   0.0000       3.457939        94.0953 
 231   0.0000       3.476626        94.6038 
 232   0.0000       3.519794        95.7785 
 233   0.0000       3.540378        96.3386 
 234   0.0000       3.578164        97.3668 
 235   0.0000       3.638829        99.0176 
 236   0.0000       3.678618       100.1003 
 237   0.0000       3.743990       101.8792 
 238   0.0000       3.768066       102.5343 
 239   0.0000       3.810927       103.7006 
 240   0.0000       3.885386       105.7267 
 241   0.0000       3.927919       106.8841 
 242   0.0000       3.933132       107.0260 
 243   0.0000       3.989876       108.5701 
 244   0.0000       4.050885       110.2302 
 245   0.0000       4.107034       111.7581 
 246   0.0000       4.127014       112.3018 
 247   0.0000       4.152833       113.0043 
 248   0.0000       4.235941       115.2658 
 249   0.0000       4.328381       117.7812 
 250   0.0000       4.332866       117.9033 
 251   0.0000       4.335528       117.9757 
 252   0.0000       4.415822       120.1606 
 253   0.0000       4.456366       121.2639 
 254   0.0000       4.480210       121.9127 
 255   0.0000       4.484508       122.0297 
 256   0.0000       4.501768       122.4993 
 257   0.0000       4.541835       123.5896 
 258   0.0000       4.605128       125.3119 
 259   0.0000       4.622134       125.7747 
 260   0.0000       4.643670       126.3607 
 261   0.0000       4.668694       127.0416 
 262   0.0000       4.702499       127.9615 
 263   0.0000       4.725627       128.5908 
 264   0.0000       4.761782       129.5747 
 265   0.0000       4.837349       131.6310 
 266   0.0000       4.899506       133.3223 
 267   0.0000       4.968920       135.2112 
 268   0.0000       5.057160       137.6123 
 269   0.0000       5.067840       137.9029 
 270   0.0000       5.219023       142.0168 
 271   0.0000       5.223872       142.1488 
 272   0.0000       5.234008       142.4246 
 273   0.0000       5.248429       142.8170 
 274   0.0000       5.298538       144.1805 
 275   0.0000       5.367853       146.0667 
 276   0.0000       5.409313       147.1949 
 277   0.0000       5.430634       147.7751 
 278   0.0000       5.444304       148.1471 
 279   0.0000       5.572328       151.6307 
 280   0.0000       5.690708       154.8520 
 281   0.0000       5.827997       158.5878 
 282   0.0000       5.840599       158.9308 
 283   0.0000       5.937306       161.5623 
 284   0.0000       5.955589       162.0598 
 285   0.0000       6.006033       163.4325 
 286   0.0000       6.006942       163.4572 
 287   0.0000       6.127955       166.7501 
 288   0.0000       6.220092       169.2573 
 289   0.0000       6.308973       171.6759 
 290   0.0000       6.397325       174.0801 
 291   0.0000       6.398417       174.1098 
 292   0.0000       6.467322       175.9848 
 293   0.0000       6.477653       176.2659 
 294   0.0000       6.593665       179.4227 
 295   0.0000       6.642862       180.7615 
 296   0.0000       6.650409       180.9668 
 297   0.0000       6.822732       185.6560 
 298   0.0000       6.997576       190.4137 
 299   0.0000       7.202309       195.9848 
 300   0.0000       7.287814       198.3115 
 301   0.0000       7.541266       205.2083 
 302   0.0000       7.634731       207.7516 
 303   0.0000       7.752405       210.9537 
 304   0.0000       7.766429       211.3353 
 305   0.0000       8.044854       218.9116 
 306   0.0000       8.264570       224.8904 
 307   0.0000       8.412989       228.9291 
 308   0.0000       8.548368       232.6129 
 309   0.0000       8.563589       233.0271 
 310   0.0000       8.795713       239.3435 
 311   0.0000       8.852399       240.8860 
 312   0.0000       8.960762       243.8347 
 313   0.0000       8.988738       244.5960 
 314   0.0000       9.003390       244.9947 
 315   0.0000       9.033737       245.8205 
 316   0.0000       9.114096       248.0072 
 317   0.0000       9.195378       250.2189 
 318   0.0000       9.242575       251.5033 
 319   0.0000       9.269069       252.2242 
 320   0.0000       9.452393       257.2127 
 321   0.0000       9.476238       257.8616 
 322   0.0000       9.524502       259.1749 
 323   0.0000       9.866225       268.4736 
 324   0.0000       9.896464       269.2965 
 325   0.0000      10.057613       273.6816 
 326   0.0000      10.259914       279.1864 
 327   0.0000      10.385866       282.6138 
 328   0.0000      10.447976       284.3039 
 329   0.0000      10.453074       284.4426 
 330   0.0000      10.554339       287.1982 
 331   0.0000      10.594633       288.2946 
 332   0.0000      10.624403       289.1047 
 333   0.0000      10.668074       290.2931 
 334   0.0000      10.764526       292.9177 
 335   0.0000      10.915540       297.0269 
 336   0.0000      10.932980       297.5015 
 337   0.0000      10.936370       297.5938 
 338   0.0000      11.105695       302.2013 
 339   0.0000      11.192195       304.5551 
 340   0.0000      11.199613       304.7570 
 341   0.0000      11.333751       308.4071 
 342   0.0000      11.338180       308.5276 
 343   0.0000      11.492361       312.7231 
 344   0.0000      11.579319       315.0893 
 345   0.0000      11.612768       315.9995 
 346   0.0000      11.668370       317.5125 
 347   0.0000      11.703275       318.4623 
 348   0.0000      11.720126       318.9208 
 349   0.0000      11.789495       320.8085 
 350   0.0000      11.829279       321.8911 
 351   0.0000      12.034414       327.4731 
 352   0.0000      12.035649       327.5067 
 353   0.0000      12.063277       328.2585 
 354   0.0000      12.083846       328.8182 
 355   0.0000      12.199921       331.9767 
 356   0.0000      12.200666       331.9970 
 357   0.0000      12.239566       333.0555 
 358   0.0000      12.276437       334.0588 
 359   0.0000      12.326953       335.4335 
 360   0.0000      12.421680       338.0111 
 361   0.0000      12.466745       339.2374 
 362   0.0000      12.490109       339.8732 
 363   0.0000      12.503605       340.2404 
 364   0.0000      12.568076       341.9947 
 365   0.0000      12.630629       343.6969 
 366   0.0000      12.685223       345.1825 
 367   0.0000      12.706026       345.7486 
 368   0.0000      12.726682       346.3106 
 369   0.0000      12.753459       347.0393 
 370   0.0000      12.823641       348.9490 
 371   0.0000      12.856030       349.8304 
 372   0.0000      12.915286       351.4428 
 373   0.0000      13.006210       353.9170 
 374   0.0000      13.014763       354.1497 
 375   0.0000      13.073805       355.7563 
 376   0.0000      13.218276       359.6876 
 377   0.0000      13.327196       362.6514 
 378   0.0000      13.336639       362.9084 
 379   0.0000      13.383103       364.1728 
 380   0.0000      13.632846       370.9686 
 381   0.0000      13.651941       371.4882 
 382   0.0000      13.750532       374.1710 
 383   0.0000      13.788962       375.2167 
 384   0.0000      13.863235       377.2378 
 385   0.0000      13.943703       379.4274 
 386   0.0000      14.091813       383.4577 
 387   0.0000      14.355538       390.6340 
 388   0.0000      14.665589       399.0710 
 389   0.0000      14.891216       405.2106 
 390   0.0000      14.902567       405.5195 
 391   0.0000      14.935800       406.4238 
 392   0.0000      15.278258       415.7425 
 393   0.0000      15.284083       415.9010 
 394   0.0000      15.636827       425.4997 
 395   0.0000      16.002573       435.4521 
 396   0.0000      16.342424       444.7000 
 397   0.0000      16.720608       454.9909 
 398   0.0000      16.724395       455.0939 
 399   0.0000      16.730144       455.2504 
 400   0.0000      16.737445       455.4490 
 401   0.0000      16.910665       460.1626 
 402   0.0000      16.985506       462.1991 
 403   0.0000      17.018959       463.1094 
 404   0.0000      17.086597       464.9499 
 405   0.0000      17.108873       465.5561 
 406   0.0000      17.121963       465.9123 
 407   0.0000      17.162767       467.0226 
 408   0.0000      17.368662       472.6253 
 409   0.0000      17.385757       473.0905 
 410   0.0000      17.747108       482.9234 
 411   0.0000      17.872563       486.3372 
 412   0.0000      18.088263       492.2067 
 413   0.0000      18.158488       494.1176 
 414   0.0000      18.324013       498.6217 
 415   0.0000      18.352991       499.4103 
 416   0.0000      18.398547       500.6499 
 417   0.0000      18.454098       502.1615 
 418   0.0000      18.560735       505.0633 
 419   0.0000      18.754500       510.3359 
 420   0.0000      18.918739       514.8051 
 421   0.0000      18.991210       516.7771 
 422   0.0000      19.102416       519.8032 
 423   0.0000      19.682638       535.5918 
 424   0.0000      19.982576       543.7535 
 425   0.0000      20.126896       547.6807 
 426   0.0000      20.157694       548.5187 
 427   0.0000      20.489461       557.5466 
 428   0.0000      21.007192       571.6348 
 429   0.0000      21.564306       586.7946 
 430   0.0000      22.470829       611.4624 
 431   0.0000      23.069977       627.7660 
 432   0.0000      23.165327       630.3606 
 433   0.0000      23.484746       639.0524 
 434   0.0000      23.519779       640.0057 
 435   0.0000      23.627154       642.9275 
 436   0.0000      23.955751       651.8691 
 437   0.0000      23.985350       652.6746 
 438   0.0000      24.344477       662.4469 
 439   0.0000      25.264318       687.4771 
 440   0.0000      25.617154       697.0782 
 441   0.0000      26.581404       723.3168 
 442   0.0000      30.254239       823.2597 
 443   0.0000      32.022380       871.3733 
 444   0.0000      32.221870       876.8017 
 445   0.0000      32.234805       877.1536 
 446   0.0000      32.776237       891.8868 
 447   0.0000      33.274175       905.4363 
 448   0.0000      34.337031       934.3581 
 449   0.0000      34.475301       938.1206 
 450   0.0000      34.777431       946.3420 
 451   0.0000      40.941459      1114.0737 
 452   0.0000      41.103517      1118.4836 
 453   0.0000      66.615082      1812.6885 
 454   0.0000      66.676520      1814.3604 
 455   0.0000      67.108377      1826.1118 
 456   0.0000      67.405208      1834.1890 
 457   0.0000      68.677508      1868.8100 
 458   0.0000      76.431410      2079.8044 
 459   0.0000      91.039993      2477.3242 
 460   0.0000      91.061923      2477.9209 
 461   0.0000      91.125651      2479.6550 
 462   0.0000      91.337629      2485.4233 
 463   0.0000      92.242836      2510.0552 
 464   0.0000      92.402778      2514.4074 
 465   0.0000     143.549055      3906.1684 

                 SPIN DOWN ORBITALS
  NO   OCC          E(Eh)            E(eV) 
   0   1.0000     -18.773319      -510.8480 
   1   1.0000      -9.983537      -271.6658 
   2   1.0000      -0.980090       -26.6696 
   3   1.0000      -0.577749       -15.7214 
   4   1.0000      -0.447453       -12.1758 
   5   1.0000      -0.404330       -11.0024 
   6   1.0000      -0.371479       -10.1085 
   7   1.0000      -0.230155        -6.2628 
   8   0.0000      -0.098728        -2.6865 
   9   0.0000      -0.016955        -0.4614 
  10   0.0000       0.009956         0.2709 
  11   0.0000       0.011824         0.3217 
  12   0.0000       0.018520         0.5039 
  13   0.0000       0.037032         1.0077 
  14   0.0000       0.037296         1.0149 
  15   0.0000       0.050886         1.3847 
  16   0.0000       0.054582         1.4852 
  17   0.0000       0.057862         1.5745 
  18   0.0000       0.058774         1.5993 
  19   0.0000       0.060748         1.6530 
  20   0.0000       0.072745         1.9795 
  21   0.0000       0.080421         2.1884 
  22   0.0000       0.092929         2.5287 
  23   0.0000       0.108935         2.9643 
  24   0.0000       0.118339         3.2202 
  25   0.0000       0.125203         3.4070 
  26   0.0000       0.127710         3.4752 
  27   0.0000       0.128999         3.5102 
  28   0.0000       0.132406         3.6030 
  29   0.0000       0.133809         3.6411 
  30   0.0000       0.133973         3.6456 
  31   0.0000       0.140175         3.8143 
  32   0.0000       0.151606         4.1254 
  33   0.0000       0.153224         4.1694 
  34   0.0000       0.170657         4.6438 
  35   0.0000       0.183026         4.9804 
  36   0.0000       0.189945         5.1687 
  37   0.0000       0.192416         5.2359 
  38   0.0000       0.205860         5.6017 
  39   0.0000       0.220549         6.0014 
  40   0.0000       0.220736         6.0065 
  41   0.0000       0.234097         6.3701 
  42   0.0000       0.237241         6.4557 
  43   0.0000       0.239866         6.5271 
  44   0.0000       0.248356         6.7581 
  45   0.0000       0.252969         6.8836 
  46   0.0000       0.253147         6.8885 
  47   0.0000       0.256983         6.9929 
  48   0.0000       0.260057         7.0765 
  49   0.0000       0.266308         7.2466 
  50   0.0000       0.273052         7.4301 
  51   0.0000       0.284137         7.7318 
  52   0.0000       0.293359         7.9827 
  53   0.0000       0.294235         8.0065 
  54   0.0000       0.294329         8.0091 
  55   0.0000       0.294397         8.0109 
  56   0.0000       0.299537         8.1508 
  57   0.0000       0.302867         8.2414 
  58   0.0000       0.306066         8.3285 
  59   0.0000       0.321484         8.7480 
  60   0.0000       0.332568         9.0496 
  61   0.0000       0.334033         9.0895 
  62   0.0000       0.363395         9.8885 
  63   0.0000       0.364389         9.9155 
  64   0.0000       0.368795        10.0354 
  65   0.0000       0.369802        10.0628 
  66   0.0000       0.392527        10.6812 
  67   0.0000       0.395257        10.7555 
  68   0.0000       0.401724        10.9315 
  69   0.0000       0.402486        10.9522 
  70   0.0000       0.410833        11.1793 
  71   0.0000       0.417875        11.3709 
  72   0.0000       0.421963        11.4822 
  73   0.0000       0.421984        11.4828 
  74   0.0000       0.437397        11.9022 
  75   0.0000       0.442135        12.0311 
  76   0.0000       0.459131        12.4936 
  77   0.0000       0.460608        12.5338 
  78   0.0000       0.469571        12.7777 
  79   0.0000       0.477642        12.9973 
  80   0.0000       0.485354        13.2071 
  81   0.0000       0.488096        13.2818 
  82   0.0000       0.488467        13.2919 
  83   0.0000       0.499311        13.5869 
  84   0.0000       0.500911        13.6305 
  85   0.0000       0.505697        13.7607 
  86   0.0000       0.512823        13.9546 
  87   0.0000       0.518570        14.1110 
  88   0.0000       0.522729        14.2242 
  89   0.0000       0.527860        14.3638 
  90   0.0000       0.539246        14.6736 
  91   0.0000       0.544715        14.8224 
  92   0.0000       0.550297        14.9743 
  93   0.0000       0.557892        15.1810 
  94   0.0000       0.558422        15.1954 
  95   0.0000       0.578867        15.7518 
  96   0.0000       0.588242        16.0069 
  97   0.0000       0.593689        16.1551 
  98   0.0000       0.599168        16.3042 
  99   0.0000       0.604497        16.4492 
 100   0.0000       0.604940        16.4613 
 101   0.0000       0.610418        16.6103 
 102   0.0000       0.618024        16.8173 
 103   0.0000       0.624420        16.9913 
 104   0.0000       0.637715        17.3531 
 105   0.0000       0.641119        17.4457 
 106   0.0000       0.652059        17.7434 
 107   0.0000       0.653931        17.7944 
 108   0.0000       0.658274        17.9125 
 109   0.0000       0.660575        17.9752 
 110   0.0000       0.663953        18.0671 
 111   0.0000       0.703541        19.1443 
 112   0.0000       0.717144        19.5145 
 113   0.0000       0.720358        19.6019 
 114   0.0000       0.735296        20.0084 
 115   0.0000       0.737619        20.0716 
 116   0.0000       0.755297        20.5527 
 117   0.0000       0.763548        20.7772 
 118   0.0000       0.768126        20.9018 
 119   0.0000       0.769125        20.9290 
 120   0.0000       0.773282        21.0421 
 121   0.0000       0.776858        21.1394 
 122   0.0000       0.784965        21.3600 
 123   0.0000       0.787069        21.4172 
 124   0.0000       0.802472        21.8364 
 125   0.0000       0.810592        22.0573 
 126   0.0000       0.810827        22.0637 
 127   0.0000       0.823886        22.4191 
 128   0.0000       0.826694        22.4955 
 129   0.0000       0.831224        22.6188 
 130   0.0000       0.847450        23.0603 
 131   0.0000       0.848160        23.0796 
 132   0.0000       0.848353        23.0848 
 133   0.0000       0.851779        23.1781 
 134   0.0000       0.861197        23.4344 
 135   0.0000       0.871001        23.7012 
 136   0.0000       0.871845        23.7241 
 137   0.0000       0.880502        23.9597 
 138   0.0000       0.888659        24.1816 
 139   0.0000       0.890643        24.2356 
 140   0.0000       0.916812        24.9477 
 141   0.0000       0.918408        24.9912 
 142   0.0000       0.934267        25.4227 
 143   0.0000       0.957035        26.0423 
 144   0.0000       0.964324        26.2406 
 145   0.0000       0.973448        26.4889 
 146   0.0000       0.978889        26.6369 
 147   0.0000       0.980342        26.6765 
 148   0.0000       0.985890        26.8274 
 149   0.0000       0.992551        27.0087 
 150   0.0000       1.000951        27.2373 
 151   0.0000       1.021940        27.8084 
 152   0.0000       1.030401        28.0386 
 153   0.0000       1.035390        28.1744 
 154   0.0000       1.039327        28.2815 
 155   0.0000       1.073545        29.2126 
 156   0.0000       1.081751        29.4359 
 157   0.0000       1.094224        29.7754 
 158   0.0000       1.113429        30.2979 
 159   0.0000       1.117297        30.4032 
 160   0.0000       1.126506        30.6538 
 161   0.0000       1.129335        30.7308 
 162   0.0000       1.145318        31.1657 
 163   0.0000       1.194011        32.4907 
 164   0.0000       1.201781        32.7021 
 165   0.0000       1.202283        32.7158 
 166   0.0000       1.203634        32.7525 
 167   0.0000       1.230513        33.4840 
 168   0.0000       1.260228        34.2926 
 169   0.0000       1.273729        34.6599 
 170   0.0000       1.293325        35.1932 
 171   0.0000       1.308315        35.6010 
 172   0.0000       1.339019        36.4366 
 173   0.0000       1.351524        36.7768 
 174   0.0000       1.356037        36.8996 
 175   0.0000       1.436753        39.0960 
 176   0.0000       1.461278        39.7634 
 177   0.0000       1.463926        39.8354 
 178   0.0000       1.488649        40.5082 
 179   0.0000       1.544028        42.0151 
 180   0.0000       1.558350        42.4048 
 181   0.0000       1.560800        42.4715 
 182   0.0000       1.562031        42.5050 
 183   0.0000       1.628480        44.3132 
 184   0.0000       1.630133        44.3582 
 185   0.0000       1.662698        45.2443 
 186   0.0000       1.699814        46.2543 
 187   0.0000       1.706154        46.4268 
 188   0.0000       1.742132        47.4058 
 189   0.0000       1.777890        48.3788 
 190   0.0000       1.779335        48.4182 
 191   0.0000       1.829627        49.7867 
 192   0.0000       1.860990        50.6401 
 193   0.0000       1.893314        51.5197 
 194   0.0000       1.900104        51.7045 
 195   0.0000       1.933217        52.6055 
 196   0.0000       1.938125        52.7391 
 197   0.0000       1.982254        53.9399 
 198   0.0000       1.987882        54.0930 
 199   0.0000       2.039318        55.4927 
 200   0.0000       2.046632        55.6917 
 201   0.0000       2.110047        57.4173 
 202   0.0000       2.157591        58.7110 
 203   0.0000       2.216015        60.3008 
 204   0.0000       2.221476        60.4494 
 205   0.0000       2.223365        60.5008 
 206   0.0000       2.223809        60.5129 
 207   0.0000       2.267153        61.6924 
 208   0.0000       2.296781        62.4986 
 209   0.0000       2.314174        62.9719 
 210   0.0000       2.351136        63.9777 
 211   0.0000       2.382723        64.8372 
 212   0.0000       2.451626        66.7121 
 213   0.0000       2.472319        67.2752 
 214   0.0000       2.555993        69.5521 
 215   0.0000       2.563110        69.7458 
 216   0.0000       2.586059        70.3702 
 217   0.0000       2.616215        71.1908 
 218   0.0000       2.719839        74.0106 
 219   0.0000       2.774783        75.5057 
 220   0.0000       2.866827        78.0103 
 221   0.0000       2.976934        81.0065 
 222   0.0000       2.990010        81.3623 
 223   0.0000       3.039251        82.7022 
 224   0.0000       3.198483        87.0352 
 225   0.0000       3.211293        87.3837 
 226   0.0000       3.218281        87.5739 
 227   0.0000       3.331278        90.6487 
 228   0.0000       3.389734        92.2394 
 229   0.0000       3.432492        93.4028 
 230   0.0000       3.457939        94.0953 
 231   0.0000       3.476626        94.6038 
 232   0.0000       3.519794        95.7785 
 233   0.0000       3.540378        96.3386 
 234   0.0000       3.578164        97.3668 
 235   0.0000       3.638829        99.0176 
 236   0.0000       3.678618       100.1003 
 237   0.0000       3.743990       101.8792 
 238   0.0000       3.768066       102.5343 
 239   0.0000       3.810927       103.7006 
 240   0.0000       3.885386       105.7267 
 241   0.0000       3.927919       106.8841 
 242   0.0000       3.933132       107.0260 
 243   0.0000       3.989876       108.5701 
 244   0.0000       4.050885       110.2302 
 245   0.0000       4.107034       111.7581 
 246   0.0000       4.127014       112.3018 
 247   0.0000       4.152833       113.0043 
 248   0.0000       4.235941       115.2658 
 249   0.0000       4.328381       117.7812 
 250   0.0000       4.332866       117.9033 
 251   0.0000       4.335528       117.9757 
 252   0.0000       4.415822       120.1606 
 253   0.0000       4.456366       121.2639 
 254   0.0000       4.480210       121.9127 
 255   0.0000       4.484508       122.0297 
 256   0.0000       4.501768       122.4993 
 257   0.0000       4.541835       123.5896 
 258   0.0000       4.605128       125.3119 
 259   0.0000       4.622134       125.7747 
 260   0.0000       4.643670       126.3607 
 261   0.0000       4.668694       127.0416 
 262   0.0000       4.702499       127.9615 
 263   0.0000       4.725627       128.5908 
 264   0.0000       4.761782       129.5747 
 265   0.0000       4.837349       131.6310 
 266   0.0000       4.899506       133.3223 
 267   0.0000       4.968920       135.2112 
 268   0.0000       5.057160       137.6123 
 269   0.0000       5.067840       137.9029 
 270   0.0000       5.219023       142.0168 
 271   0.0000       5.223872       142.1488 
 272   0.0000       5.234008       142.4246 
 273   0.0000       5.248429       142.8170 
 274   0.0000       5.298538       144.1805 
 275   0.0000       5.367853       146.0667 
 276   0.0000       5.409313       147.1949 
 277   0.0000       5.430634       147.7751 
 278   0.0000       5.444304       148.1471 
 279   0.0000       5.572328       151.6307 
 280   0.0000       5.690708       154.8520 
 281   0.0000       5.827997       158.5878 
 282   0.0000       5.840599       158.9308 
 283   0.0000       5.937306       161.5623 
 284   0.0000       5.955589       162.0598 
 285   0.0000       6.006033       163.4325 
 286   0.0000       6.006942       163.4572 
 287   0.0000       6.127955       166.7501 
 288   0.0000       6.220092       169.2573 
 289   0.0000       6.308973       171.6759 
 290   0.0000       6.397325       174.0801 
 291   0.0000       6.398417       174.1098 
 292   0.0000       6.467322       175.9848 
 293   0.0000       6.477653       176.2659 
 294   0.0000       6.593665       179.4227 
 295   0.0000       6.642862       180.7615 
 296   0.0000       6.650409       180.9668 
 297   0.0000       6.822732       185.6560 
 298   0.0000       6.997576       190.4137 
 299   0.0000       7.202309       195.9848 
 300   0.0000       7.287814       198.3115 
 301   0.0000       7.541266       205.2083 
 302   0.0000       7.634731       207.7516 
 303   0.0000       7.752405       210.9537 
 304   0.0000       7.766429       211.3353 
 305   0.0000       8.044854       218.9116 
 306   0.0000       8.264570       224.8904 
 307   0.0000       8.412989       228.9291 
 308   0.0000       8.548368       232.6129 
 309   0.0000       8.563589       233.0271 
 310   0.0000       8.795713       239.3435 
 311   0.0000       8.852399       240.8860 
 312   0.0000       8.960762       243.8347 
 313   0.0000       8.988738       244.5960 
 314   0.0000       9.003390       244.9947 
 315   0.0000       9.033737       245.8205 
 316   0.0000       9.114096       248.0072 
 317   0.0000       9.195378       250.2189 
 318   0.0000       9.242575       251.5033 
 319   0.0000       9.269069       252.2242 
 320   0.0000       9.452393       257.2127 
 321   0.0000       9.476238       257.8616 
 322   0.0000       9.524502       259.1749 
 323   0.0000       9.866225       268.4736 
 324   0.0000       9.896464       269.2965 
 325   0.0000      10.057613       273.6816 
 326   0.0000      10.259914       279.1864 
 327   0.0000      10.385866       282.6138 
 328   0.0000      10.447976       284.3039 
 329   0.0000      10.453074       284.4426 
 330   0.0000      10.554339       287.1982 
 331   0.0000      10.594633       288.2946 
 332   0.0000      10.624403       289.1047 
 333   0.0000      10.668074       290.2931 
 334   0.0000      10.764526       292.9177 
 335   0.0000      10.915540       297.0269 
 336   0.0000      10.932980       297.5015 
 337   0.0000      10.936370       297.5938 
 338   0.0000      11.105695       302.2013 
 339   0.0000      11.192195       304.5551 
 340   0.0000      11.199613       304.7570 
 341   0.0000      11.333751       308.4071 
 342   0.0000      11.338180       308.5276 
 343   0.0000      11.492361       312.7231 
 344   0.0000      11.579319       315.0893 
 345   0.0000      11.612768       315.9995 
 346   0.0000      11.668370       317.5125 
 347   0.0000      11.703275       318.4623 
 348   0.0000      11.720126       318.9208 
 349   0.0000      11.789495       320.8085 
 350   0.0000      11.829279       321.8911 
 351   0.0000      12.034414       327.4731 
 352   0.0000      12.035649       327.5067 
 353   0.0000      12.063277       328.2585 
 354   0.0000      12.083846       328.8182 
 355   0.0000      12.199921       331.9767 
 356   0.0000      12.200666       331.9970 
 357   0.0000      12.239566       333.0555 
 358   0.0000      12.276437       334.0588 
 359   0.0000      12.326953       335.4335 
 360   0.0000      12.421680       338.0111 
 361   0.0000      12.466745       339.2374 
 362   0.0000      12.490109       339.8732 
 363   0.0000      12.503605       340.2404 
 364   0.0000      12.568076       341.9947 
 365   0.0000      12.630629       343.6969 
 366   0.0000      12.685223       345.1825 
 367   0.0000      12.706026       345.7486 
 368   0.0000      12.726682       346.3106 
 369   0.0000      12.753459       347.0393 
 370   0.0000      12.823641       348.9490 
 371   0.0000      12.856030       349.8304 
 372   0.0000      12.915286       351.4428 
 373   0.0000      13.006210       353.9170 
 374   0.0000      13.014763       354.1497 
 375   0.0000      13.073805       355.7563 
 376   0.0000      13.218276       359.6876 
 377   0.0000      13.327196       362.6514 
 378   0.0000      13.336639       362.9084 
 379   0.0000      13.383103       364.1728 
 380   0.0000      13.632846       370.9686 
 381   0.0000      13.651941       371.4882 
 382   0.0000      13.750532       374.1710 
 383   0.0000      13.788962       375.2167 
 384   0.0000      13.863235       377.2378 
 385   0.0000      13.943703       379.4274 
 386   0.0000      14.091813       383.4577 
 387   0.0000      14.355538       390.6340 
 388   0.0000      14.665589       399.0710 
 389   0.0000      14.891216       405.2106 
 390   0.0000      14.902567       405.5195 
 391   0.0000      14.935800       406.4238 
 392   0.0000      15.278258       415.7425 
 393   0.0000      15.284083       415.9010 
 394   0.0000      15.636827       425.4997 
 395   0.0000      16.002573       435.4521 
 396   0.0000      16.342424       444.7000 
 397   0.0000      16.720608       454.9909 
 398   0.0000      16.724395       455.0939 
 399   0.0000      16.730144       455.2504 
 400   0.0000      16.737445       455.4490 
 401   0.0000      16.910665       460.1626 
 402   0.0000      16.985506       462.1991 
 403   0.0000      17.018959       463.1094 
 404   0.0000      17.086597       464.9499 
 405   0.0000      17.108873       465.5561 
 406   0.0000      17.121963       465.9123 
 407   0.0000      17.162767       467.0226 
 408   0.0000      17.368662       472.6253 
 409   0.0000      17.385757       473.0905 
 410   0.0000      17.747108       482.9234 
 411   0.0000      17.872563       486.3372 
 412   0.0000      18.088263       492.2067 
 413   0.0000      18.158488       494.1176 
 414   0.0000      18.324013       498.6217 
 415   0.0000      18.352991       499.4103 
 416   0.0000      18.398547       500.6499 
 417   0.0000      18.454098       502.1615 
 418   0.0000      18.560735       505.0633 
 419   0.0000      18.754500       510.3359 
 420   0.0000      18.918739       514.8051 
 421   0.0000      18.991210       516.7771 
 422   0.0000      19.102416       519.8032 
 423   0.0000      19.682638       535.5918 
 424   0.0000      19.982576       543.7535 
 425   0.0000      20.126896       547.6807 
 426   0.0000      20.157694       548.5187 
 427   0.0000      20.489461       557.5466 
 428   0.0000      21.007192       571.6348 
 429   0.0000      21.564306       586.7946 
 430   0.0000      22.470829       611.4624 
 431   0.0000      23.069977       627.7660 
 432   0.0000      23.165327       630.3606 
 433   0.0000      23.484746       639.0524 
 434   0.0000      23.519779       640.0057 
 435   0.0000      23.627154       642.9275 
 436   0.0000      23.955751       651.8691 
 437   0.0000      23.985350       652.6746 
 438   0.0000      24.344477       662.4469 
 439   0.0000      25.264318       687.4771 
 440   0.0000      25.617154       697.0782 
 441   0.0000      26.581404       723.3168 
 442   0.0000      30.254239       823.2597 
 443   0.0000      32.022380       871.3733 
 444   0.0000      32.221870       876.8017 
 445   0.0000      32.234805       877.1536 
 446   0.0000      32.776237       891.8868 
 447   0.0000      33.274175       905.4363 
 448   0.0000      34.337031       934.3581 
 449   0.0000      34.475301       938.1206 
 450   0.0000      34.777431       946.3420 
 451   0.0000      40.941459      1114.0737 
 452   0.0000      41.103517      1118.4836 
 453   0.0000      66.615082      1812.6885 
 454   0.0000      66.676520      1814.3604 
 455   0.0000      67.108377      1826.1118 
 456   0.0000      67.405208      1834.1890 
 457   0.0000      68.677508      1868.8100 
 458   0.0000      76.431410      2079.8044 
 459   0.0000      91.039993      2477.3242 
 460   0.0000      91.061923      2477.9209 
 461   0.0000      91.125651      2479.6550 
 462   0.0000      91.337629      2485.4233 
 463   0.0000      92.242836      2510.0552 
 464   0.0000      92.402778      2514.4074 
 465   0.0000     143.549055      3906.1684 

                    ********************************
                    * MULLIKEN POPULATION ANALYSIS *
                    ********************************

--------------------------------------------
MULLIKEN ATOMIC CHARGES AND SPIN POPULATIONS
--------------------------------------------
   0 O :   -0.214594    0.000000
   1 C :    0.313857   -0.000000
   2 H :   -0.049630   -0.000000
   3 H :   -0.049633    0.000000
Sum of atomic charges         :   -0.0000000
Sum of atomic spin populations:    0.0000000

-----------------------------------------------------
MULLIKEN REDUCED ORBITAL CHARGES AND SPIN POPULATIONS
-----------------------------------------------------
CHARGE
  0 O s       :     3.803162  s :     3.803162
      pz      :     1.310596  p :     4.349495
      px      :     1.263834
      py      :     1.775065
      dz2     :     0.010783  d :     0.050411
      dxz     :     0.019458
      dyz     :     0.020174
      dx2y2   :    -0.000004
      dxy     :    -0.000000
      f0      :     0.002769  f :     0.010217
      f+1     :     0.002225
      f-1     :     0.005467
      f+2     :    -0.000265
      f-2     :     0.000000
      f+3     :    -0.000011
      f-3     :     0.000031
      g0      :     0.000527  g :     0.001244
      g+1     :     0.000322
      g-1     :     0.000606
      g+2     :    -0.000127
      g-2     :    -0.000000
      g+3     :    -0.000016
      g-3     :    -0.000066
      g+4     :    -0.000001
      g-4     :    -0.000000
      h0      :     0.000051  h :     0.000065
      h+1     :     0.000044
      h-1     :     0.000056
      h+2     :    -0.000031
      h-2     :     0.000000
      h+3     :    -0.000004
      h-3     :    -0.000051
      h+4     :    -0.000001
      h-4     :     0.000000
      h+5     :    -0.000000
      h-5     :    -0.000000
  1 C s       :     3.130910  s :     3.130910
      pz      :     0.766736  p :     2.331702
      px      :     0.665522
      py      :     0.899443
      dz2     :     0.027435  d :     0.203721
      dxz     :     0.025251
      dyz     :     0.149718
      dx2y2   :     0.001317
      dxy     :    -0.000000
      f0      :     0.003270  f :     0.017422
      f+1     :     0.003286
      f-1     :     0.010071
      f+2     :     0.000766
      f-2     :     0.000000
      f+3     :    -0.000045
      f-3     :     0.000074
      g0      :     0.000839  g :     0.002042
      g+1     :     0.000637
      g-1     :     0.000399
      g+2     :     0.000014
      g-2     :     0.000000
      g+3     :    -0.000007
      g-3     :     0.000153
      g+4     :     0.000007
      g-4     :     0.000000
      h0      :     0.000079  h :     0.000348
      h+1     :     0.000065
      h-1     :     0.000202
      h+2     :    -0.000000
      h-2     :     0.000000
      h+3     :    -0.000000
      h-3     :     0.000001
      h+4     :     0.000002
      h-4     :     0.000000
      h+5     :    -0.000000
      h-5     :    -0.000000
  2 H s       :     0.998067  s :     0.998067
      pz      :     0.021643  p :     0.054174
      px      :     0.010799
      py      :     0.021733
      dz2     :    -0.000832  d :    -0.002377
      dxz     :    -0.000580
      dyz     :     0.000580
      dx2y2   :    -0.000657
      dxy     :    -0.000887
      f0      :    -0.000499  f :    -0.000080
      f+1     :     0.000542
      f-1     :    -0.000487
      f+2     :     0.000890
      f-2     :    -0.000135
      f+3     :    -0.000140
      f-3     :    -0.000251
      g0      :    -0.000273  g :    -0.000154
      g+1     :     0.000097
      g-1     :     0.000013
      g+2     :    -0.000051
      g-2     :     0.000009
      g+3     :     0.000016
      g-3     :     0.000022
      g+4     :     0.000013
      g-4     :    -0.000002
  3 H s       :     0.998068  s :     0.998068
      pz      :     0.021645  p :     0.054175
      px      :     0.010799
      py      :     0.021732
      dz2     :    -0.000832  d :    -0.002377
      dxz     :    -0.000580
      dyz     :     0.000580
      dx2y2   :    -0.000657
      dxy     :    -0.000887
      f0      :    -0.000499  f :    -0.000079
      f+1     :     0.000542
      f-1     :    -0.000487
      f+2     :     0.000890
      f-2     :    -0.000135
      f+3     :    -0.000140
      f-3     :    -0.000251
      g0      :    -0.000273  g :    -0.000154
      g+1     :     0.000097
      g-1     :     0.000013
      g+2     :    -0.000051
      g-2     :     0.000009
      g+3     :     0.000016
      g-3     :     0.000022
      g+4     :     0.000013
      g-4     :    -0.000002

SPIN
  0 O s       :     0.000000  s :     0.000000
      pz      :     0.000000  p :     0.000000
      px      :    -0.000000
      py      :    -0.000000
      dz2     :    -0.000000  d :    -0.000000
      dxz     :    -0.000000
      dyz     :    -0.000000
      dx2y2   :    -0.000000
      dxy     :    -0.000000
      f0      :     0.000000  f :    -0.000000
      f+1     :    -0.000000
      f-1     :    -0.000000
      f+2     :    -0.000000
      f-2     :     0.000000
      f+3     :     0.000000
      f-3     :     0.000000
      g0      :     0.000000  g :     0.000000
      g+1     :     0.000000
      g-1     :    -0.000000
      g+2     :     0.000000
      g-2     :    -0.000000
      g+3     :     0.000000
      g-3     :    -0.000000
      g+4     :    -0.000000
      g-4     :     0.000000
      h0      :     0.000000  h :     0.000000
      h+1     :     0.000000
      h-1     :    -0.000000
      h+2     :     0.000000
      h-2     :    -0.000000
      h+3     :     0.000000
      h-3     :     0.000000
      h+4     :    -0.000000
      h-4     :    -0.000000
      h+5     :    -0.000000
      h-5     :     0.000000
  1 C s       :     0.000000  s :     0.000000
      pz      :    -0.000000  p :    -0.000000
      px      :    -0.000000
      py      :    -0.000000
      dz2     :    -0.000000  d :    -0.000000
      dxz     :     0.000000
      dyz     :     0.000000
      dx2y2   :     0.000000
      dxy     :     0.000000
      f0      :     0.000000  f :     0.000000
      f+1     :     0.000000
      f-1     :     0.000000
      f+2     :     0.000000
      f-2     :     0.000000
      f+3     :    -0.000000
      f-3     :     0.000000
      g0      :    -0.000000  g :    -0.000000
      g+1     :     0.000000
      g-1     :    -0.000000
      g+2     :    -0.000000
      g-2     :     0.000000
      g+3     :     0.000000
      g-3     :     0.000000
      g+4     :    -0.000000
      g-4     :    -0.000000
      h0      :    -0.000000  h :    -0.000000
      h+1     :     0.000000
      h-1     :    -0.000000
      h+2     :    -0.000000
      h-2     :     0.000000
      h+3     :    -0.000000
      h-3     :     0.000000
      h+4     :    -0.000000
      h-4     :    -0.000000
      h+5     :    -0.000000
      h-5     :    -0.000000
  2 H s       :    -0.000000  s :    -0.000000
      pz      :    -0.000000  p :    -0.000000
      px      :    -0.000000
      py      :    -0.000000
      dz2     :     0.000000  d :    -0.000000
      dxz     :    -0.000000
      dyz     :    -0.000000
      dx2y2   :    -0.000000
      dxy     :    -0.000000
      f0      :     0.000000  f :     0.000000
      f+1     :    -0.000000
      f-1     :     0.000000
      f+2     :    -0.000000
      f-2     :    -0.000000
      f+3     :    -0.000000
      f-3     :    -0.000000
      g0      :     0.000000  g :     0.000000
      g+1     :     0.000000
      g-1     :     0.000000
      g+2     :     0.000000
      g-2     :    -0.000000
      g+3     :    -0.000000
      g-3     :    -0.000000
      g+4     :    -0.000000
      g-4     :    -0.000000
  3 H s       :     0.000000  s :     0.000000
      pz      :     0.000000  p :     0.000000
      px      :     0.000000
      py      :     0.000000
      dz2     :     0.000000  d :     0.000000
      dxz     :     0.000000
      dyz     :     0.000000
      dx2y2   :     0.000000
      dxy     :     0.000000
      f0      :    -0.000000  f :     0.000000
      f+1     :     0.000000
      f-1     :     0.000000
      f+2     :    -0.000000
      f-2     :     0.000000
      f+3     :     0.000000
      f-3     :     0.000000
      g0      :    -0.000000  g :     0.000000
      g+1     :    -0.000000
      g-1     :     0.000000
      g+2     :     0.000000
      g-2     :     0.000000
      g+3     :     0.000000
      g-3     :    -0.000000
      g+4     :     0.000000
      g-4     :     0.000000


                     *******************************
                     * LOEWDIN POPULATION ANALYSIS *
                     *******************************

-------------------------------------------
LOEWDIN ATOMIC CHARGES AND SPIN POPULATIONS
-------------------------------------------
   0 O :    0.492811    0.000000
   1 C :    0.342768   -0.000000
   2 H :   -0.417790   -0.000000
   3 H :   -0.417790    0.000000

----------------------------------------------------
LOEWDIN REDUCED ORBITAL CHARGES AND SPIN POPULATIONS
----------------------------------------------------
CHARGE
  0 O s       :     3.135724  s :     3.135724
      pz      :     1.436458  p :     3.893779
      px      :     1.027716
      py      :     1.429605
      dz2     :     0.106772  d :     0.277680
      dxz     :     0.035209
      dyz     :     0.135150
      dx2y2   :     0.000549
      dxy     :     0.000000
      f0      :     0.032980  f :     0.132302
      f+1     :     0.016316
      f-1     :     0.081200
      f+2     :     0.001661
      f-2     :     0.000000
      f+3     :     0.000024
      f-3     :     0.000121
      g0      :     0.006777  g :     0.050235
      g+1     :     0.004061
      g-1     :     0.036103
      g+2     :     0.002577
      g-2     :    -0.000000
      g+3     :     0.000002
      g-3     :     0.000666
      g+4     :     0.000048
      g-4     :     0.000000
      h0      :     0.001090  h :     0.017469
      h+1     :     0.000911
      h-1     :     0.011737
      h+2     :     0.002280
      h-2     :     0.000000
      h+3     :     0.000000
      h-3     :     0.001402
      h+4     :     0.000041
      h-4     :     0.000000
      h+5     :     0.000003
      h-5     :     0.000004
  1 C s       :     2.564253  s :     2.564253
      pz      :     0.858546  p :     2.150786
      px      :     0.480273
      py      :     0.811967
      dz2     :     0.215692  d :     0.683138
      dxz     :     0.087706
      dyz     :     0.363983
      dx2y2   :     0.015756
      dxy     :    -0.000000
      f0      :     0.067176  f :     0.205856
      f+1     :     0.044633
      f-1     :     0.083534
      f+2     :     0.005428
      f-2     :     0.000000
      f+3     :     0.000529
      f-3     :     0.004556
      g0      :     0.011188  g :     0.045797
      g+1     :     0.012340
      g-1     :     0.020769
      g+2     :     0.000122
      g-2     :     0.000000
      g+3     :     0.000024
      g-3     :     0.001124
      g+4     :     0.000230
      g-4     :     0.000000
      h0      :     0.002644  h :     0.007402
      h+1     :     0.001869
      h-1     :     0.002194
      h+2     :     0.000348
      h-2     :     0.000000
      h+3     :     0.000144
      h-3     :     0.000034
      h+4     :     0.000048
      h-4     :     0.000000
      h+5     :     0.000019
      h-5     :     0.000103
  2 H s       :     0.691298  s :     0.691298
      pz      :     0.086530  p :     0.285495
      px      :     0.046316
      py      :     0.152650
      dz2     :     0.062731  d :     0.228506
      dxz     :     0.025148
      dyz     :     0.059910
      dx2y2   :     0.051249
      dxy     :     0.029468
      f0      :     0.026786  f :     0.129406
      f+1     :     0.006188
      f-1     :     0.045363
      f+2     :     0.016962
      f-2     :     0.015290
      f+3     :     0.005755
      f-3     :     0.013064
      g0      :     0.018983  g :     0.083084
      g+1     :     0.002853
      g-1     :     0.021492
      g+2     :     0.018483
      g-2     :     0.007411
      g+3     :     0.004850
      g-3     :     0.004489
      g+4     :     0.003691
      g-4     :     0.000832
  3 H s       :     0.691298  s :     0.691298
      pz      :     0.086530  p :     0.285495
      px      :     0.046316
      py      :     0.152650
      dz2     :     0.062731  d :     0.228506
      dxz     :     0.025148
      dyz     :     0.059910
      dx2y2   :     0.051249
      dxy     :     0.029468
      f0      :     0.026786  f :     0.129406
      f+1     :     0.006188
      f-1     :     0.045363
      f+2     :     0.016962
      f-2     :     0.015290
      f+3     :     0.005755
      f-3     :     0.013064
      g0      :     0.018983  g :     0.083084
      g+1     :     0.002853
      g-1     :     0.021492
      g+2     :     0.018483
      g-2     :     0.007411
      g+3     :     0.004850
      g-3     :     0.004489
      g+4     :     0.003691
      g-4     :     0.000832

SPIN
  0 O s       :     0.000000  s :     0.000000
      pz      :     0.000000  p :     0.000000
      px      :    -0.000000
      py      :     0.000000
      dz2     :    -0.000000  d :     0.000000
      dxz     :     0.000000
      dyz     :     0.000000
      dx2y2   :    -0.000000
      dxy     :    -0.000000
      f0      :    -0.000000  f :    -0.000000
      f+1     :    -0.000000
      f-1     :    -0.000000
      f+2     :     0.000000
      f-2     :    -0.000000
      f+3     :     0.000000
      f-3     :     0.000000
      g0      :    -0.000000  g :    -0.000000
      g+1     :     0.000000
      g-1     :     0.000000
      g+2     :    -0.000000
      g-2     :    -0.000000
      g+3     :     0.000000
      g-3     :    -0.000000
      g+4     :    -0.000000
      g-4     :     0.000000
      h0      :     0.000000  h :    -0.000000
      h+1     :     0.000000
      h-1     :    -0.000000
      h+2     :    -0.000000
      h-2     :    -0.000000
      h+3     :    -0.000000
      h-3     :     0.000000
      h+4     :    -0.000000
      h-4     :     0.000000
      h+5     :    -0.000000
      h-5     :     0.000000
  1 C s       :    -0.000000  s :    -0.000000
      pz      :    -0.000000  p :    -0.000000
      px      :     0.000000
      py      :     0.000000
      dz2     :     0.000000  d :    -0.000000
      dxz     :     0.000000
      dyz     :    -0.000000
      dx2y2   :    -0.000000
      dxy     :    -0.000000
      f0      :     0.000000  f :     0.000000
      f+1     :    -0.000000
      f-1     :     0.000000
      f+2     :     0.000000
      f-2     :     0.000000
      f+3     :     0.000000
      f-3     :    -0.000000
      g0      :     0.000000  g :     0.000000
      g+1     :    -0.000000
      g-1     :     0.000000
      g+2     :    -0.000000
      g-2     :    -0.000000
      g+3     :    -0.000000
      g-3     :    -0.000000
      g+4     :    -0.000000
      g-4     :     0.000000
      h0      :    -0.000000  h :    -0.000000
      h+1     :    -0.000000
      h-1     :    -0.000000
      h+2     :    -0.000000
      h-2     :    -0.000000
      h+3     :    -0.000000
      h-3     :     0.000000
      h+4     :     0.000000
      h-4     :     0.000000
      h+5     :    -0.000000
      h-5     :    -0.000000
  2 H s       :    -0.000000  s :    -0.000000
      pz      :     0.000000  p :     0.000000
      px      :    -0.000000
      py      :     0.000000
      dz2     :     0.000000  d :     0.000000
      dxz     :     0.000000
      dyz     :     0.000000
      dx2y2   :     0.000000
      dxy     :     0.000000
      f0      :    -0.000000  f :     0.000000
      f+1     :    -0.000000
      f-1     :     0.000000
      f+2     :    -0.000000
      f-2     :     0.000000
      f+3     :     0.000000
      f-3     :     0.000000
      g0      :    -0.000000  g :     0.000000
      g+1     :    -0.000000
      g-1     :     0.000000
      g+2     :     0.000000
      g-2     :     0.000000
      g+3     :     0.000000
      g-3     :     0.000000
      g+4     :    -0.000000
      g-4     :    -0.000000
  3 H s       :     0.000000  s :     0.000000
      pz      :    -0.000000  p :     0.000000
      px      :     0.000000
      py      :     0.000000
      dz2     :    -0.000000  d :     0.000000
      dxz     :     0.000000
      dyz     :    -0.000000
      dx2y2   :     0.000000
      dxy     :     0.000000
      f0      :    -0.000000  f :    -0.000000
      f+1     :     0.000000
      f-1     :    -0.000000
      f+2     :     0.000000
      f-2     :     0.000000
      f+3     :    -0.000000
      f-3     :    -0.000000
      g0      :    -0.000000  g :    -0.000000
      g+1     :    -0.000000
      g-1     :    -0.000000
      g+2     :     0.000000
      g-2     :    -0.000000
      g+3     :     0.000000
      g-3     :     0.000000
      g+4     :    -0.000000
      g-4     :    -0.000000


                      *****************************
                      * MAYER POPULATION ANALYSIS *
                      *****************************

  NA   - Mulliken gross atomic population
  ZA   - Total nuclear charge
  QA   - Mulliken gross atomic charge
  VA   - Mayer's total valence
  BVA  - Mayer's bonded valence
  FA   - Mayer's free valence

  ATOM       NA         ZA         QA         VA         BVA        FA
  0 O      8.2146     8.0000    -0.2146     2.0377     2.0377     0.0000
  1 C      5.6861     6.0000     0.3139     4.0463     4.0463    -0.0000
  2 H      1.0496     1.0000    -0.0496     1.1304     1.1304    -0.0000
  3 H      1.0496     1.0000    -0.0496     1.1304     1.1304    -0.0000

  Mayer bond orders larger than 0.1
B(  0-O ,  1-C ) :   1.9752 B(  1-C ,  2-H ) :   1.0355 B(  1-C ,  3-H ) :   1.0355 


-------
TIMINGS
-------

Total SCF time: 0 days 0 hours 21 min 29 sec 

Total time                  ....    1289.599 sec
Sum of individual times     ....    1288.605 sec  ( 99.9%)

Fock matrix formation       ....    1283.856 sec  ( 99.6%)
  XC integration            ....      22.525 sec  (  1.8% of F)
    Basis function eval.    ....       1.284 sec  (  5.7% of XC)
    Density eval.           ....       5.424 sec  ( 24.1% of XC)
    XC-Functional eval.     ....       0.127 sec  (  0.6% of XC)
    XC-Potential eval.      ....      15.064 sec  ( 66.9% of XC)
Diagonalization             ....       2.014 sec  (  0.2%)
Density matrix formation    ....       0.031 sec  (  0.0%)
Population analysis         ....       0.178 sec  (  0.0%)
Initial guess               ....       1.082 sec  (  0.1%)
Orbital Transformation      ....       0.000 sec  (  0.0%)
Orbital Orthonormalization  ....       0.000 sec  (  0.0%)
DIIS solution               ....       1.036 sec  (  0.1%)
Grid generation             ....       0.407 sec  (  0.0%)

-------------------------   --------------------
FINAL SINGLE POINT ENERGY      -114.429244967609
-------------------------   --------------------


                            ***************************************
                            *     ORCA property calculations      *
                            ***************************************

                                    ---------------------
                                    Active property flags
                                    ---------------------
   (+) Dipole Moment
   (+) Polarizability


------------------------------------------------------------------------------
                       ORCA ELECTRIC PROPERTIES CALCULATION
------------------------------------------------------------------------------

Dipole Moment Calculation                       ... on
Quadrupole Moment Calculation                   ... off
Polarizability Calculation                      ... Analytic (CP-SCF)
GBWName                                         ... hcho_pbe.gbw
Electron density file                           ... hcho_pbe.scfp.tmp
The origin for moment calculation is the CENTER OF MASS  = ( 0.000000,  0.000000  1.138782)

-------------
DIPOLE MOMENT
-------------
                                X             Y             Z
Electronic contribution:     -0.00000      -0.00000       1.35013
Nuclear contribution   :      0.00000       0.00000      -2.22436
                        -----------------------------------------
Total Dipole Moment    :     -0.00000      -0.00000      -0.87423
                        -----------------------------------------
Magnitude (a.u.)       :      0.87423
Magnitude (Debye)      :      2.22210



--------------------
Rotational spectrum 
--------------------
 
Rotational constants in cm-1:     9.405353     1.294438     1.137839 
Rotational constants in MHz : 281965.390539 38806.263246 34111.565166 

 Dipole components along the rotational axes: 
x,y,z [a.u.] :    -0.874225    -0.000000    -0.000000 
x,y,z [Debye]:    -2.222104    -0.000000    -0.000000 

 
Transforming and storing MO dipole integrals   ... done

                ... starting polarizability calculation

Opening the Dipole integral file               ... (hcho_pbe.dmo.tmp) done
Reading Dipole-MO integrals                    ... done
Solving CP-SCF equations                       ... 

           ************************************************************
           *        Program running with 4 parallel MPI-processes     *
           *              working on a common directory               *
           ************************************************************

------------------------------------------------------------------------------
                           ORCA CP-SCF CALCULATION
------------------------------------------------------------------------------

Input orbitals are from        ... hcho_pbe.gbw
Input Perturbation             ... hcho_pbe.cpv.tmp
Wavefunction output            ... hcho_pbe.cpu.tmp
Perturbation mode              ... Real perturbation (singlet)
Solver                         ... POPLE
Max. number of iterations      ... 200
Convergence tolerance          ... 1.000e-06
Integral handling              ... Direct
Number of perturbations        ... 3
Number of operators            ... 2
Orbital ranges used for CP-SCF:
 Operator 0:  Orbitals   0...  7  to   8...465
 Operator 1:  Orbitals   0...  7  to   8...465
DFT calculation                         ... on
Exchange functional (SCF)               ... PBE
Exchange functional (CP-SCF)            ... PBE
   PBE kappa parameter  XKappa (SCF)    ...  0.804000
   PBE kappa parameter  XKappa (CP-SCF) ...  0.804000
   PBE mue parameter   XMuePBE (SCF)    ...  0.219520
   PBE mue parameter   XMuePBE (CP-SCF) ...  0.219520
Correlation functional (SCF)            ... PBE
Correlation functional (CP-SCF)         ... PBE
   PBE beta parameter CBetaPBE (SCF)    ...  0.066725
   PBE beta parameter CBetaPBE (CP-SCF) ...  0.066725
 LDA part of GGA corr.  LDAOpt (SCF)    ... PW91-LDA
 LDA part of GGA corr.  LDAOpt (CP-SCF) ... PW91-LDA
Variables per vector in CP-SCF ... 7328
Number of vectors sought       ... 3
Recalculating density on grid  ... done
Calculating the xc-kernel      ... done
     CP-SCF ITERATION   0: 
     CP-SCF ITERATION   1:      0.201466945857
     CP-SCF ITERATION   2:      0.018139262215
     CP-SCF ITERATION   3:      0.000250910200
     CP-SCF ITERATION   4:      0.000001306935
     CP-SCF ITERATION   5:      0.000000184843
done
Reading CP-SCF coefficients                    ... done
Doing the polarizability tensor   ... done
Cleaning up                                    ... done

-------------------------
THE POLARIZABILITY TENSOR
-------------------------

The raw cartesian tensor (atomic units):
   13.62194      0.00000      0.00000  
    0.00000     19.63829     -0.00000  
    0.00000     -0.00000     23.65228  
diagonalized tensor: 
   13.62194     19.63829     23.65228  

    1.00000      0.00000      0.00000  
   -0.00000      1.00000     -0.00000  
   -0.00000      0.00000      1.00000  

Isotropic polarizability :  18.97084


Timings for individual modules:

Sum of individual times         ...     2321.949 sec (=  38.699 min)
GTO integral calculation        ...        1.959 sec (=   0.033 min)   0.1 %
SCF iterations                  ...     1289.947 sec (=  21.499 min)  55.6 %
Solution of CP-SCF eqns.        ...     1030.044 sec (=  17.167 min)  44.4 %
                             ****ORCA TERMINATED NORMALLY****
TOTAL RUN TIME: 0 days 0 hours 38 minutes 42 seconds 895 msec
