
                                 *****************
                                 * O   R   C   A *
                                 *****************

           --- An Ab Initio, DFT and Semiempirical electronic structure package ---

                  #######################################################
                  #                        -***-                        #
                  #          Department of theory and spectroscopy      #
                  #               Directorship: Frank Neese             #
                  #        Max Planck Institute fuer Kohlenforschung    #
                  #                Kaiser Wilhelm Platz 1               #
                  #                 D-45470 Muelheim/Ruhr               #
                  #                      Germany                        #
                  #                                                     #
                  #                  All rights reserved                #
                  #                        -***-                        #
                  #######################################################


                         Program Version 4.1.2  - RELEASE  -


 With contributions from (in alphabetic order):
   Daniel Aravena         : Magnetic Properties
   Michael Atanasov       : Ab Initio Ligand Field Theory
   Alexander A. Auer      : GIAO ZORA
   Ute Becker             : Parallelization
   Giovanni Bistoni       : ED, Open-shell LED
   Martin Brehm           : Molecular dynamics
   Dmytro Bykov           : SCF Hessian
   Vijay G. Chilkuri      : MRCI spin determinant printing
   Dipayan Datta          : RHF DLPNO-CCSD density
   Achintya Kumar Dutta   : EOM-CC, STEOM-CC
   Dmitry Ganyushin       : Spin-Orbit,Spin-Spin,Magnetic field MRCI
   Miquel Garcia          : C-PCM Hessian
   Yang Guo               : DLPNO-NEVPT2, CIM, IAO-localization
   Andreas Hansen         : Spin unrestricted coupled pair/coupled cluster methods
   Benjamin Helmich-Paris : CASSCF linear response (MC-RPA)
   Lee Huntington         : MR-EOM, pCC
   Robert Izsak           : Overlap fitted RIJCOSX, COSX-SCS-MP3, EOM
   Christian Kollmar      : KDIIS, OOCD, Brueckner-CCSD(T), CCSD density
   Simone Kossmann        : Meta GGA functionals, TD-DFT gradient, OOMP2, MP2 Hessian
   Martin Krupicka        : AUTO-CI
   Lucas Lang             : DCDCAS
   Dagmar Lenk            : GEPOL surface, SMD
   Dimitrios Liakos       : Extrapolation schemes; parallel MDCI
   Dimitrios Manganas     : ROCIS; embedding schemes
   Dimitrios Pantazis     : SARC Basis sets
   Taras Petrenko         : DFT Hessian,TD-DFT gradient, ASA, ECA, R-Raman, ABS, FL, XAS/XES, NRVS
   Peter Pinski           : DLPNO-MP2, DLPNO-MP2 Gradient
   Christoph Reimann      : Effective Core Potentials
   Marius Retegan         : Local ZFS, SOC
   Christoph Riplinger    : Optimizer, TS searches, QM/MM, DLPNO-CCSD(T), (RO)-DLPNO pert. Triples
   Tobias Risthaus        : Range-separated hybrids, TD-DFT gradient, RPA, STAB
   Michael Roemelt        : Restricted open shell CIS
   Masaaki Saitow         : Open-shell DLPNO
   Barbara Sandhoefer     : DKH picture change effects
   Avijit Sen             : IP-ROCIS
   Kantharuban Sivalingam : CASSCF convergence, NEVPT2, FIC-MRCI
   Bernardo de Souza      : ESD, SOC TD-DFT
   Georgi Stoychev        : AutoAux, RI-MP2 NMR
   Willem Van den Heuvel  : Paramagnetic NMR
   Boris Wezisla          : Elementary symmetry handling
   Frank Wennmohs         : Technical directorship


 We gratefully acknowledge several colleagues who have allowed us to
 interface, adapt or use parts of their codes:
   Stefan Grimme, W. Hujo, H. Kruse,             : VdW corrections, initial TS optimization,
                  C. Bannwarth                     DFT functionals, gCP, sTDA/sTD-DF
   Ed Valeev                                     : LibInt (2-el integral package), F12 methods
   Garnet Chan, S. Sharma, J. Yang, R. Olivares  : DMRG
   Ulf Ekstrom                                   : XCFun DFT Library
   Mihaly Kallay                                 : mrcc  (arbitrary order and MRCC methods)
   Andreas Klamt, Michael Diedenhofen            : otool_cosmo (COSMO solvation model)
   Jiri Pittner, Ondrej Demel                    : Mk-CCSD
   Frank Weinhold                                : gennbo (NPA and NBO analysis)
   Christopher J. Cramer and Donald G. Truhlar   : smd solvation model
   Lars Goerigk                                  : TD-DFT with DH, B97 family of functionals
   V. Asgeirsson, H. Jonsson                     : NEB implementation
   FAccTs GmbH                                   : IRC, NEB, NEB-TS, Multilevel


 Your calculation uses the libint2 library for the computation of 2-el integrals
 For citations please refer to: http://libint.valeyev.net

 This ORCA versions uses:
   CBLAS   interface :  Fast vector & matrix operations
   LAPACKE interface :  Fast linear algebra routines
   SCALAPACK package :  Parallel linear algebra routines


----- Orbital basis set information -----
Your calculation utilizes the basis: aug-pc-4
   H, C-F              : F. Jensen, J. Chem. Phys. 115, 9113 (2001).
                         F. Jensen, J. Chem. Phys. 116, 7372 (2002).
                         F. Jensen, J. Chem. Phys. 117, 9234 (2002).
   Si-Cl               : F. Jensen, T. Helgaker, J. Chem. Phys. 121, 3463 (2004).
   He-B, Ne-Mg, Al, Ar : F. Jensen, J. Phys. Chem. A 111, 11198 (2007).
   K, Ca, Ga-Kr        : F. Jensen, J. Chem. Phys. 136, 094110 (2012).
   Sc-Zn               : F. Jensen, J. Chem. Phys. 138, 014107 (2013).

================================================================================
                                        WARNINGS
                       Please study these warnings very carefully!
================================================================================


INFO   : the flag for use of LIBINT has been found!

================================================================================
                                       INPUT FILE
================================================================================
NAME = hcl_pbe.inp
|  1> !uks pbe nori aug-pc-4 grid5 nofinalgrid verytightscf
|  2> 
|  3> %maxcore 1500
|  4> 
|  5> %pal nprocs 4 end
|  6> 
|  7> %scf
|  8> 	maxiter 200
|  9> end
| 10> %elprop
| 11> 	dipole true
| 12> 	 polar 1
| 13> 	 maxiter 200
| 14> end
| 15> 
| 16> * xyz 0 1
| 17> Cl 0.0000 0.0000 0.0000
| 18> H 0.0000 0.0000 1.2746
| 19> *
| 20> 
| 21>                          ****END OF INPUT****
================================================================================

                       ****************************
                       * Single Point Calculation *
                       ****************************

---------------------------------
CARTESIAN COORDINATES (ANGSTROEM)
---------------------------------
  Cl     0.000000    0.000000    0.000000
  H      0.000000    0.000000    1.274600

----------------------------
CARTESIAN COORDINATES (A.U.)
----------------------------
  NO LB      ZA    FRAG     MASS         X           Y           Z
   0 Cl   17.0000    0    35.453    0.000000    0.000000    0.000000
   1 H     1.0000    0     1.008    0.000000    0.000000    2.408645

--------------------------------
INTERNAL COORDINATES (ANGSTROEM)
--------------------------------
 Cl     0   0   0     0.000000000000     0.00000000     0.00000000
 H      1   0   0     1.274600000000     0.00000000     0.00000000

---------------------------
INTERNAL COORDINATES (A.U.)
---------------------------
 Cl     0   0   0     0.000000000000     0.00000000     0.00000000
 H      1   0   0     2.408644930296     0.00000000     0.00000000

---------------------
BASIS SET INFORMATION
---------------------
There are 2 groups of distinct atoms

 Group   1 Type Cl  : 44s27p7d4f3g2h contracted to 8s7p7d4f3g2h pattern {15121211111/111111111/1111111/1111/111/11}
 Group   2 Type H   : 12s7p4d3f2g contracted to 8s7p4d3f2g pattern {51111111/1111111/1111/111/11}

Atom   0Cl   basis set group =>   1
Atom   1H    basis set group =>   2


           ************************************************************
           *        Program running with 4 parallel MPI-processes     *
           *              working on a common directory               *
           ************************************************************
------------------------------------------------------------------------------
                           ORCA GTO INTEGRAL CALCULATION
------------------------------------------------------------------------------

                         BASIS SET STATISTICS AND STARTUP INFO

 # of primitive gaussian shells          ...  115
 # of primitive gaussian functions       ...  329
 # of contracted shells                  ...   55
 # of contracted basis functions         ...  229
 Highest angular momentum                ...    5
 Maximum contraction depth               ...   15
 Integral package used                   ... LIBINT
 Integral threshhold            Thresh   ...  1.000e-12
 Primitive cut-off              TCut     ...  1.000e-14


------------------------------ INTEGRAL EVALUATION ----------------------------


 * One electron integrals 
 Pre-screening matrix                    ... done
 Shell pair data                         ... done (   0.001 sec)



           ************************************************************
           *        Program running with 4 parallel MPI-processes     *
           *              working on a common directory               *
           ************************************************************
-------------------------------------------------------------------------------
                                 ORCA SCF
-------------------------------------------------------------------------------

------------
SCF SETTINGS
------------
Hamiltonian:
 Density Functional     Method          .... DFT(GTOs)
 Exchange Functional    Exchange        .... PBE
   PBE kappa parameter   XKappa         ....  0.804000
   PBE mue parameter    XMuePBE         ....  0.219520
 Correlation Functional Correlation     .... PBE
   PBE beta parameter  CBetaPBE         ....  0.066725
 LDA part of GGA corr.  LDAOpt          .... PW91-LDA
 Gradients option       PostSCFGGA      .... off
   Density functional embedding theory  .... OFF
   NL short-range parameter             ....  6.400000


General Settings:
 Integral files         IntName         .... hcl_pbe
 Hartree-Fock type      HFTyp           .... UHF
 Total Charge           Charge          ....    0
 Multiplicity           Mult            ....    1
 Number of Electrons    NEL             ....   18
 Basis Dimension        Dim             ....  229
 Nuclear Repulsion      ENuc            ....      7.0579103571 Eh

Convergence Acceleration:
 DIIS                   CNVDIIS         .... on
   Start iteration      DIISMaxIt       ....    12
   Startup error        DIISStart       ....  0.200000
   # of expansion vecs  DIISMaxEq       ....     5
   Bias factor          DIISBfac        ....   1.050
   Max. coefficient     DIISMaxC        ....  10.000
 Newton-Raphson         CNVNR           .... off
 SOSCF                  CNVSOSCF        .... off
 Level Shifting         CNVShift        .... on
   Level shift para.    LevelShift      ....    0.2500
   Turn off err/grad.   ShiftErr        ....    0.0010
 Zerner damping         CNVZerner       .... off
 Static damping         CNVDamp         .... on
   Fraction old density DampFac         ....    0.7000
   Max. Damping (<1)    DampMax         ....    0.9800
   Min. Damping (>=0)   DampMin         ....    0.0000
   Turn off err/grad.   DampErr         ....    0.1000
 Fernandez-Rico         CNVRico         .... off

SCF Procedure:
 Maximum # iterations   MaxIter         ....   200
 SCF integral mode      SCFMode         .... Direct
   Integral package                     .... LIBINT
 Reset frequency        DirectResetFreq ....    20
 Integral Threshold     Thresh          ....  1.000e-12 Eh
 Primitive CutOff       TCut            ....  1.000e-14 Eh

Convergence Tolerance:
 Convergence Check Mode ConvCheckMode   .... Total+1el-Energy
 Convergence forced     ConvForced      .... 0
 Energy Change          TolE            ....  1.000e-09 Eh
 1-El. energy change                    ....  1.000e-06 Eh
 DIIS Error             TolErr          ....  1.000e-08


Diagonalization of the overlap matrix:
Smallest eigenvalue                        ... 6.061e-06
Time for diagonalization                   ...    0.009 sec
Threshold for overlap eigenvalues          ... 1.000e-08
Number of eigenvalues below threshold      ... 0
Time for construction of square roots      ...    0.008 sec
Total time needed                          ...    0.017 sec

-------------------
DFT GRID GENERATION
-------------------

General Integration Accuracy     IntAcc      ...  5.010
Radial Grid Type                 RadialGrid  ... Gauss-Chebyshev
Angular Grid (max. acc.)         AngularGrid ... Lebedev-434
Angular grid pruning method      GridPruning ... 3 (G Style)
Weight generation scheme         WeightScheme... Becke
Basis function cutoff            BFCut       ...    1.0000e-12
Integration weight cutoff        WCut        ...    1.0000e-14
Grids for H and He will be reduced by one unit

# of grid points (after initial pruning)     ...  18576 (   0.0 sec)
# of grid points (after weights+screening)   ...  18517 (   0.0 sec)
nearest neighbour list constructed           ...    0.0 sec
Grid point re-assignment to atoms done       ...    0.0 sec
Grid point division into batches done        ...    0.1 sec
Reduced shell lists constructed in    0.2 sec

Total number of grid points                  ...    18517
Total number of batches                      ...      290
Average number of points per batch           ...       63
Average number of grid points per atom       ...     9258
Average number of shells per batch           ...    34.62 (62.95%)
Average number of basis functions per batch  ...   148.68 (64.92%)
Average number of large shells per batch     ...    29.92 (86.42%)
Average number of large basis fcns per batch ...   130.24 (87.60%)
Maximum spatial batch extension              ...  18.71, 18.71, 17.38 au
Average spatial batch extension              ...   1.65,  1.61,  1.35 au

Time for grid setup =    0.183 sec

------------------------------
INITIAL GUESS: MODEL POTENTIAL
------------------------------
Loading Hartree-Fock densities                     ... done
Calculating cut-offs                               ... done
Setting up the integral package                    ... done
Initializing the effective Hamiltonian             ... done
Starting the Coulomb interaction                   ... done (   0.0 sec)
Reading the grid                                   ... done
Mapping shells                                     ... done
Starting the XC term evaluation                    ... done (   0.1 sec)
  promolecular density results
     # of electrons  =     17.999510561
     EX              =    -27.673987129
     EC              =     -0.685149625
     EX+EC           =    -28.359136754
Transforming the Hamiltonian                       ... done (   0.0 sec)
Diagonalizing the Hamiltonian                      ... done (   0.0 sec)
Back transforming the eigenvectors                 ... done (   0.0 sec)
Now organizing SCF variables                       ... done
                      ------------------
                      INITIAL GUESS DONE (   0.4 sec)
                      ------------------
--------------
SCF ITERATIONS
--------------
ITER       Energy         Delta-E        Max-DP      RMS-DP      [F,P]     Damp
               ***  Starting incremental Fock matrix formation  ***
  0   -460.6372514922   0.000000000000 0.01619211  0.00013737  0.0610538 0.7000
  1   -460.6404812871  -0.003229794902 0.00872519  0.00009066  0.0325632 0.7000
                               ***Turning on DIIS***
  2   -460.6418439400  -0.001362652842 0.01184398  0.00015467  0.0126320 0.0000
  3   -460.6435453989  -0.001701458888 0.00881730  0.00007081  0.0196398 0.0000
  4   -460.6441819504  -0.000636551585 0.00127523  0.00002168  0.0035694 0.0000
  5   -460.6442083142  -0.000026363797 0.00021578  0.00000387  0.0010180 0.0000
  6   -460.6442109794  -0.000002665197 0.00011554  0.00000192  0.0002787 0.0000
  7   -460.6442112307  -0.000000251239 0.00002930  0.00000036  0.0000375 0.0000
  8   -460.6442112338  -0.000000003173 0.00000967  0.00000012  0.0000115 0.0000
  9   -460.6442112341  -0.000000000279 0.00000093  0.00000001  0.0000012 0.0000
 10   -460.6442112341  -0.000000000004 0.00000236  0.00000003  0.0000003 0.0000
 11   -460.6442112341   0.000000000003 0.00000255  0.00000003  0.0000001 0.0000
                 **** Energy Check signals convergence ****

               *****************************************************
               *                     SUCCESS                       *
               *           SCF CONVERGED AFTER  12 CYCLES          *
               *****************************************************


----------------
TOTAL SCF ENERGY
----------------

Total Energy       :         -460.64421123 Eh          -12534.76624 eV

Components:
Nuclear Repulsion  :            7.05791036 Eh             192.05550 eV
Electronic Energy  :         -467.70212159 Eh          -12726.82175 eV
One Electron Energy:         -650.02102988 Eh          -17687.97146 eV
Two Electron Energy:          182.31890829 Eh            4961.14971 eV

Virial components:
Potential Energy   :         -920.91050663 Eh          -25059.24887 eV
Kinetic Energy     :          460.26629539 Eh           12524.48263 eV
Virial Ratio       :            2.00082108


DFT components:
N(Alpha)           :        9.000000414857 electrons
N(Beta)            :        9.000000414857 electrons
N(Total)           :       18.000000829714 electrons
E(X)               :      -27.717882129886 Eh       
E(C)               :       -0.685904024866 Eh       
E(XC)              :      -28.403786154752 Eh       
DFET-embed. en.    :        0.000000000000 Eh       

---------------
SCF CONVERGENCE
---------------

  Last Energy change         ...   -1.7053e-12  Tolerance :   1.0000e-09
  Last MAX-Density change    ...    1.8570e-06  Tolerance :   1.0000e-08
  Last RMS-Density change    ...    2.4921e-08  Tolerance :   1.0000e-09
  Last DIIS Error            ...    9.9661e-09  Tolerance :   1.0000e-08

             **** THE GBW FILE WAS UPDATED (hcl_pbe.gbw) ****
             **** DENSITY FILE WAS UPDATED (hcl_pbe.scfp.tmp) ****
             **** ENERGY FILE WAS UPDATED (hcl_pbe.en.tmp) ****
----------------------
UHF SPIN CONTAMINATION
----------------------

Warning: in a DFT calculation there is little theoretical justification to 
         calculate <S**2> as in Hartree-Fock theory. We will do it anyways
         but you should keep in mind that the values have only limited relevance

Expectation value of <S**2>     :     0.000000
Ideal value S*(S+1) for S=0.0   :     0.000000
Deviation                       :     0.000000

----------------
ORBITAL ENERGIES
----------------
                 SPIN UP ORBITALS
  NO   OCC          E(Eh)            E(eV) 
   0   1.0000    -100.660479     -2739.1109 
   1   1.0000      -9.185548      -249.9515 
   2   1.0000      -7.007840      -190.6930 
   3   1.0000      -6.998049      -190.4266 
   4   1.0000      -6.998049      -190.4266 
   5   1.0000      -0.775753       -21.1093 
   6   1.0000      -0.433038       -11.7836 
   7   1.0000      -0.295577        -8.0431 
   8   1.0000      -0.295577        -8.0431 
   9   0.0000      -0.041093        -1.1182 
  10   0.0000       0.011780         0.3205 
  11   0.0000       0.022810         0.6207 
  12   0.0000       0.027169         0.7393 
  13   0.0000       0.027169         0.7393 
  14   0.0000       0.065566         1.7841 
  15   0.0000       0.070265         1.9120 
  16   0.0000       0.070265         1.9120 
  17   0.0000       0.093140         2.5345 
  18   0.0000       0.110590         3.0093 
  19   0.0000       0.110590         3.0093 
  20   0.0000       0.116390         3.1671 
  21   0.0000       0.141098         3.8395 
  22   0.0000       0.141098         3.8395 
  23   0.0000       0.167443         4.5564 
  24   0.0000       0.173564         4.7229 
  25   0.0000       0.173564         4.7229 
  26   0.0000       0.185630         5.0513 
  27   0.0000       0.185630         5.0513 
  28   0.0000       0.200848         5.4653 
  29   0.0000       0.200848         5.4653 
  30   0.0000       0.233384         6.3507 
  31   0.0000       0.276885         7.5344 
  32   0.0000       0.276885         7.5344 
  33   0.0000       0.279900         7.6165 
  34   0.0000       0.290058         7.8929 
  35   0.0000       0.290058         7.8929 
  36   0.0000       0.305265         8.3067 
  37   0.0000       0.331164         9.0114 
  38   0.0000       0.331164         9.0114 
  39   0.0000       0.351331         9.5602 
  40   0.0000       0.358563         9.7570 
  41   0.0000       0.358563         9.7570 
  42   0.0000       0.362569         9.8660 
  43   0.0000       0.362569         9.8660 
  44   0.0000       0.397601        10.8193 
  45   0.0000       0.397601        10.8193 
  46   0.0000       0.409679        11.1479 
  47   0.0000       0.426732        11.6120 
  48   0.0000       0.426732        11.6120 
  49   0.0000       0.448309        12.1991 
  50   0.0000       0.448309        12.1991 
  51   0.0000       0.470897        12.8137 
  52   0.0000       0.470897        12.8137 
  53   0.0000       0.524201        14.2642 
  54   0.0000       0.555337        15.1115 
  55   0.0000       0.562615        15.3095 
  56   0.0000       0.562615        15.3095 
  57   0.0000       0.571455        15.5501 
  58   0.0000       0.571455        15.5501 
  59   0.0000       0.582793        15.8586 
  60   0.0000       0.582793        15.8586 
  61   0.0000       0.596395        16.2287 
  62   0.0000       0.596395        16.2287 
  63   0.0000       0.619846        16.8669 
  64   0.0000       0.619846        16.8669 
  65   0.0000       0.620009        16.8713 
  66   0.0000       0.638612        17.3775 
  67   0.0000       0.638612        17.3775 
  68   0.0000       0.679111        18.4795 
  69   0.0000       0.685229        18.6460 
  70   0.0000       0.685229        18.6460 
  71   0.0000       0.704701        19.1759 
  72   0.0000       0.704701        19.1759 
  73   0.0000       0.716964        19.5096 
  74   0.0000       0.716964        19.5096 
  75   0.0000       0.740812        20.1585 
  76   0.0000       0.793622        21.5956 
  77   0.0000       0.793622        21.5956 
  78   0.0000       0.838756        22.8237 
  79   0.0000       0.855779        23.2869 
  80   0.0000       0.855780        23.2870 
  81   0.0000       0.858777        23.3685 
  82   0.0000       0.858777        23.3685 
  83   0.0000       0.867411        23.6035 
  84   0.0000       0.867411        23.6035 
  85   0.0000       0.923888        25.1403 
  86   0.0000       0.923890        25.1403 
  87   0.0000       0.924036        25.1443 
  88   0.0000       0.988375        26.8950 
  89   0.0000       0.988375        26.8950 
  90   0.0000       0.996026        27.1032 
  91   0.0000       0.996026        27.1032 
  92   0.0000       1.020351        27.7652 
  93   0.0000       1.134250        30.8645 
  94   0.0000       1.134250        30.8645 
  95   0.0000       1.266538        34.4642 
  96   0.0000       1.294454        35.2239 
  97   0.0000       1.294454        35.2239 
  98   0.0000       1.356097        36.9013 
  99   0.0000       1.356097        36.9013 
 100   0.0000       1.464679        39.8560 
 101   0.0000       1.475591        40.1529 
 102   0.0000       1.475591        40.1529 
 103   0.0000       1.561381        42.4873 
 104   0.0000       1.588690        43.2304 
 105   0.0000       1.588690        43.2305 
 106   0.0000       1.630781        44.3758 
 107   0.0000       1.630781        44.3758 
 108   0.0000       1.771464        48.2040 
 109   0.0000       1.914573        52.0982 
 110   0.0000       1.914573        52.0982 
 111   0.0000       1.942870        52.8682 
 112   0.0000       2.217125        60.3310 
 113   0.0000       2.258326        61.4522 
 114   0.0000       2.258327        61.4522 
 115   0.0000       2.317660        63.0667 
 116   0.0000       2.317660        63.0667 
 117   0.0000       2.428773        66.0903 
 118   0.0000       2.779756        75.6410 
 119   0.0000       2.779756        75.6410 
 120   0.0000       2.821015        76.7637 
 121   0.0000       2.821015        76.7637 
 122   0.0000       2.855558        77.7037 
 123   0.0000       2.855564        77.7038 
 124   0.0000       2.905363        79.0589 
 125   0.0000       2.905363        79.0589 
 126   0.0000       3.230230        87.8990 
 127   0.0000       3.230230        87.8990 
 128   0.0000       3.384875        92.1071 
 129   0.0000       3.384875        92.1071 
 130   0.0000       3.422196        93.1227 
 131   0.0000       3.488413        94.9245 
 132   0.0000       3.488413        94.9245 
 133   0.0000       3.551991        96.6546 
 134   0.0000       3.649765        99.3152 
 135   0.0000       3.649767        99.3152 
 136   0.0000       3.682521       100.2065 
 137   0.0000       3.682521       100.2065 
 138   0.0000       3.706492       100.8588 
 139   0.0000       3.721533       101.2680 
 140   0.0000       3.721533       101.2680 
 141   0.0000       4.016878       109.3048 
 142   0.0000       4.063556       110.5750 
 143   0.0000       4.063556       110.5750 
 144   0.0000       4.232762       115.1793 
 145   0.0000       4.476855       121.8214 
 146   0.0000       4.476856       121.8214 
 147   0.0000       4.507004       122.6418 
 148   0.0000       4.630266       125.9959 
 149   0.0000       4.630266       125.9959 
 150   0.0000       5.305884       144.3805 
 151   0.0000       5.305884       144.3805 
 152   0.0000       5.513973       150.0428 
 153   0.0000       5.672325       154.3518 
 154   0.0000       5.672340       154.3522 
 155   0.0000       5.672712       154.3623 
 156   0.0000       5.678807       154.5282 
 157   0.0000       5.678807       154.5282 
 158   0.0000       5.801356       157.8629 
 159   0.0000       5.801359       157.8630 
 160   0.0000       5.844730       159.0432 
 161   0.0000       5.844730       159.0432 
 162   0.0000       6.121120       166.5641 
 163   0.0000       6.121120       166.5641 
 164   0.0000       6.465014       175.9220 
 165   0.0000       6.541169       177.9943 
 166   0.0000       6.541174       177.9944 
 167   0.0000       6.834079       185.9648 
 168   0.0000       6.834079       185.9648 
 169   0.0000       7.786592       211.8839 
 170   0.0000       8.279234       225.2894 
 171   0.0000       8.279234       225.2894 
 172   0.0000       8.780861       238.9394 
 173   0.0000       8.780872       238.9397 
 174   0.0000       9.095714       247.5070 
 175   0.0000       9.095730       247.5074 
 176   0.0000       9.119704       248.1597 
 177   0.0000       9.119704       248.1597 
 178   0.0000       9.153426       249.0774 
 179   0.0000       9.263848       252.0821 
 180   0.0000       9.278360       252.4770 
 181   0.0000       9.278365       252.4771 
 182   0.0000       9.312924       253.4175 
 183   0.0000       9.312924       253.4175 
 184   0.0000       9.481453       258.0035 
 185   0.0000       9.481453       258.0035 
 186   0.0000      10.460504       284.6448 
 187   0.0000      11.878960       323.2429 
 188   0.0000      12.246213       333.2364 
 189   0.0000      12.246213       333.2364 
 190   0.0000      12.471148       339.3572 
 191   0.0000      12.471150       339.3572 
 192   0.0000      12.830753       349.1425 
 193   0.0000      12.830753       349.1425 
 194   0.0000      12.836397       349.2961 
 195   0.0000      12.836397       349.2961 
 196   0.0000      12.897192       350.9504 
 197   0.0000      12.897194       350.9505 
 198   0.0000      12.921433       351.6101 
 199   0.0000      13.632055       370.9471 
 200   0.0000      13.632055       370.9471 
 201   0.0000      14.656559       398.8253 
 202   0.0000      16.653179       453.1560 
 203   0.0000      16.653250       453.1580 
 204   0.0000      16.754856       455.9228 
 205   0.0000      16.754856       455.9228 
 206   0.0000      17.293471       470.5793 
 207   0.0000      17.293508       470.5803 
 208   0.0000      17.389397       473.1896 
 209   0.0000      17.389397       473.1896 
 210   0.0000      17.673836       480.9295 
 211   0.0000      17.673842       480.9297 
 212   0.0000      18.117582       493.0045 
 213   0.0000      18.783652       511.1292 
 214   0.0000      18.783652       511.1292 
 215   0.0000      20.054957       545.7231 
 216   0.0000      23.135873       629.5591 
 217   0.0000      23.135873       629.5591 
 218   0.0000      24.239666       659.5949 
 219   0.0000      39.479526      1074.2925 
 220   0.0000      40.571042      1103.9942 
 221   0.0000      65.809368      1790.7640 
 222   0.0000      65.809369      1790.7640 
 223   0.0000      65.969961      1795.1339 
 224   0.0000      65.969961      1795.1339 
 225   0.0000      66.602501      1812.3462 
 226   0.0000      90.754971      2469.5683 
 227   0.0000      90.754971      2469.5683 
 228   0.0000      91.526627      2490.5661 

                 SPIN DOWN ORBITALS
  NO   OCC          E(Eh)            E(eV) 
   0   1.0000    -100.660479     -2739.1109 
   1   1.0000      -9.185548      -249.9515 
   2   1.0000      -7.007840      -190.6930 
   3   1.0000      -6.998049      -190.4266 
   4   1.0000      -6.998049      -190.4266 
   5   1.0000      -0.775753       -21.1093 
   6   1.0000      -0.433038       -11.7836 
   7   1.0000      -0.295577        -8.0431 
   8   1.0000      -0.295577        -8.0431 
   9   0.0000      -0.041093        -1.1182 
  10   0.0000       0.011780         0.3205 
  11   0.0000       0.022810         0.6207 
  12   0.0000       0.027169         0.7393 
  13   0.0000       0.027169         0.7393 
  14   0.0000       0.065566         1.7841 
  15   0.0000       0.070265         1.9120 
  16   0.0000       0.070265         1.9120 
  17   0.0000       0.093140         2.5345 
  18   0.0000       0.110590         3.0093 
  19   0.0000       0.110590         3.0093 
  20   0.0000       0.116390         3.1671 
  21   0.0000       0.141098         3.8395 
  22   0.0000       0.141098         3.8395 
  23   0.0000       0.167443         4.5564 
  24   0.0000       0.173564         4.7229 
  25   0.0000       0.173564         4.7229 
  26   0.0000       0.185630         5.0513 
  27   0.0000       0.185630         5.0513 
  28   0.0000       0.200848         5.4653 
  29   0.0000       0.200848         5.4653 
  30   0.0000       0.233384         6.3507 
  31   0.0000       0.276885         7.5344 
  32   0.0000       0.276885         7.5344 
  33   0.0000       0.279900         7.6165 
  34   0.0000       0.290058         7.8929 
  35   0.0000       0.290058         7.8929 
  36   0.0000       0.305265         8.3067 
  37   0.0000       0.331164         9.0114 
  38   0.0000       0.331164         9.0114 
  39   0.0000       0.351331         9.5602 
  40   0.0000       0.358563         9.7570 
  41   0.0000       0.358563         9.7570 
  42   0.0000       0.362569         9.8660 
  43   0.0000       0.362569         9.8660 
  44   0.0000       0.397601        10.8193 
  45   0.0000       0.397601        10.8193 
  46   0.0000       0.409679        11.1479 
  47   0.0000       0.426732        11.6120 
  48   0.0000       0.426732        11.6120 
  49   0.0000       0.448309        12.1991 
  50   0.0000       0.448309        12.1991 
  51   0.0000       0.470897        12.8137 
  52   0.0000       0.470897        12.8137 
  53   0.0000       0.524201        14.2642 
  54   0.0000       0.555337        15.1115 
  55   0.0000       0.562615        15.3095 
  56   0.0000       0.562615        15.3095 
  57   0.0000       0.571455        15.5501 
  58   0.0000       0.571455        15.5501 
  59   0.0000       0.582793        15.8586 
  60   0.0000       0.582793        15.8586 
  61   0.0000       0.596395        16.2287 
  62   0.0000       0.596395        16.2287 
  63   0.0000       0.619846        16.8669 
  64   0.0000       0.619846        16.8669 
  65   0.0000       0.620009        16.8713 
  66   0.0000       0.638612        17.3775 
  67   0.0000       0.638612        17.3775 
  68   0.0000       0.679111        18.4795 
  69   0.0000       0.685229        18.6460 
  70   0.0000       0.685229        18.6460 
  71   0.0000       0.704701        19.1759 
  72   0.0000       0.704701        19.1759 
  73   0.0000       0.716964        19.5096 
  74   0.0000       0.716964        19.5096 
  75   0.0000       0.740812        20.1585 
  76   0.0000       0.793622        21.5956 
  77   0.0000       0.793622        21.5956 
  78   0.0000       0.838756        22.8237 
  79   0.0000       0.855779        23.2869 
  80   0.0000       0.855780        23.2870 
  81   0.0000       0.858777        23.3685 
  82   0.0000       0.858777        23.3685 
  83   0.0000       0.867411        23.6035 
  84   0.0000       0.867411        23.6035 
  85   0.0000       0.923888        25.1403 
  86   0.0000       0.923890        25.1403 
  87   0.0000       0.924036        25.1443 
  88   0.0000       0.988375        26.8950 
  89   0.0000       0.988375        26.8950 
  90   0.0000       0.996026        27.1032 
  91   0.0000       0.996026        27.1032 
  92   0.0000       1.020351        27.7652 
  93   0.0000       1.134250        30.8645 
  94   0.0000       1.134250        30.8645 
  95   0.0000       1.266538        34.4642 
  96   0.0000       1.294454        35.2239 
  97   0.0000       1.294454        35.2239 
  98   0.0000       1.356097        36.9013 
  99   0.0000       1.356097        36.9013 
 100   0.0000       1.464679        39.8560 
 101   0.0000       1.475591        40.1529 
 102   0.0000       1.475591        40.1529 
 103   0.0000       1.561381        42.4873 
 104   0.0000       1.588690        43.2304 
 105   0.0000       1.588690        43.2305 
 106   0.0000       1.630781        44.3758 
 107   0.0000       1.630781        44.3758 
 108   0.0000       1.771464        48.2040 
 109   0.0000       1.914573        52.0982 
 110   0.0000       1.914573        52.0982 
 111   0.0000       1.942870        52.8682 
 112   0.0000       2.217125        60.3310 
 113   0.0000       2.258326        61.4522 
 114   0.0000       2.258327        61.4522 
 115   0.0000       2.317660        63.0667 
 116   0.0000       2.317660        63.0667 
 117   0.0000       2.428773        66.0903 
 118   0.0000       2.779756        75.6410 
 119   0.0000       2.779756        75.6410 
 120   0.0000       2.821015        76.7637 
 121   0.0000       2.821015        76.7637 
 122   0.0000       2.855558        77.7037 
 123   0.0000       2.855564        77.7038 
 124   0.0000       2.905363        79.0589 
 125   0.0000       2.905363        79.0589 
 126   0.0000       3.230230        87.8990 
 127   0.0000       3.230230        87.8990 
 128   0.0000       3.384875        92.1071 
 129   0.0000       3.384875        92.1071 
 130   0.0000       3.422196        93.1227 
 131   0.0000       3.488413        94.9245 
 132   0.0000       3.488413        94.9245 
 133   0.0000       3.551991        96.6546 
 134   0.0000       3.649765        99.3152 
 135   0.0000       3.649767        99.3152 
 136   0.0000       3.682521       100.2065 
 137   0.0000       3.682521       100.2065 
 138   0.0000       3.706492       100.8588 
 139   0.0000       3.721533       101.2680 
 140   0.0000       3.721533       101.2680 
 141   0.0000       4.016878       109.3048 
 142   0.0000       4.063556       110.5750 
 143   0.0000       4.063556       110.5750 
 144   0.0000       4.232762       115.1793 
 145   0.0000       4.476855       121.8214 
 146   0.0000       4.476856       121.8214 
 147   0.0000       4.507004       122.6418 
 148   0.0000       4.630266       125.9959 
 149   0.0000       4.630266       125.9959 
 150   0.0000       5.305884       144.3805 
 151   0.0000       5.305884       144.3805 
 152   0.0000       5.513973       150.0428 
 153   0.0000       5.672325       154.3518 
 154   0.0000       5.672340       154.3522 
 155   0.0000       5.672712       154.3623 
 156   0.0000       5.678807       154.5282 
 157   0.0000       5.678807       154.5282 
 158   0.0000       5.801356       157.8629 
 159   0.0000       5.801359       157.8630 
 160   0.0000       5.844730       159.0432 
 161   0.0000       5.844730       159.0432 
 162   0.0000       6.121120       166.5641 
 163   0.0000       6.121120       166.5641 
 164   0.0000       6.465014       175.9220 
 165   0.0000       6.541169       177.9943 
 166   0.0000       6.541174       177.9944 
 167   0.0000       6.834079       185.9648 
 168   0.0000       6.834079       185.9648 
 169   0.0000       7.786592       211.8839 
 170   0.0000       8.279234       225.2894 
 171   0.0000       8.279234       225.2894 
 172   0.0000       8.780861       238.9394 
 173   0.0000       8.780872       238.9397 
 174   0.0000       9.095714       247.5070 
 175   0.0000       9.095730       247.5074 
 176   0.0000       9.119704       248.1597 
 177   0.0000       9.119704       248.1597 
 178   0.0000       9.153426       249.0774 
 179   0.0000       9.263848       252.0821 
 180   0.0000       9.278360       252.4770 
 181   0.0000       9.278365       252.4771 
 182   0.0000       9.312924       253.4175 
 183   0.0000       9.312924       253.4175 
 184   0.0000       9.481453       258.0035 
 185   0.0000       9.481453       258.0035 
 186   0.0000      10.460504       284.6448 
 187   0.0000      11.878960       323.2429 
 188   0.0000      12.246213       333.2364 
 189   0.0000      12.246213       333.2364 
 190   0.0000      12.471148       339.3572 
 191   0.0000      12.471150       339.3572 
 192   0.0000      12.830753       349.1425 
 193   0.0000      12.830753       349.1425 
 194   0.0000      12.836397       349.2961 
 195   0.0000      12.836397       349.2961 
 196   0.0000      12.897192       350.9504 
 197   0.0000      12.897194       350.9505 
 198   0.0000      12.921433       351.6101 
 199   0.0000      13.632055       370.9471 
 200   0.0000      13.632055       370.9471 
 201   0.0000      14.656559       398.8253 
 202   0.0000      16.653179       453.1560 
 203   0.0000      16.653250       453.1580 
 204   0.0000      16.754856       455.9228 
 205   0.0000      16.754856       455.9228 
 206   0.0000      17.293471       470.5793 
 207   0.0000      17.293508       470.5803 
 208   0.0000      17.389397       473.1896 
 209   0.0000      17.389397       473.1896 
 210   0.0000      17.673836       480.9295 
 211   0.0000      17.673842       480.9297 
 212   0.0000      18.117582       493.0045 
 213   0.0000      18.783652       511.1292 
 214   0.0000      18.783652       511.1292 
 215   0.0000      20.054957       545.7231 
 216   0.0000      23.135873       629.5591 
 217   0.0000      23.135873       629.5591 
 218   0.0000      24.239666       659.5949 
 219   0.0000      39.479526      1074.2925 
 220   0.0000      40.571042      1103.9942 
 221   0.0000      65.809368      1790.7640 
 222   0.0000      65.809369      1790.7640 
 223   0.0000      65.969961      1795.1339 
 224   0.0000      65.969961      1795.1339 
 225   0.0000      66.602501      1812.3462 
 226   0.0000      90.754971      2469.5683 
 227   0.0000      90.754971      2469.5683 
 228   0.0000      91.526627      2490.5661 

                    ********************************
                    * MULLIKEN POPULATION ANALYSIS *
                    ********************************

--------------------------------------------
MULLIKEN ATOMIC CHARGES AND SPIN POPULATIONS
--------------------------------------------
   0 Cl:   -0.118630    0.000000
   1 H :    0.118630   -0.000000
Sum of atomic charges         :    0.0000000
Sum of atomic spin populations:   -0.0000000

-----------------------------------------------------
MULLIKEN REDUCED ORBITAL CHARGES AND SPIN POPULATIONS
-----------------------------------------------------
CHARGE
  0 Cls       :     5.939365  s :     5.939365
      pz      :     3.273766  p :    11.140531
      px      :     3.933383
      py      :     3.933383
      dz2     :     0.031297  d :     0.034478
      dxz     :     0.001590
      dyz     :     0.001590
      dx2y2   :     0.000000
      dxy     :     0.000000
      f0      :     0.003488  f :     0.003944
      f+1     :     0.000228
      f-1     :     0.000228
      f+2     :    -0.000000
      f-2     :    -0.000000
      f+3     :     0.000000
      f-3     :     0.000000
      g0      :     0.000330  g :     0.000287
      g+1     :    -0.000021
      g-1     :    -0.000021
      g+2     :    -0.000000
      g-2     :    -0.000000
      g+3     :     0.000000
      g-3     :     0.000000
      g+4     :     0.000000
      g-4     :     0.000000
      h0      :     0.000033  h :     0.000026
      h+1     :    -0.000004
      h-1     :    -0.000004
      h+2     :    -0.000000
      h-2     :    -0.000000
      h+3     :     0.000000
      h-3     :     0.000000
      h+4     :     0.000000
      h-4     :    -0.000000
      h+5     :     0.000000
      h-5     :     0.000000
  1 H s       :     0.726260  s :     0.726260
      pz      :     0.019398  p :     0.123718
      px      :     0.052160
      py      :     0.052160
      dz2     :     0.004215  d :     0.023445
      dxz     :     0.009615
      dyz     :     0.009615
      dx2y2   :     0.000000
      dxy     :     0.000000
      f0      :     0.001556  f :     0.006605
      f+1     :     0.002525
      f-1     :     0.002525
      f+2     :    -0.000000
      f-2     :     0.000000
      f+3     :     0.000000
      f-3     :     0.000000
      g0      :     0.000292  g :     0.001341
      g+1     :     0.000524
      g-1     :     0.000524
      g+2     :    -0.000000
      g-2     :    -0.000000
      g+3     :     0.000000
      g-3     :     0.000000
      g+4     :     0.000000
      g-4     :     0.000000

SPIN
  0 Cls       :     0.000000  s :     0.000000
      pz      :     0.000000  p :     0.000000
      px      :    -0.000000
      py      :     0.000000
      dz2     :     0.000000  d :     0.000000
      dxz     :     0.000000
      dyz     :     0.000000
      dx2y2   :    -0.000000
      dxy     :     0.000000
      f0      :     0.000000  f :     0.000000
      f+1     :     0.000000
      f-1     :     0.000000
      f+2     :     0.000000
      f-2     :     0.000000
      f+3     :     0.000000
      f-3     :     0.000000
      g0      :    -0.000000  g :    -0.000000
      g+1     :     0.000000
      g-1     :     0.000000
      g+2     :    -0.000000
      g-2     :    -0.000000
      g+3     :     0.000000
      g-3     :     0.000000
      g+4     :    -0.000000
      g-4     :     0.000000
      h0      :    -0.000000  h :    -0.000000
      h+1     :     0.000000
      h-1     :     0.000000
      h+2     :     0.000000
      h-2     :    -0.000000
      h+3     :    -0.000000
      h-3     :     0.000000
      h+4     :    -0.000000
      h-4     :    -0.000000
      h+5     :     0.000000
      h-5     :     0.000000
  1 H s       :    -0.000000  s :    -0.000000
      pz      :    -0.000000  p :    -0.000000
      px      :     0.000000
      py      :    -0.000000
      dz2     :    -0.000000  d :    -0.000000
      dxz     :     0.000000
      dyz     :    -0.000000
      dx2y2   :    -0.000000
      dxy     :     0.000000
      f0      :    -0.000000  f :    -0.000000
      f+1     :     0.000000
      f-1     :    -0.000000
      f+2     :     0.000000
      f-2     :    -0.000000
      f+3     :    -0.000000
      f-3     :    -0.000000
      g0      :     0.000000  g :    -0.000000
      g+1     :    -0.000000
      g-1     :    -0.000000
      g+2     :     0.000000
      g-2     :     0.000000
      g+3     :     0.000000
      g-3     :     0.000000
      g+4     :     0.000000
      g-4     :    -0.000000


                     *******************************
                     * LOEWDIN POPULATION ANALYSIS *
                     *******************************

-------------------------------------------
LOEWDIN ATOMIC CHARGES AND SPIN POPULATIONS
-------------------------------------------
   0 Cl:    1.277794    0.000000
   1 H :   -1.277794   -0.000000

----------------------------------------------------
LOEWDIN REDUCED ORBITAL CHARGES AND SPIN POPULATIONS
----------------------------------------------------
CHARGE
  0 Cls       :     5.289368  s :     5.289368
      pz      :     3.239228  p :    10.356376
      px      :     3.558574
      py      :     3.558574
      dz2     :     0.055873  d :     0.061740
      dxz     :     0.002933
      dyz     :     0.002933
      dx2y2   :     0.000000
      dxy     :     0.000000
      f0      :     0.009476  f :     0.011595
      f+1     :     0.001060
      f-1     :     0.001060
      f+2     :     0.000000
      f-2     :     0.000000
      f+3     :     0.000000
      f-3     :     0.000000
      g0      :     0.001444  g :     0.002075
      g+1     :     0.000315
      g-1     :     0.000315
      g+2     :     0.000000
      g-2     :     0.000000
      g+3     :     0.000000
      g-3     :     0.000000
      g+4     :     0.000000
      g-4     :     0.000000
      h0      :     0.000464  h :     0.001053
      h+1     :     0.000294
      h-1     :     0.000294
      h+2     :     0.000000
      h-2     :     0.000000
      h+3     :     0.000000
      h-3     :     0.000000
      h+4     :     0.000000
      h-4     :     0.000000
      h+5     :     0.000000
      h-5     :     0.000000
  1 H s       :     0.834793  s :     0.834793
      pz      :     0.342397  p :     0.738874
      px      :     0.198239
      py      :     0.198239
      dz2     :     0.163842  d :     0.510324
      dxz     :     0.173241
      dyz     :     0.173241
      dx2y2   :     0.000000
      dxy     :     0.000000
      f0      :     0.050125  f :     0.152224
      f+1     :     0.051050
      f-1     :     0.051050
      f+2     :     0.000000
      f-2     :     0.000000
      f+3     :     0.000000
      f-3     :     0.000000
      g0      :     0.012990  g :     0.041578
      g+1     :     0.014294
      g-1     :     0.014294
      g+2     :     0.000000
      g-2     :     0.000000
      g+3     :     0.000000
      g-3     :     0.000000
      g+4     :     0.000000
      g-4     :     0.000000

SPIN
  0 Cls       :     0.000000  s :     0.000000
      pz      :     0.000000  p :     0.000000
      px      :    -0.000000
      py      :     0.000000
      dz2     :    -0.000000  d :    -0.000000
      dxz     :    -0.000000
      dyz     :    -0.000000
      dx2y2   :    -0.000000
      dxy     :    -0.000000
      f0      :     0.000000  f :     0.000000
      f+1     :    -0.000000
      f-1     :     0.000000
      f+2     :    -0.000000
      f-2     :     0.000000
      f+3     :     0.000000
      f-3     :    -0.000000
      g0      :    -0.000000  g :    -0.000000
      g+1     :    -0.000000
      g-1     :     0.000000
      g+2     :     0.000000
      g-2     :     0.000000
      g+3     :    -0.000000
      g-3     :     0.000000
      g+4     :    -0.000000
      g-4     :     0.000000
      h0      :     0.000000  h :     0.000000
      h+1     :    -0.000000
      h-1     :    -0.000000
      h+2     :     0.000000
      h-2     :     0.000000
      h+3     :    -0.000000
      h-3     :     0.000000
      h+4     :    -0.000000
      h-4     :    -0.000000
      h+5     :     0.000000
      h-5     :     0.000000
  1 H s       :    -0.000000  s :    -0.000000
      pz      :     0.000000  p :    -0.000000
      px      :     0.000000
      py      :    -0.000000
      dz2     :     0.000000  d :     0.000000
      dxz     :     0.000000
      dyz     :     0.000000
      dx2y2   :    -0.000000
      dxy     :    -0.000000
      f0      :    -0.000000  f :    -0.000000
      f+1     :    -0.000000
      f-1     :    -0.000000
      f+2     :     0.000000
      f-2     :    -0.000000
      f+3     :    -0.000000
      f-3     :    -0.000000
      g0      :     0.000000  g :     0.000000
      g+1     :    -0.000000
      g-1     :     0.000000
      g+2     :     0.000000
      g-2     :     0.000000
      g+3     :     0.000000
      g-3     :     0.000000
      g+4     :     0.000000
      g-4     :     0.000000


                      *****************************
                      * MAYER POPULATION ANALYSIS *
                      *****************************

  NA   - Mulliken gross atomic population
  ZA   - Total nuclear charge
  QA   - Mulliken gross atomic charge
  VA   - Mayer's total valence
  BVA  - Mayer's bonded valence
  FA   - Mayer's free valence

  ATOM       NA         ZA         QA         VA         BVA        FA
  0 Cl    17.1186    17.0000    -0.1186     1.1648     1.1648     0.0000
  1 H      0.8814     1.0000     0.1186     1.1648     1.1648    -0.0000

  Mayer bond orders larger than 0.1
B(  0-Cl,  1-H ) :   1.1648 

-------
TIMINGS
-------

Total SCF time: 0 days 0 hours 2 min 21 sec 

Total time                  ....     141.114 sec
Sum of individual times     ....     140.481 sec  ( 99.6%)

Fock matrix formation       ....     139.245 sec  ( 98.7%)
  XC integration            ....       6.196 sec  (  4.4% of F)
    Basis function eval.    ....       0.359 sec  (  5.8% of XC)
    Density eval.           ....       0.739 sec  ( 11.9% of XC)
    XC-Functional eval.     ....       0.078 sec  (  1.3% of XC)
    XC-Potential eval.      ....       2.242 sec  ( 36.2% of XC)
Diagonalization             ....       0.356 sec  (  0.3%)
Density matrix formation    ....       0.007 sec  (  0.0%)
Population analysis         ....       0.182 sec  (  0.1%)
Initial guess               ....       0.263 sec  (  0.2%)
Orbital Transformation      ....       0.000 sec  (  0.0%)
Orbital Orthonormalization  ....       0.000 sec  (  0.0%)
DIIS solution               ....       0.245 sec  (  0.2%)
Grid generation             ....       0.183 sec  (  0.1%)

-------------------------   --------------------
FINAL SINGLE POINT ENERGY      -460.644211234128
-------------------------   --------------------


                            ***************************************
                            *     ORCA property calculations      *
                            ***************************************

                                    ---------------------
                                    Active property flags
                                    ---------------------
   (+) Dipole Moment
   (+) Polarizability


------------------------------------------------------------------------------
                       ORCA ELECTRIC PROPERTIES CALCULATION
------------------------------------------------------------------------------

Dipole Moment Calculation                       ... on
Quadrupole Moment Calculation                   ... off
Polarizability Calculation                      ... Analytic (CP-SCF)
GBWName                                         ... hcl_pbe.gbw
Electron density file                           ... hcl_pbe.scfp.tmp
The origin for moment calculation is the CENTER OF MASS  = ( 0.000000,  0.000000  0.066589)

-------------
DIPOLE MOMENT
-------------
                                X             Y             Z
Electronic contribution:      0.00000       0.00000      -0.78976
Nuclear contribution   :      0.00000       0.00000       1.21004
                        -----------------------------------------
Total Dipole Moment    :      0.00000       0.00000       0.42028
                        -----------------------------------------
Magnitude (a.u.)       :      0.42028
Magnitude (Debye)      :      1.06826



--------------------
Rotational spectrum 
--------------------
 
Rotational constants in cm-1:     0.000000    10.586786    10.586786 
Rotational constants in MHz :     0.000000 317383.853331 317383.853331 

 Dipole components along the rotational axes: 
x,y,z [a.u.] :     0.420276     0.000000     0.000000 
x,y,z [Debye]:     1.068256     0.000000     0.000000 

 
Transforming and storing MO dipole integrals   ... done

                ... starting polarizability calculation

Opening the Dipole integral file               ... (hcl_pbe.dmo.tmp) done
Reading Dipole-MO integrals                    ... done
Solving CP-SCF equations                       ... 

           ************************************************************
           *        Program running with 4 parallel MPI-processes     *
           *              working on a common directory               *
           ************************************************************

------------------------------------------------------------------------------
                           ORCA CP-SCF CALCULATION
------------------------------------------------------------------------------

Input orbitals are from        ... hcl_pbe.gbw
Input Perturbation             ... hcl_pbe.cpv.tmp
Wavefunction output            ... hcl_pbe.cpu.tmp
Perturbation mode              ... Real perturbation (singlet)
Solver                         ... POPLE
Max. number of iterations      ... 200
Convergence tolerance          ... 1.000e-06
Integral handling              ... Direct
Number of perturbations        ... 3
Number of operators            ... 2
Orbital ranges used for CP-SCF:
 Operator 0:  Orbitals   0...  8  to   9...228
 Operator 1:  Orbitals   0...  8  to   9...228
DFT calculation                         ... on
Exchange functional (SCF)               ... PBE
Exchange functional (CP-SCF)            ... PBE
   PBE kappa parameter  XKappa (SCF)    ...  0.804000
   PBE kappa parameter  XKappa (CP-SCF) ...  0.804000
   PBE mue parameter   XMuePBE (SCF)    ...  0.219520
   PBE mue parameter   XMuePBE (CP-SCF) ...  0.219520
Correlation functional (SCF)            ... PBE
Correlation functional (CP-SCF)         ... PBE
   PBE beta parameter CBetaPBE (SCF)    ...  0.066725
   PBE beta parameter CBetaPBE (CP-SCF) ...  0.066725
 LDA part of GGA corr.  LDAOpt (SCF)    ... PW91-LDA
 LDA part of GGA corr.  LDAOpt (CP-SCF) ... PW91-LDA
Variables per vector in CP-SCF ... 3960
Number of vectors sought       ... 3
Recalculating density on grid  ... done
Calculating the xc-kernel      ... done
     CP-SCF ITERATION   0: 
     CP-SCF ITERATION   1:      0.048251473527
     CP-SCF ITERATION   2:      0.002899218396
     CP-SCF ITERATION   3:      0.000039011028
     CP-SCF ITERATION   4:      0.000000280569
done
Reading CP-SCF coefficients                    ... done
Doing the polarizability tensor   ... done
Cleaning up                                    ... done

-------------------------
THE POLARIZABILITY TENSOR
-------------------------

The raw cartesian tensor (atomic units):
   18.01501     -0.00000      0.00000  
   -0.00000     18.01501     -0.00000  
    0.00000     -0.00000     19.22333  
diagonalized tensor: 
   18.01501     18.01501     19.22333  

    0.24167      0.97036      0.00000  
    0.97036     -0.24167     -0.00000  
    0.00000     -0.00000      1.00000  

Isotropic polarizability :  18.41778


Timings for individual modules:

Sum of individual times         ...      226.034 sec (=   3.767 min)
GTO integral calculation        ...        1.187 sec (=   0.020 min)   0.5 %
SCF iterations                  ...      141.488 sec (=   2.358 min)  62.6 %
Solution of CP-SCF eqns.        ...       83.359 sec (=   1.389 min)  36.9 %
                             ****ORCA TERMINATED NORMALLY****
TOTAL RUN TIME: 0 days 0 hours 3 minutes 46 seconds 795 msec
