
                                 *****************
                                 * O   R   C   A *
                                 *****************

           --- An Ab Initio, DFT and Semiempirical electronic structure package ---

                  #######################################################
                  #                        -***-                        #
                  #          Department of theory and spectroscopy      #
                  #               Directorship: Frank Neese             #
                  #        Max Planck Institute fuer Kohlenforschung    #
                  #                Kaiser Wilhelm Platz 1               #
                  #                 D-45470 Muelheim/Ruhr               #
                  #                      Germany                        #
                  #                                                     #
                  #                  All rights reserved                #
                  #                        -***-                        #
                  #######################################################


                         Program Version 4.1.2  - RELEASE  -


 With contributions from (in alphabetic order):
   Daniel Aravena         : Magnetic Properties
   Michael Atanasov       : Ab Initio Ligand Field Theory
   Alexander A. Auer      : GIAO ZORA
   Ute Becker             : Parallelization
   Giovanni Bistoni       : ED, Open-shell LED
   Martin Brehm           : Molecular dynamics
   Dmytro Bykov           : SCF Hessian
   Vijay G. Chilkuri      : MRCI spin determinant printing
   Dipayan Datta          : RHF DLPNO-CCSD density
   Achintya Kumar Dutta   : EOM-CC, STEOM-CC
   Dmitry Ganyushin       : Spin-Orbit,Spin-Spin,Magnetic field MRCI
   Miquel Garcia          : C-PCM Hessian
   Yang Guo               : DLPNO-NEVPT2, CIM, IAO-localization
   Andreas Hansen         : Spin unrestricted coupled pair/coupled cluster methods
   Benjamin Helmich-Paris : CASSCF linear response (MC-RPA)
   Lee Huntington         : MR-EOM, pCC
   Robert Izsak           : Overlap fitted RIJCOSX, COSX-SCS-MP3, EOM
   Christian Kollmar      : KDIIS, OOCD, Brueckner-CCSD(T), CCSD density
   Simone Kossmann        : Meta GGA functionals, TD-DFT gradient, OOMP2, MP2 Hessian
   Martin Krupicka        : AUTO-CI
   Lucas Lang             : DCDCAS
   Dagmar Lenk            : GEPOL surface, SMD
   Dimitrios Liakos       : Extrapolation schemes; parallel MDCI
   Dimitrios Manganas     : ROCIS; embedding schemes
   Dimitrios Pantazis     : SARC Basis sets
   Taras Petrenko         : DFT Hessian,TD-DFT gradient, ASA, ECA, R-Raman, ABS, FL, XAS/XES, NRVS
   Peter Pinski           : DLPNO-MP2, DLPNO-MP2 Gradient
   Christoph Reimann      : Effective Core Potentials
   Marius Retegan         : Local ZFS, SOC
   Christoph Riplinger    : Optimizer, TS searches, QM/MM, DLPNO-CCSD(T), (RO)-DLPNO pert. Triples
   Tobias Risthaus        : Range-separated hybrids, TD-DFT gradient, RPA, STAB
   Michael Roemelt        : Restricted open shell CIS
   Masaaki Saitow         : Open-shell DLPNO
   Barbara Sandhoefer     : DKH picture change effects
   Avijit Sen             : IP-ROCIS
   Kantharuban Sivalingam : CASSCF convergence, NEVPT2, FIC-MRCI
   Bernardo de Souza      : ESD, SOC TD-DFT
   Georgi Stoychev        : AutoAux, RI-MP2 NMR
   Willem Van den Heuvel  : Paramagnetic NMR
   Boris Wezisla          : Elementary symmetry handling
   Frank Wennmohs         : Technical directorship


 We gratefully acknowledge several colleagues who have allowed us to
 interface, adapt or use parts of their codes:
   Stefan Grimme, W. Hujo, H. Kruse,             : VdW corrections, initial TS optimization,
                  C. Bannwarth                     DFT functionals, gCP, sTDA/sTD-DF
   Ed Valeev                                     : LibInt (2-el integral package), F12 methods
   Garnet Chan, S. Sharma, J. Yang, R. Olivares  : DMRG
   Ulf Ekstrom                                   : XCFun DFT Library
   Mihaly Kallay                                 : mrcc  (arbitrary order and MRCC methods)
   Andreas Klamt, Michael Diedenhofen            : otool_cosmo (COSMO solvation model)
   Jiri Pittner, Ondrej Demel                    : Mk-CCSD
   Frank Weinhold                                : gennbo (NPA and NBO analysis)
   Christopher J. Cramer and Donald G. Truhlar   : smd solvation model
   Lars Goerigk                                  : TD-DFT with DH, B97 family of functionals
   V. Asgeirsson, H. Jonsson                     : NEB implementation
   FAccTs GmbH                                   : IRC, NEB, NEB-TS, Multilevel


 Your calculation uses the libint2 library for the computation of 2-el integrals
 For citations please refer to: http://libint.valeyev.net

 This ORCA versions uses:
   CBLAS   interface :  Fast vector & matrix operations
   LAPACKE interface :  Fast linear algebra routines
   SCALAPACK package :  Parallel linear algebra routines


----- Orbital basis set information -----
Your calculation utilizes the basis: aug-pc-4
   H, C-F              : F. Jensen, J. Chem. Phys. 115, 9113 (2001).
                         F. Jensen, J. Chem. Phys. 116, 7372 (2002).
                         F. Jensen, J. Chem. Phys. 117, 9234 (2002).
   Si-Cl               : F. Jensen, T. Helgaker, J. Chem. Phys. 121, 3463 (2004).
   He-B, Ne-Mg, Al, Ar : F. Jensen, J. Phys. Chem. A 111, 11198 (2007).
   K, Ca, Ga-Kr        : F. Jensen, J. Chem. Phys. 136, 094110 (2012).
   Sc-Zn               : F. Jensen, J. Chem. Phys. 138, 014107 (2013).

================================================================================
                                        WARNINGS
                       Please study these warnings very carefully!
================================================================================


INFO   : the flag for use of LIBINT has been found!

================================================================================
                                       INPUT FILE
================================================================================
NAME = hcn_pbe.inp
|  1> !uks pbe nori aug-pc-4 grid5 nofinalgrid verytightscf
|  2> 
|  3> %maxcore 1500
|  4> 
|  5> %pal nprocs 4 end
|  6> 
|  7> %scf
|  8> 	maxiter 200
|  9> end
| 10> %elprop
| 11> 	dipole true
| 12> 	 polar 1
| 13> 	 maxiter 200
| 14> end
| 15> 
| 16> * xyz 0 1
| 17> C 0.0000 0.0000 0.0000
| 18> H 0.0000 0.0000 1.0640
| 19> N 0.0000 0.0000 -1.1560
| 20> *
| 21> 
| 22>                          ****END OF INPUT****
================================================================================

                       ****************************
                       * Single Point Calculation *
                       ****************************

---------------------------------
CARTESIAN COORDINATES (ANGSTROEM)
---------------------------------
  C      0.000000    0.000000    0.000000
  H      0.000000    0.000000    1.064000
  N      0.000000    0.000000   -1.156000

----------------------------
CARTESIAN COORDINATES (A.U.)
----------------------------
  NO LB      ZA    FRAG     MASS         X           Y           Z
   0 C     6.0000    0    12.011    0.000000    0.000000    0.000000
   1 H     1.0000    0     1.008    0.000000    0.000000    2.010669
   2 N     7.0000    0    14.007    0.000000    0.000000   -2.184523

--------------------------------
INTERNAL COORDINATES (ANGSTROEM)
--------------------------------
 C      0   0   0     0.000000000000     0.00000000     0.00000000
 H      1   0   0     1.064000000000     0.00000000     0.00000000
 N      1   2   0     1.156000000000   179.99999829     0.00000000

---------------------------
INTERNAL COORDINATES (A.U.)
---------------------------
 C      0   0   0     0.000000000000     0.00000000     0.00000000
 H      1   0   0     2.010668606492     0.00000000     0.00000000
 N      1   2   0     2.184523410813   179.99999829     0.00000000

---------------------
BASIS SET INFORMATION
---------------------
There are 3 groups of distinct atoms

 Group   1 Type C   : 28s12p7d4f3g2h contracted to 9s8p7d4f3g2h pattern {11101111111/51111111/1111111/1111/111/11}
 Group   2 Type H   : 12s7p4d3f2g contracted to 8s7p4d3f2g pattern {51111111/1111111/1111/111/11}
 Group   3 Type N   : 27s12p7d4f3g2h contracted to 9s8p7d4f3g2h pattern {1191111111/51111111/1111111/1111/111/11}

Atom   0C    basis set group =>   1
Atom   1H    basis set group =>   2
Atom   2N    basis set group =>   3


           ************************************************************
           *        Program running with 4 parallel MPI-processes     *
           *              working on a common directory               *
           ************************************************************
------------------------------------------------------------------------------
                           ORCA GTO INTEGRAL CALCULATION
------------------------------------------------------------------------------

                         BASIS SET STATISTICS AND STARTUP INFO

 # of primitive gaussian shells          ...  139
 # of primitive gaussian functions       ...  443
 # of contracted shells                  ...   90
 # of contracted basis functions         ...  378
 Highest angular momentum                ...    5
 Maximum contraction depth               ...   11
 Integral package used                   ... LIBINT
 Integral threshhold            Thresh   ...  1.000e-12
 Primitive cut-off              TCut     ...  1.000e-14


------------------------------ INTEGRAL EVALUATION ----------------------------


 * One electron integrals 
 Pre-screening matrix                    ... done
 Shell pair data                         ... done (   0.001 sec)



           ************************************************************
           *        Program running with 4 parallel MPI-processes     *
           *              working on a common directory               *
           ************************************************************
-------------------------------------------------------------------------------
                                 ORCA SCF
-------------------------------------------------------------------------------

------------
SCF SETTINGS
------------
Hamiltonian:
 Density Functional     Method          .... DFT(GTOs)
 Exchange Functional    Exchange        .... PBE
   PBE kappa parameter   XKappa         ....  0.804000
   PBE mue parameter    XMuePBE         ....  0.219520
 Correlation Functional Correlation     .... PBE
   PBE beta parameter  CBetaPBE         ....  0.066725
 LDA part of GGA corr.  LDAOpt          .... PW91-LDA
 Gradients option       PostSCFGGA      .... off
   Density functional embedding theory  .... OFF
   NL short-range parameter             ....  6.400000


General Settings:
 Integral files         IntName         .... hcn_pbe
 Hartree-Fock type      HFTyp           .... UHF
 Total Charge           Charge          ....    0
 Multiplicity           Mult            ....    1
 Number of Electrons    NEL             ....   14
 Basis Dimension        Dim             ....  378
 Nuclear Repulsion      ENuc            ....     23.8788203319 Eh

Convergence Acceleration:
 DIIS                   CNVDIIS         .... on
   Start iteration      DIISMaxIt       ....    12
   Startup error        DIISStart       ....  0.200000
   # of expansion vecs  DIISMaxEq       ....     5
   Bias factor          DIISBfac        ....   1.050
   Max. coefficient     DIISMaxC        ....  10.000
 Newton-Raphson         CNVNR           .... off
 SOSCF                  CNVSOSCF        .... off
 Level Shifting         CNVShift        .... on
   Level shift para.    LevelShift      ....    0.2500
   Turn off err/grad.   ShiftErr        ....    0.0010
 Zerner damping         CNVZerner       .... off
 Static damping         CNVDamp         .... on
   Fraction old density DampFac         ....    0.7000
   Max. Damping (<1)    DampMax         ....    0.9800
   Min. Damping (>=0)   DampMin         ....    0.0000
   Turn off err/grad.   DampErr         ....    0.1000
 Fernandez-Rico         CNVRico         .... off

SCF Procedure:
 Maximum # iterations   MaxIter         ....   200
 SCF integral mode      SCFMode         .... Direct
   Integral package                     .... LIBINT
 Reset frequency        DirectResetFreq ....    20
 Integral Threshold     Thresh          ....  1.000e-12 Eh
 Primitive CutOff       TCut            ....  1.000e-14 Eh

Convergence Tolerance:
 Convergence Check Mode ConvCheckMode   .... Total+1el-Energy
 Convergence forced     ConvForced      .... 0
 Energy Change          TolE            ....  1.000e-09 Eh
 1-El. energy change                    ....  1.000e-06 Eh
 DIIS Error             TolErr          ....  1.000e-08


Diagonalization of the overlap matrix:
Smallest eigenvalue                        ... 2.716e-07
Time for diagonalization                   ...    0.026 sec
Threshold for overlap eigenvalues          ... 1.000e-08
Number of eigenvalues below threshold      ... 0
Time for construction of square roots      ...    0.019 sec
Total time needed                          ...    0.045 sec

-------------------
DFT GRID GENERATION
-------------------

General Integration Accuracy     IntAcc      ...  5.010
Radial Grid Type                 RadialGrid  ... Gauss-Chebyshev
Angular Grid (max. acc.)         AngularGrid ... Lebedev-434
Angular grid pruning method      GridPruning ... 3 (G Style)
Weight generation scheme         WeightScheme... Becke
Basis function cutoff            BFCut       ...    1.0000e-12
Integration weight cutoff        WCut        ...    1.0000e-14
Grids for H and He will be reduced by one unit

# of grid points (after initial pruning)     ...  27980 (   0.0 sec)
# of grid points (after weights+screening)   ...  27660 (   0.0 sec)
nearest neighbour list constructed           ...    0.0 sec
Grid point re-assignment to atoms done       ...    0.0 sec
Grid point division into batches done        ...    0.2 sec
Reduced shell lists constructed in    0.3 sec

Total number of grid points                  ...    27660
Total number of batches                      ...      434
Average number of points per batch           ...       63
Average number of grid points per atom       ...     9220
Average number of shells per batch           ...    78.14 (86.82%)
Average number of basis functions per batch  ...   336.70 (89.07%)
Average number of large shells per batch     ...    72.99 (93.41%)
Average number of large basis fcns per batch ...   318.94 (94.72%)
Maximum spatial batch extension              ...  27.58, 27.58,  2.07 au
Average spatial batch extension              ...   0.63,  0.62,  0.30 au

Time for grid setup =    0.324 sec

------------------------------
INITIAL GUESS: MODEL POTENTIAL
------------------------------
Loading Hartree-Fock densities                     ... done
Calculating cut-offs                               ... done
Setting up the integral package                    ... done
Initializing the effective Hamiltonian             ... done
Starting the Coulomb interaction                   ... done (   0.0 sec)
Reading the grid                                   ... done
Mapping shells                                     ... done
Starting the XC term evaluation                    ... done (   0.5 sec)
  promolecular density results
     # of electrons  =     13.999507306
     EX              =    -11.842727562
     EC              =     -0.432646299
     EX+EC           =    -12.275373861
Transforming the Hamiltonian                       ... done (   0.0 sec)
Diagonalizing the Hamiltonian                      ... done (   0.0 sec)
Back transforming the eigenvectors                 ... done (   0.0 sec)
Now organizing SCF variables                       ... done
                      ------------------
                      INITIAL GUESS DONE (   1.0 sec)
                      ------------------
--------------
SCF ITERATIONS
--------------
ITER       Energy         Delta-E        Max-DP      RMS-DP      [F,P]     Damp
               ***  Starting incremental Fock matrix formation  ***
  0    -93.2684055109   0.000000000000 0.01303863  0.00016111  0.2664306 0.7000
  1    -93.3158993144  -0.047493803490 0.00720391  0.00009298  0.0703567 0.7000
                               ***Turning on DIIS***
  2    -93.3243012281  -0.008401913736 0.02445596  0.00016608  0.0480356 0.0000
  3    -93.3515415058  -0.027240277752 0.00796921  0.00007082  0.0390171 0.0000
  4    -93.3533232866  -0.001781780799 0.00302946  0.00002681  0.0375557 0.0000
  5    -93.3546432515  -0.001319964892 0.00054035  0.00000938  0.0109556 0.0000
  6    -93.3547593563  -0.000116104789 0.00022351  0.00000291  0.0029151 0.0000
  7    -93.3547675104  -0.000008154093 0.00008783  0.00000143  0.0009017 0.0000
  8    -93.3547684187  -0.000000908276 0.00001493  0.00000024  0.0001562 0.0000
  9    -93.3547684418  -0.000000023108 0.00000374  0.00000005  0.0000401 0.0000
 10    -93.3547684440  -0.000000002183 0.00000262  0.00000003  0.0000060 0.0000
 11    -93.3547684441  -0.000000000063 0.00001064  0.00000010  0.0000005 0.0000
                 **** Energy Check signals convergence ****

               *****************************************************
               *                     SUCCESS                       *
               *           SCF CONVERGED AFTER  12 CYCLES          *
               *****************************************************


----------------
TOTAL SCF ENERGY
----------------

Total Energy       :          -93.35476844 Eh           -2540.31240 eV

Components:
Nuclear Repulsion  :           23.87882033 Eh             649.77574 eV
Electronic Energy  :         -117.23358878 Eh           -3190.08813 eV
One Electron Energy:         -172.82442544 Eh           -4702.79170 eV
Two Electron Energy:           55.59083666 Eh            1512.70357 eV

Virial components:
Potential Energy   :         -186.37105980 Eh           -5071.41436 eV
Kinetic Energy     :           93.01629136 Eh            2531.10197 eV
Virial Ratio       :            2.00363890


DFT components:
N(Alpha)           :        6.999999553771 electrons
N(Beta)            :        6.999999553771 electrons
N(Total)           :       13.999999107543 electrons
E(X)               :      -12.045932049095 Eh       
E(C)               :       -0.439667059491 Eh       
E(XC)              :      -12.485599108586 Eh       
DFET-embed. en.    :        0.000000000000 Eh       

---------------
SCF CONVERGENCE
---------------

  Last Energy change         ...    1.3358e-12  Tolerance :   1.0000e-09
  Last MAX-Density change    ...    1.5289e-05  Tolerance :   1.0000e-08
  Last RMS-Density change    ...    1.5269e-07  Tolerance :   1.0000e-09
  Last DIIS Error            ...    5.4442e-08  Tolerance :   1.0000e-08

             **** THE GBW FILE WAS UPDATED (hcn_pbe.gbw) ****
             **** DENSITY FILE WAS UPDATED (hcn_pbe.scfp.tmp) ****
             **** ENERGY FILE WAS UPDATED (hcn_pbe.en.tmp) ****
----------------------
UHF SPIN CONTAMINATION
----------------------

Warning: in a DFT calculation there is little theoretical justification to 
         calculate <S**2> as in Hartree-Fock theory. We will do it anyways
         but you should keep in mind that the values have only limited relevance

Expectation value of <S**2>     :     0.000000
Ideal value S*(S+1) for S=0.0   :     0.000000
Deviation                       :     0.000000

----------------
ORBITAL ENERGIES
----------------
                 SPIN UP ORBITALS
  NO   OCC          E(Eh)            E(eV) 
   0   1.0000     -14.010082      -381.2337 
   1   1.0000      -9.940127      -270.4846 
   2   1.0000      -0.844928       -22.9917 
   3   1.0000      -0.557274       -15.1642 
   4   1.0000      -0.335958        -9.1419 
   5   1.0000      -0.331609        -9.0235 
   6   1.0000      -0.331609        -9.0235 
   7   0.0000      -0.041594        -1.1318 
   8   0.0000      -0.041594        -1.1318 
   9   0.0000      -0.013757        -0.3744 
  10   0.0000       0.005320         0.1448 
  11   0.0000       0.019444         0.5291 
  12   0.0000       0.019444         0.5291 
  13   0.0000       0.037882         1.0308 
  14   0.0000       0.041064         1.1174 
  15   0.0000       0.052264         1.4222 
  16   0.0000       0.056402         1.5348 
  17   0.0000       0.056402         1.5348 
  18   0.0000       0.081630         2.2213 
  19   0.0000       0.081630         2.2213 
  20   0.0000       0.084611         2.3024 
  21   0.0000       0.084611         2.3024 
  22   0.0000       0.106273         2.8918 
  23   0.0000       0.111279         3.0281 
  24   0.0000       0.114622         3.1190 
  25   0.0000       0.114622         3.1190 
  26   0.0000       0.136174         3.7055 
  27   0.0000       0.145571         3.9612 
  28   0.0000       0.162790         4.4297 
  29   0.0000       0.162790         4.4297 
  30   0.0000       0.166656         4.5350 
  31   0.0000       0.166656         4.5350 
  32   0.0000       0.184405         5.0179 
  33   0.0000       0.184405         5.0179 
  34   0.0000       0.187796         5.1102 
  35   0.0000       0.204076         5.5532 
  36   0.0000       0.204077         5.5532 
  37   0.0000       0.216912         5.9025 
  38   0.0000       0.216912         5.9025 
  39   0.0000       0.223908         6.0928 
  40   0.0000       0.223908         6.0928 
  41   0.0000       0.241139         6.5617 
  42   0.0000       0.249974         6.8021 
  43   0.0000       0.257139         6.9971 
  44   0.0000       0.257139         6.9971 
  45   0.0000       0.287460         7.8222 
  46   0.0000       0.298615         8.1257 
  47   0.0000       0.298616         8.1257 
  48   0.0000       0.301998         8.2178 
  49   0.0000       0.319001         8.6804 
  50   0.0000       0.337035         9.1712 
  51   0.0000       0.337035         9.1712 
  52   0.0000       0.342994         9.3333 
  53   0.0000       0.342994         9.3333 
  54   0.0000       0.346416         9.4265 
  55   0.0000       0.346416         9.4265 
  56   0.0000       0.346740         9.4353 
  57   0.0000       0.346740         9.4353 
  58   0.0000       0.382641        10.4122 
  59   0.0000       0.382641        10.4122 
  60   0.0000       0.395429        10.7602 
  61   0.0000       0.395576        10.7642 
  62   0.0000       0.395577        10.7642 
  63   0.0000       0.415497        11.3062 
  64   0.0000       0.415497        11.3062 
  65   0.0000       0.456587        12.4244 
  66   0.0000       0.456587        12.4244 
  67   0.0000       0.458025        12.4635 
  68   0.0000       0.458025        12.4635 
  69   0.0000       0.463853        12.6221 
  70   0.0000       0.463853        12.6221 
  71   0.0000       0.476967        12.9789 
  72   0.0000       0.484243        13.1769 
  73   0.0000       0.490221        13.3396 
  74   0.0000       0.490221        13.3396 
  75   0.0000       0.495772        13.4906 
  76   0.0000       0.495774        13.4907 
  77   0.0000       0.498006        13.5514 
  78   0.0000       0.518010        14.0958 
  79   0.0000       0.518010        14.0958 
  80   0.0000       0.519246        14.1294 
  81   0.0000       0.541143        14.7253 
  82   0.0000       0.541143        14.7253 
  83   0.0000       0.558141        15.1878 
  84   0.0000       0.558144        15.1879 
  85   0.0000       0.560016        15.2388 
  86   0.0000       0.560016        15.2388 
  87   0.0000       0.564604        15.3636 
  88   0.0000       0.564604        15.3636 
  89   0.0000       0.581498        15.8234 
  90   0.0000       0.614474        16.7207 
  91   0.0000       0.637238        17.3401 
  92   0.0000       0.637239        17.3401 
  93   0.0000       0.648271        17.6404 
  94   0.0000       0.648271        17.6404 
  95   0.0000       0.681156        18.5352 
  96   0.0000       0.681157        18.5352 
  97   0.0000       0.724091        19.7035 
  98   0.0000       0.730344        19.8737 
  99   0.0000       0.730346        19.8737 
 100   0.0000       0.746875        20.3235 
 101   0.0000       0.746875        20.3235 
 102   0.0000       0.784180        21.3386 
 103   0.0000       0.784180        21.3386 
 104   0.0000       0.787263        21.4225 
 105   0.0000       0.787263        21.4225 
 106   0.0000       0.788672        21.4609 
 107   0.0000       0.801113        21.7994 
 108   0.0000       0.833818        22.6893 
 109   0.0000       0.833818        22.6893 
 110   0.0000       0.834073        22.6963 
 111   0.0000       0.834076        22.6964 
 112   0.0000       0.844258        22.9734 
 113   0.0000       0.844260        22.9735 
 114   0.0000       0.856200        23.2984 
 115   0.0000       0.856200        23.2984 
 116   0.0000       0.869810        23.6687 
 117   0.0000       0.880047        23.9473 
 118   0.0000       0.880047        23.9473 
 119   0.0000       0.891930        24.2706 
 120   0.0000       0.891930        24.2706 
 121   0.0000       0.894173        24.3317 
 122   0.0000       0.896748        24.4018 
 123   0.0000       0.896752        24.4019 
 124   0.0000       0.928254        25.2591 
 125   0.0000       0.928254        25.2591 
 126   0.0000       0.939012        25.5518 
 127   0.0000       0.939012        25.5518 
 128   0.0000       0.940762        25.5994 
 129   0.0000       0.952541        25.9200 
 130   0.0000       0.952541        25.9200 
 131   0.0000       0.953408        25.9436 
 132   0.0000       0.953409        25.9436 
 133   0.0000       1.071400        29.1543 
 134   0.0000       1.071400        29.1543 
 135   0.0000       1.075139        29.2560 
 136   0.0000       1.094016        29.7697 
 137   0.0000       1.094016        29.7697 
 138   0.0000       1.114285        30.3212 
 139   0.0000       1.162951        31.6455 
 140   0.0000       1.162951        31.6455 
 141   0.0000       1.183179        32.1959 
 142   0.0000       1.214104        33.0374 
 143   0.0000       1.251338        34.0506 
 144   0.0000       1.251338        34.0506 
 145   0.0000       1.373594        37.3774 
 146   0.0000       1.373594        37.3774 
 147   0.0000       1.482200        40.3327 
 148   0.0000       1.483131        40.3580 
 149   0.0000       1.483131        40.3581 
 150   0.0000       1.566998        42.6402 
 151   0.0000       1.566998        42.6402 
 152   0.0000       1.572142        42.7801 
 153   0.0000       1.608276        43.7634 
 154   0.0000       1.614137        43.9229 
 155   0.0000       1.614137        43.9229 
 156   0.0000       1.695582        46.1391 
 157   0.0000       1.695582        46.1391 
 158   0.0000       1.749518        47.6068 
 159   0.0000       1.749518        47.6068 
 160   0.0000       1.780430        48.4480 
 161   0.0000       1.873343        50.9763 
 162   0.0000       1.873343        50.9763 
 163   0.0000       1.893323        51.5199 
 164   0.0000       1.893324        51.5200 
 165   0.0000       1.904073        51.8125 
 166   0.0000       2.020400        54.9779 
 167   0.0000       2.020400        54.9779 
 168   0.0000       2.084851        56.7317 
 169   0.0000       2.084851        56.7317 
 170   0.0000       2.125997        57.8513 
 171   0.0000       2.204527        59.9882 
 172   0.0000       2.204527        59.9882 
 173   0.0000       2.319934        63.1286 
 174   0.0000       2.374543        64.6146 
 175   0.0000       2.374543        64.6146 
 176   0.0000       2.418805        65.8190 
 177   0.0000       2.418808        65.8191 
 178   0.0000       2.450480        66.6809 
 179   0.0000       2.570634        69.9505 
 180   0.0000       2.770010        75.3758 
 181   0.0000       2.770010        75.3758 
 182   0.0000       2.887461        78.5718 
 183   0.0000       3.047905        82.9377 
 184   0.0000       3.058458        83.2249 
 185   0.0000       3.058458        83.2249 
 186   0.0000       3.102102        84.4125 
 187   0.0000       3.102102        84.4125 
 188   0.0000       3.140470        85.4565 
 189   0.0000       3.140471        85.4566 
 190   0.0000       3.393017        92.3287 
 191   0.0000       3.481573        94.7384 
 192   0.0000       3.481573        94.7384 
 193   0.0000       3.515322        95.6568 
 194   0.0000       3.515322        95.6568 
 195   0.0000       3.550691        96.6192 
 196   0.0000       3.605367        98.1070 
 197   0.0000       3.605367        98.1070 
 198   0.0000       3.887999       105.7978 
 199   0.0000       3.902898       106.2032 
 200   0.0000       3.902898       106.2032 
 201   0.0000       4.034020       109.7713 
 202   0.0000       4.034021       109.7713 
 203   0.0000       4.075324       110.8952 
 204   0.0000       4.081039       111.0507 
 205   0.0000       4.081041       111.0508 
 206   0.0000       4.122008       112.1656 
 207   0.0000       4.122008       112.1656 
 208   0.0000       4.203467       114.3821 
 209   0.0000       4.203467       114.3821 
 210   0.0000       4.237490       115.3080 
 211   0.0000       4.354961       118.5045 
 212   0.0000       4.354961       118.5045 
 213   0.0000       4.388267       119.4108 
 214   0.0000       4.388267       119.4108 
 215   0.0000       4.557836       124.0250 
 216   0.0000       4.557836       124.0250 
 217   0.0000       4.615593       125.5967 
 218   0.0000       4.628536       125.9489 
 219   0.0000       4.628536       125.9489 
 220   0.0000       4.700627       127.9106 
 221   0.0000       4.700628       127.9106 
 222   0.0000       4.766829       129.7120 
 223   0.0000       4.766829       129.7120 
 224   0.0000       4.908078       133.5556 
 225   0.0000       5.007285       136.2551 
 226   0.0000       5.041833       137.1952 
 227   0.0000       5.041833       137.1953 
 228   0.0000       5.076383       138.1354 
 229   0.0000       5.076384       138.1354 
 230   0.0000       5.634507       153.3227 
 231   0.0000       5.634507       153.3227 
 232   0.0000       5.728856       155.8901 
 233   0.0000       5.728856       155.8901 
 234   0.0000       5.764405       156.8574 
 235   0.0000       5.955437       162.0557 
 236   0.0000       5.955437       162.0557 
 237   0.0000       6.043278       164.4460 
 238   0.0000       6.289767       171.1533 
 239   0.0000       6.289767       171.1533 
 240   0.0000       6.501309       176.9096 
 241   0.0000       6.556504       178.4115 
 242   0.0000       6.556504       178.4115 
 243   0.0000       6.811442       185.3487 
 244   0.0000       6.811442       185.3488 
 245   0.0000       6.852856       186.4757 
 246   0.0000       6.852856       186.4757 
 247   0.0000       7.140405       194.3003 
 248   0.0000       7.266083       197.7202 
 249   0.0000       7.310164       198.9197 
 250   0.0000       7.310164       198.9197 
 251   0.0000       7.482695       203.6145 
 252   0.0000       7.482700       203.6146 
 253   0.0000       7.643503       207.9903 
 254   0.0000       8.122009       221.0111 
 255   0.0000       8.415473       228.9967 
 256   0.0000       8.584224       233.5886 
 257   0.0000       8.584224       233.5886 
 258   0.0000       8.793181       239.2746 
 259   0.0000       8.793182       239.2746 
 260   0.0000       8.845558       240.6999 
 261   0.0000       8.845558       240.6999 
 262   0.0000       9.447139       257.0697 
 263   0.0000       9.447139       257.0697 
 264   0.0000       9.463944       257.5270 
 265   0.0000       9.931428       270.2479 
 266   0.0000      10.025801       272.8159 
 267   0.0000      10.025801       272.8159 
 268   0.0000      10.148618       276.1579 
 269   0.0000      10.148619       276.1580 
 270   0.0000      10.343027       281.4481 
 271   0.0000      10.343027       281.4481 
 272   0.0000      10.373740       282.2838 
 273   0.0000      10.373740       282.2838 
 274   0.0000      10.457035       284.5504 
 275   0.0000      10.457035       284.5504 
 276   0.0000      10.472304       284.9659 
 277   0.0000      10.472306       284.9659 
 278   0.0000      10.732354       292.0422 
 279   0.0000      10.732354       292.0422 
 280   0.0000      10.851874       295.2945 
 281   0.0000      11.068319       301.1843 
 282   0.0000      11.178470       304.1816 
 283   0.0000      11.178470       304.1816 
 284   0.0000      11.179168       304.2006 
 285   0.0000      11.179169       304.2007 
 286   0.0000      11.398581       310.1712 
 287   0.0000      11.398581       310.1712 
 288   0.0000      11.497267       312.8565 
 289   0.0000      11.497269       312.8566 
 290   0.0000      11.685998       317.9922 
 291   0.0000      11.686002       317.9923 
 292   0.0000      11.714723       318.7738 
 293   0.0000      11.714724       318.7738 
 294   0.0000      11.721382       318.9550 
 295   0.0000      11.721382       318.9550 
 296   0.0000      11.756315       319.9056 
 297   0.0000      11.762522       320.0745 
 298   0.0000      11.762522       320.0745 
 299   0.0000      11.810405       321.3774 
 300   0.0000      11.810408       321.3775 
 301   0.0000      11.874872       323.1317 
 302   0.0000      12.005779       326.6939 
 303   0.0000      12.005779       326.6939 
 304   0.0000      12.055806       328.0552 
 305   0.0000      12.055810       328.0553 
 306   0.0000      12.309358       334.9547 
 307   0.0000      12.309358       334.9547 
 308   0.0000      12.453590       338.8794 
 309   0.0000      13.118767       356.9798 
 310   0.0000      13.118767       356.9798 
 311   0.0000      13.196317       359.0901 
 312   0.0000      13.196317       359.0901 
 313   0.0000      13.326590       362.6350 
 314   0.0000      13.662230       371.7682 
 315   0.0000      13.662232       371.7682 
 316   0.0000      13.725071       373.4782 
 317   0.0000      13.725071       373.4782 
 318   0.0000      14.090806       383.4303 
 319   0.0000      14.266539       388.2123 
 320   0.0000      14.266541       388.2123 
 321   0.0000      14.546048       395.8181 
 322   0.0000      14.546048       395.8181 
 323   0.0000      15.236488       414.6059 
 324   0.0000      15.236495       414.6061 
 325   0.0000      15.281132       415.8207 
 326   0.0000      15.281132       415.8207 
 327   0.0000      15.284369       415.9088 
 328   0.0000      15.700943       427.2444 
 329   0.0000      15.700945       427.2444 
 330   0.0000      16.047861       436.6845 
 331   0.0000      16.209104       441.0721 
 332   0.0000      16.209104       441.0721 
 333   0.0000      16.492141       448.7740 
 334   0.0000      16.659909       453.3392 
 335   0.0000      16.659931       453.3398 
 336   0.0000      16.966719       461.6879 
 337   0.0000      16.966727       461.6881 
 338   0.0000      17.004916       462.7273 
 339   0.0000      17.004916       462.7273 
 340   0.0000      17.135289       466.2749 
 341   0.0000      17.135289       466.2749 
 342   0.0000      17.575885       478.2641 
 343   0.0000      18.164000       494.2676 
 344   0.0000      18.164000       494.2676 
 345   0.0000      18.241266       496.3701 
 346   0.0000      19.026864       517.7473 
 347   0.0000      19.026873       517.7475 
 348   0.0000      19.548318       531.9368 
 349   0.0000      19.548318       531.9368 
 350   0.0000      19.678453       535.4779 
 351   0.0000      20.605349       560.7001 
 352   0.0000      21.155411       575.6680 
 353   0.0000      21.155411       575.6680 
 354   0.0000      23.314206       634.4118 
 355   0.0000      23.782043       647.1423 
 356   0.0000      23.782043       647.1423 
 357   0.0000      24.855775       676.3600 
 358   0.0000      26.115348       710.6347 
 359   0.0000      26.305909       715.8202 
 360   0.0000      26.305909       715.8202 
 361   0.0000      28.366502       771.8918 
 362   0.0000      31.894122       867.8832 
 363   0.0000      31.894144       867.8838 
 364   0.0000      33.174718       902.7300 
 365   0.0000      33.174718       902.7300 
 366   0.0000      35.461587       964.9588 
 367   0.0000      41.359312      1125.4441 
 368   0.0000      47.721957      1298.5805 
 369   0.0000      47.722000      1298.5816 
 370   0.0000      48.134059      1309.7943 
 371   0.0000      48.134059      1309.7943 
 372   0.0000      49.042020      1334.5012 
 373   0.0000      76.753654      2088.5731 
 374   0.0000      91.185278      2481.2776 
 375   0.0000      91.185278      2481.2776 
 376   0.0000      92.486586      2516.6879 
 377   0.0000     105.404239      2868.1952 

                 SPIN DOWN ORBITALS
  NO   OCC          E(Eh)            E(eV) 
   0   1.0000     -14.010082      -381.2337 
   1   1.0000      -9.940127      -270.4846 
   2   1.0000      -0.844928       -22.9917 
   3   1.0000      -0.557274       -15.1642 
   4   1.0000      -0.335958        -9.1419 
   5   1.0000      -0.331609        -9.0235 
   6   1.0000      -0.331609        -9.0235 
   7   0.0000      -0.041594        -1.1318 
   8   0.0000      -0.041594        -1.1318 
   9   0.0000      -0.013757        -0.3744 
  10   0.0000       0.005320         0.1448 
  11   0.0000       0.019444         0.5291 
  12   0.0000       0.019444         0.5291 
  13   0.0000       0.037882         1.0308 
  14   0.0000       0.041064         1.1174 
  15   0.0000       0.052264         1.4222 
  16   0.0000       0.056402         1.5348 
  17   0.0000       0.056402         1.5348 
  18   0.0000       0.081630         2.2213 
  19   0.0000       0.081630         2.2213 
  20   0.0000       0.084611         2.3024 
  21   0.0000       0.084611         2.3024 
  22   0.0000       0.106273         2.8918 
  23   0.0000       0.111279         3.0281 
  24   0.0000       0.114622         3.1190 
  25   0.0000       0.114622         3.1190 
  26   0.0000       0.136174         3.7055 
  27   0.0000       0.145571         3.9612 
  28   0.0000       0.162790         4.4297 
  29   0.0000       0.162790         4.4297 
  30   0.0000       0.166656         4.5350 
  31   0.0000       0.166656         4.5350 
  32   0.0000       0.184405         5.0179 
  33   0.0000       0.184405         5.0179 
  34   0.0000       0.187796         5.1102 
  35   0.0000       0.204076         5.5532 
  36   0.0000       0.204077         5.5532 
  37   0.0000       0.216912         5.9025 
  38   0.0000       0.216912         5.9025 
  39   0.0000       0.223908         6.0928 
  40   0.0000       0.223908         6.0928 
  41   0.0000       0.241139         6.5617 
  42   0.0000       0.249974         6.8021 
  43   0.0000       0.257139         6.9971 
  44   0.0000       0.257139         6.9971 
  45   0.0000       0.287460         7.8222 
  46   0.0000       0.298615         8.1257 
  47   0.0000       0.298616         8.1257 
  48   0.0000       0.301998         8.2178 
  49   0.0000       0.319001         8.6804 
  50   0.0000       0.337035         9.1712 
  51   0.0000       0.337035         9.1712 
  52   0.0000       0.342994         9.3333 
  53   0.0000       0.342994         9.3333 
  54   0.0000       0.346416         9.4265 
  55   0.0000       0.346416         9.4265 
  56   0.0000       0.346740         9.4353 
  57   0.0000       0.346740         9.4353 
  58   0.0000       0.382641        10.4122 
  59   0.0000       0.382641        10.4122 
  60   0.0000       0.395429        10.7602 
  61   0.0000       0.395576        10.7642 
  62   0.0000       0.395577        10.7642 
  63   0.0000       0.415497        11.3062 
  64   0.0000       0.415497        11.3062 
  65   0.0000       0.456587        12.4244 
  66   0.0000       0.456587        12.4244 
  67   0.0000       0.458025        12.4635 
  68   0.0000       0.458025        12.4635 
  69   0.0000       0.463853        12.6221 
  70   0.0000       0.463853        12.6221 
  71   0.0000       0.476967        12.9789 
  72   0.0000       0.484243        13.1769 
  73   0.0000       0.490221        13.3396 
  74   0.0000       0.490221        13.3396 
  75   0.0000       0.495772        13.4906 
  76   0.0000       0.495774        13.4907 
  77   0.0000       0.498006        13.5514 
  78   0.0000       0.518010        14.0958 
  79   0.0000       0.518010        14.0958 
  80   0.0000       0.519246        14.1294 
  81   0.0000       0.541143        14.7253 
  82   0.0000       0.541143        14.7253 
  83   0.0000       0.558141        15.1878 
  84   0.0000       0.558144        15.1879 
  85   0.0000       0.560016        15.2388 
  86   0.0000       0.560016        15.2388 
  87   0.0000       0.564604        15.3636 
  88   0.0000       0.564604        15.3636 
  89   0.0000       0.581498        15.8234 
  90   0.0000       0.614474        16.7207 
  91   0.0000       0.637238        17.3401 
  92   0.0000       0.637239        17.3401 
  93   0.0000       0.648271        17.6404 
  94   0.0000       0.648271        17.6404 
  95   0.0000       0.681156        18.5352 
  96   0.0000       0.681157        18.5352 
  97   0.0000       0.724091        19.7035 
  98   0.0000       0.730344        19.8737 
  99   0.0000       0.730346        19.8737 
 100   0.0000       0.746875        20.3235 
 101   0.0000       0.746875        20.3235 
 102   0.0000       0.784180        21.3386 
 103   0.0000       0.784180        21.3386 
 104   0.0000       0.787263        21.4225 
 105   0.0000       0.787263        21.4225 
 106   0.0000       0.788672        21.4609 
 107   0.0000       0.801113        21.7994 
 108   0.0000       0.833818        22.6893 
 109   0.0000       0.833818        22.6893 
 110   0.0000       0.834073        22.6963 
 111   0.0000       0.834076        22.6964 
 112   0.0000       0.844258        22.9734 
 113   0.0000       0.844260        22.9735 
 114   0.0000       0.856200        23.2984 
 115   0.0000       0.856200        23.2984 
 116   0.0000       0.869810        23.6687 
 117   0.0000       0.880047        23.9473 
 118   0.0000       0.880047        23.9473 
 119   0.0000       0.891930        24.2706 
 120   0.0000       0.891930        24.2706 
 121   0.0000       0.894173        24.3317 
 122   0.0000       0.896748        24.4018 
 123   0.0000       0.896752        24.4019 
 124   0.0000       0.928254        25.2591 
 125   0.0000       0.928254        25.2591 
 126   0.0000       0.939012        25.5518 
 127   0.0000       0.939012        25.5518 
 128   0.0000       0.940762        25.5994 
 129   0.0000       0.952541        25.9200 
 130   0.0000       0.952541        25.9200 
 131   0.0000       0.953408        25.9436 
 132   0.0000       0.953409        25.9436 
 133   0.0000       1.071400        29.1543 
 134   0.0000       1.071400        29.1543 
 135   0.0000       1.075139        29.2560 
 136   0.0000       1.094016        29.7697 
 137   0.0000       1.094016        29.7697 
 138   0.0000       1.114285        30.3212 
 139   0.0000       1.162951        31.6455 
 140   0.0000       1.162951        31.6455 
 141   0.0000       1.183179        32.1959 
 142   0.0000       1.214104        33.0374 
 143   0.0000       1.251338        34.0506 
 144   0.0000       1.251338        34.0506 
 145   0.0000       1.373594        37.3774 
 146   0.0000       1.373594        37.3774 
 147   0.0000       1.482200        40.3327 
 148   0.0000       1.483131        40.3580 
 149   0.0000       1.483131        40.3581 
 150   0.0000       1.566998        42.6402 
 151   0.0000       1.566998        42.6402 
 152   0.0000       1.572142        42.7801 
 153   0.0000       1.608276        43.7634 
 154   0.0000       1.614137        43.9229 
 155   0.0000       1.614137        43.9229 
 156   0.0000       1.695582        46.1391 
 157   0.0000       1.695582        46.1391 
 158   0.0000       1.749518        47.6068 
 159   0.0000       1.749518        47.6068 
 160   0.0000       1.780430        48.4480 
 161   0.0000       1.873343        50.9763 
 162   0.0000       1.873343        50.9763 
 163   0.0000       1.893323        51.5199 
 164   0.0000       1.893324        51.5200 
 165   0.0000       1.904073        51.8125 
 166   0.0000       2.020400        54.9779 
 167   0.0000       2.020400        54.9779 
 168   0.0000       2.084851        56.7317 
 169   0.0000       2.084851        56.7317 
 170   0.0000       2.125997        57.8513 
 171   0.0000       2.204527        59.9882 
 172   0.0000       2.204527        59.9882 
 173   0.0000       2.319934        63.1286 
 174   0.0000       2.374543        64.6146 
 175   0.0000       2.374543        64.6146 
 176   0.0000       2.418805        65.8190 
 177   0.0000       2.418808        65.8191 
 178   0.0000       2.450480        66.6809 
 179   0.0000       2.570634        69.9505 
 180   0.0000       2.770010        75.3758 
 181   0.0000       2.770010        75.3758 
 182   0.0000       2.887461        78.5718 
 183   0.0000       3.047905        82.9377 
 184   0.0000       3.058458        83.2249 
 185   0.0000       3.058458        83.2249 
 186   0.0000       3.102102        84.4125 
 187   0.0000       3.102102        84.4125 
 188   0.0000       3.140470        85.4565 
 189   0.0000       3.140471        85.4566 
 190   0.0000       3.393017        92.3287 
 191   0.0000       3.481573        94.7384 
 192   0.0000       3.481573        94.7384 
 193   0.0000       3.515322        95.6568 
 194   0.0000       3.515322        95.6568 
 195   0.0000       3.550691        96.6192 
 196   0.0000       3.605367        98.1070 
 197   0.0000       3.605367        98.1070 
 198   0.0000       3.887999       105.7978 
 199   0.0000       3.902898       106.2032 
 200   0.0000       3.902898       106.2032 
 201   0.0000       4.034020       109.7713 
 202   0.0000       4.034021       109.7713 
 203   0.0000       4.075324       110.8952 
 204   0.0000       4.081039       111.0507 
 205   0.0000       4.081041       111.0508 
 206   0.0000       4.122008       112.1656 
 207   0.0000       4.122008       112.1656 
 208   0.0000       4.203467       114.3821 
 209   0.0000       4.203467       114.3821 
 210   0.0000       4.237490       115.3080 
 211   0.0000       4.354961       118.5045 
 212   0.0000       4.354961       118.5045 
 213   0.0000       4.388267       119.4108 
 214   0.0000       4.388267       119.4108 
 215   0.0000       4.557836       124.0250 
 216   0.0000       4.557836       124.0250 
 217   0.0000       4.615593       125.5967 
 218   0.0000       4.628536       125.9489 
 219   0.0000       4.628536       125.9489 
 220   0.0000       4.700627       127.9106 
 221   0.0000       4.700628       127.9106 
 222   0.0000       4.766829       129.7120 
 223   0.0000       4.766829       129.7120 
 224   0.0000       4.908078       133.5556 
 225   0.0000       5.007285       136.2551 
 226   0.0000       5.041833       137.1952 
 227   0.0000       5.041833       137.1953 
 228   0.0000       5.076383       138.1354 
 229   0.0000       5.076384       138.1354 
 230   0.0000       5.634507       153.3227 
 231   0.0000       5.634507       153.3227 
 232   0.0000       5.728856       155.8901 
 233   0.0000       5.728856       155.8901 
 234   0.0000       5.764405       156.8574 
 235   0.0000       5.955437       162.0557 
 236   0.0000       5.955437       162.0557 
 237   0.0000       6.043278       164.4460 
 238   0.0000       6.289767       171.1533 
 239   0.0000       6.289767       171.1533 
 240   0.0000       6.501309       176.9096 
 241   0.0000       6.556504       178.4115 
 242   0.0000       6.556504       178.4115 
 243   0.0000       6.811442       185.3487 
 244   0.0000       6.811442       185.3488 
 245   0.0000       6.852856       186.4757 
 246   0.0000       6.852856       186.4757 
 247   0.0000       7.140405       194.3003 
 248   0.0000       7.266083       197.7202 
 249   0.0000       7.310164       198.9197 
 250   0.0000       7.310164       198.9197 
 251   0.0000       7.482695       203.6145 
 252   0.0000       7.482700       203.6146 
 253   0.0000       7.643503       207.9903 
 254   0.0000       8.122009       221.0111 
 255   0.0000       8.415473       228.9967 
 256   0.0000       8.584224       233.5886 
 257   0.0000       8.584224       233.5886 
 258   0.0000       8.793181       239.2746 
 259   0.0000       8.793182       239.2746 
 260   0.0000       8.845558       240.6999 
 261   0.0000       8.845558       240.6999 
 262   0.0000       9.447139       257.0697 
 263   0.0000       9.447139       257.0697 
 264   0.0000       9.463944       257.5270 
 265   0.0000       9.931428       270.2479 
 266   0.0000      10.025801       272.8159 
 267   0.0000      10.025801       272.8159 
 268   0.0000      10.148618       276.1579 
 269   0.0000      10.148619       276.1580 
 270   0.0000      10.343027       281.4481 
 271   0.0000      10.343027       281.4481 
 272   0.0000      10.373740       282.2838 
 273   0.0000      10.373740       282.2838 
 274   0.0000      10.457035       284.5504 
 275   0.0000      10.457035       284.5504 
 276   0.0000      10.472304       284.9659 
 277   0.0000      10.472306       284.9659 
 278   0.0000      10.732354       292.0422 
 279   0.0000      10.732354       292.0422 
 280   0.0000      10.851874       295.2945 
 281   0.0000      11.068319       301.1843 
 282   0.0000      11.178470       304.1816 
 283   0.0000      11.178470       304.1816 
 284   0.0000      11.179168       304.2006 
 285   0.0000      11.179169       304.2007 
 286   0.0000      11.398581       310.1712 
 287   0.0000      11.398581       310.1712 
 288   0.0000      11.497267       312.8565 
 289   0.0000      11.497269       312.8566 
 290   0.0000      11.685998       317.9922 
 291   0.0000      11.686002       317.9923 
 292   0.0000      11.714723       318.7738 
 293   0.0000      11.714724       318.7738 
 294   0.0000      11.721382       318.9550 
 295   0.0000      11.721382       318.9550 
 296   0.0000      11.756315       319.9056 
 297   0.0000      11.762522       320.0745 
 298   0.0000      11.762522       320.0745 
 299   0.0000      11.810405       321.3774 
 300   0.0000      11.810408       321.3775 
 301   0.0000      11.874872       323.1317 
 302   0.0000      12.005779       326.6939 
 303   0.0000      12.005779       326.6939 
 304   0.0000      12.055806       328.0552 
 305   0.0000      12.055810       328.0553 
 306   0.0000      12.309358       334.9547 
 307   0.0000      12.309358       334.9547 
 308   0.0000      12.453590       338.8794 
 309   0.0000      13.118767       356.9798 
 310   0.0000      13.118767       356.9798 
 311   0.0000      13.196317       359.0901 
 312   0.0000      13.196317       359.0901 
 313   0.0000      13.326590       362.6350 
 314   0.0000      13.662230       371.7682 
 315   0.0000      13.662232       371.7682 
 316   0.0000      13.725071       373.4782 
 317   0.0000      13.725071       373.4782 
 318   0.0000      14.090806       383.4303 
 319   0.0000      14.266539       388.2123 
 320   0.0000      14.266541       388.2123 
 321   0.0000      14.546048       395.8181 
 322   0.0000      14.546048       395.8181 
 323   0.0000      15.236488       414.6059 
 324   0.0000      15.236495       414.6061 
 325   0.0000      15.281132       415.8207 
 326   0.0000      15.281132       415.8207 
 327   0.0000      15.284369       415.9088 
 328   0.0000      15.700943       427.2444 
 329   0.0000      15.700945       427.2444 
 330   0.0000      16.047861       436.6845 
 331   0.0000      16.209104       441.0721 
 332   0.0000      16.209104       441.0721 
 333   0.0000      16.492141       448.7740 
 334   0.0000      16.659909       453.3392 
 335   0.0000      16.659931       453.3398 
 336   0.0000      16.966719       461.6879 
 337   0.0000      16.966727       461.6881 
 338   0.0000      17.004916       462.7273 
 339   0.0000      17.004916       462.7273 
 340   0.0000      17.135289       466.2749 
 341   0.0000      17.135289       466.2749 
 342   0.0000      17.575885       478.2641 
 343   0.0000      18.164000       494.2676 
 344   0.0000      18.164000       494.2676 
 345   0.0000      18.241266       496.3701 
 346   0.0000      19.026864       517.7473 
 347   0.0000      19.026873       517.7475 
 348   0.0000      19.548318       531.9368 
 349   0.0000      19.548318       531.9368 
 350   0.0000      19.678453       535.4779 
 351   0.0000      20.605349       560.7001 
 352   0.0000      21.155411       575.6680 
 353   0.0000      21.155411       575.6680 
 354   0.0000      23.314206       634.4118 
 355   0.0000      23.782043       647.1423 
 356   0.0000      23.782043       647.1423 
 357   0.0000      24.855775       676.3600 
 358   0.0000      26.115348       710.6347 
 359   0.0000      26.305909       715.8202 
 360   0.0000      26.305909       715.8202 
 361   0.0000      28.366502       771.8918 
 362   0.0000      31.894122       867.8832 
 363   0.0000      31.894144       867.8838 
 364   0.0000      33.174718       902.7300 
 365   0.0000      33.174718       902.7300 
 366   0.0000      35.461587       964.9588 
 367   0.0000      41.359312      1125.4441 
 368   0.0000      47.721957      1298.5805 
 369   0.0000      47.722000      1298.5816 
 370   0.0000      48.134059      1309.7943 
 371   0.0000      48.134059      1309.7943 
 372   0.0000      49.042020      1334.5012 
 373   0.0000      76.753654      2088.5731 
 374   0.0000      91.185278      2481.2776 
 375   0.0000      91.185278      2481.2776 
 376   0.0000      92.486586      2516.6879 
 377   0.0000     105.404239      2868.1952 

                    ********************************
                    * MULLIKEN POPULATION ANALYSIS *
                    ********************************

--------------------------------------------
MULLIKEN ATOMIC CHARGES AND SPIN POPULATIONS
--------------------------------------------
   0 C :   -0.105037   -0.000000
   1 H :    0.091409   -0.000000
   2 N :    0.013629    0.000000
Sum of atomic charges         :    0.0000000
Sum of atomic spin populations:    0.0000000

-----------------------------------------------------
MULLIKEN REDUCED ORBITAL CHARGES AND SPIN POPULATIONS
-----------------------------------------------------
CHARGE
  0 C s       :     3.190758  s :     3.190758
      pz      :     1.049258  p :     2.830494
      px      :     0.890618
      py      :     0.890618
      dz2     :     0.030158  d :     0.071130
      dxz     :     0.020486
      dyz     :     0.020486
      dx2y2   :     0.000000
      dxy     :     0.000000
      f0      :     0.005199  f :     0.011413
      f+1     :     0.003107
      f-1     :     0.003107
      f+2     :    -0.000000
      f-2     :    -0.000000
      f+3     :     0.000000
      f-3     :     0.000000
      g0      :     0.000093  g :     0.001228
      g+1     :     0.000567
      g-1     :     0.000567
      g+2     :     0.000000
      g-2     :    -0.000000
      g+3     :    -0.000000
      g-3     :    -0.000000
      g+4     :     0.000000
      g-4     :     0.000000
      h0      :     0.000030  h :     0.000014
      h+1     :    -0.000008
      h-1     :    -0.000008
      h+2     :    -0.000000
      h-2     :     0.000000
      h+3     :     0.000000
      h-3     :     0.000000
      h+4     :     0.000000
      h-4     :     0.000000
      h+5     :     0.000000
      h-5     :     0.000000
  1 H s       :     0.842347  s :     0.842347
      pz      :     0.037667  p :     0.065645
      px      :     0.013989
      py      :     0.013989
      dz2     :     0.007303  d :     0.000010
      dxz     :    -0.003646
      dyz     :    -0.003646
      dx2y2   :     0.000000
      dxy     :     0.000000
      f0      :     0.001325  f :     0.000552
      f+1     :    -0.000386
      f-1     :    -0.000386
      f+2     :    -0.000000
      f-2     :    -0.000000
      f+3     :     0.000000
      f-3     :     0.000000
      g0      :     0.000079  g :     0.000037
      g+1     :    -0.000021
      g-1     :    -0.000021
      g+2     :    -0.000000
      g-2     :     0.000000
      g+3     :     0.000000
      g-3     :     0.000000
      g+4     :    -0.000000
      g-4     :    -0.000000
  2 N s       :     3.684335  s :     3.684335
      pz      :     1.145714  p :     3.240710
      px      :     1.047498
      py      :     1.047498
      dz2     :     0.006005  d :     0.055152
      dxz     :     0.024574
      dyz     :     0.024574
      dx2y2   :     0.000000
      dxy     :     0.000000
      f0      :    -0.000080  f :     0.005727
      f+1     :     0.002903
      f-1     :     0.002903
      f+2     :    -0.000000
      f-2     :    -0.000000
      f+3     :     0.000000
      f-3     :     0.000000
      g0      :    -0.000176  g :     0.000448
      g+1     :     0.000312
      g-1     :     0.000312
      g+2     :     0.000000
      g-2     :    -0.000000
      g+3     :    -0.000000
      g-3     :    -0.000000
      g+4     :     0.000000
      g-4     :    -0.000000
      h0      :    -0.000013  h :    -0.000001
      h+1     :     0.000006
      h-1     :     0.000006
      h+2     :     0.000000
      h-2     :     0.000000
      h+3     :     0.000000
      h-3     :     0.000000
      h+4     :     0.000000
      h-4     :     0.000000
      h+5     :     0.000000
      h-5     :     0.000000

SPIN
  0 C s       :    -0.000000  s :    -0.000000
      pz      :    -0.000000  p :    -0.000000
      px      :    -0.000000
      py      :     0.000000
      dz2     :    -0.000000  d :    -0.000000
      dxz     :    -0.000000
      dyz     :     0.000000
      dx2y2   :     0.000000
      dxy     :    -0.000000
      f0      :    -0.000000  f :    -0.000000
      f+1     :     0.000000
      f-1     :     0.000000
      f+2     :    -0.000000
      f-2     :     0.000000
      f+3     :     0.000000
      f-3     :    -0.000000
      g0      :    -0.000000  g :    -0.000000
      g+1     :    -0.000000
      g-1     :     0.000000
      g+2     :    -0.000000
      g-2     :     0.000000
      g+3     :    -0.000000
      g-3     :     0.000000
      g+4     :     0.000000
      g-4     :    -0.000000
      h0      :    -0.000000  h :    -0.000000
      h+1     :    -0.000000
      h-1     :     0.000000
      h+2     :    -0.000000
      h-2     :    -0.000000
      h+3     :    -0.000000
      h-3     :     0.000000
      h+4     :     0.000000
      h-4     :    -0.000000
      h+5     :    -0.000000
      h-5     :    -0.000000
  1 H s       :    -0.000000  s :    -0.000000
      pz      :    -0.000000  p :    -0.000000
      px      :    -0.000000
      py      :    -0.000000
      dz2     :    -0.000000  d :    -0.000000
      dxz     :     0.000000
      dyz     :    -0.000000
      dx2y2   :     0.000000
      dxy     :     0.000000
      f0      :    -0.000000  f :    -0.000000
      f+1     :     0.000000
      f-1     :     0.000000
      f+2     :     0.000000
      f-2     :     0.000000
      f+3     :    -0.000000
      f-3     :     0.000000
      g0      :    -0.000000  g :    -0.000000
      g+1     :     0.000000
      g-1     :     0.000000
      g+2     :    -0.000000
      g-2     :     0.000000
      g+3     :    -0.000000
      g-3     :     0.000000
      g+4     :     0.000000
      g-4     :     0.000000
  2 N s       :     0.000000  s :     0.000000
      pz      :    -0.000000  p :    -0.000000
      px      :     0.000000
      py      :    -0.000000
      dz2     :    -0.000000  d :    -0.000000
      dxz     :     0.000000
      dyz     :     0.000000
      dx2y2   :    -0.000000
      dxy     :    -0.000000
      f0      :    -0.000000  f :    -0.000000
      f+1     :     0.000000
      f-1     :     0.000000
      f+2     :     0.000000
      f-2     :     0.000000
      f+3     :     0.000000
      f-3     :    -0.000000
      g0      :    -0.000000  g :    -0.000000
      g+1     :     0.000000
      g-1     :     0.000000
      g+2     :     0.000000
      g-2     :     0.000000
      g+3     :     0.000000
      g-3     :    -0.000000
      g+4     :    -0.000000
      g-4     :     0.000000
      h0      :     0.000000  h :     0.000000
      h+1     :    -0.000000
      h-1     :     0.000000
      h+2     :     0.000000
      h-2     :    -0.000000
      h+3     :     0.000000
      h-3     :    -0.000000
      h+4     :     0.000000
      h-4     :    -0.000000
      h+5     :     0.000000
      h-5     :     0.000000


                     *******************************
                     * LOEWDIN POPULATION ANALYSIS *
                     *******************************

-------------------------------------------
LOEWDIN ATOMIC CHARGES AND SPIN POPULATIONS
-------------------------------------------
   0 C :    0.275970   -0.000000
   1 H :   -0.535940   -0.000000
   2 N :    0.259969    0.000000

----------------------------------------------------
LOEWDIN REDUCED ORBITAL CHARGES AND SPIN POPULATIONS
----------------------------------------------------
CHARGE
  0 C s       :     2.698108  s :     2.698108
      pz      :     1.119062  p :     2.479721
      px      :     0.680330
      py      :     0.680330
      dz2     :     0.220982  d :     0.383555
      dxz     :     0.081287
      dyz     :     0.081287
      dx2y2   :     0.000000
      dxy     :     0.000000
      f0      :     0.053797  f :     0.120998
      f+1     :     0.033601
      f-1     :     0.033601
      f+2     :     0.000000
      f-2     :     0.000000
      f+3     :     0.000000
      f-3     :     0.000000
      g0      :     0.012971  g :     0.034835
      g+1     :     0.010932
      g-1     :     0.010932
      g+2     :     0.000000
      g-2     :     0.000000
      g+3     :     0.000000
      g-3     :     0.000000
      g+4     :     0.000000
      g-4     :     0.000000
      h0      :     0.002692  h :     0.006813
      h+1     :     0.002061
      h-1     :     0.002061
      h+2     :     0.000000
      h-2     :     0.000000
      h+3     :     0.000000
      h-3     :     0.000000
      h+4     :     0.000000
      h-4     :     0.000000
      h+5     :     0.000000
      h-5     :     0.000000
  1 H s       :     0.749818  s :     0.749818
      pz      :     0.182010  p :     0.323901
      px      :     0.070945
      py      :     0.070945
      dz2     :     0.096273  d :     0.249793
      dxz     :     0.076760
      dyz     :     0.076760
      dx2y2   :     0.000000
      dxy     :     0.000000
      f0      :     0.057932  f :     0.132976
      f+1     :     0.037522
      f-1     :     0.037522
      f+2     :     0.000000
      f-2     :     0.000000
      f+3     :     0.000000
      f-3     :     0.000000
      g0      :     0.035772  g :     0.079453
      g+1     :     0.021840
      g-1     :     0.021840
      g+2     :     0.000000
      g-2     :     0.000000
      g+3     :     0.000000
      g-3     :     0.000000
      g+4     :     0.000000
      g-4     :     0.000000
  2 N s       :     3.094170  s :     3.094170
      pz      :     1.454376  p :     3.226539
      px      :     0.886082
      py      :     0.886082
      dz2     :     0.134584  d :     0.261549
      dxz     :     0.063482
      dyz     :     0.063482
      dx2y2   :     0.000000
      dxy     :     0.000000
      f0      :     0.052512  f :     0.106894
      f+1     :     0.027191
      f-1     :     0.027191
      f+2     :     0.000000
      f-2     :     0.000000
      f+3     :     0.000000
      f-3     :     0.000000
      g0      :     0.025576  g :     0.039452
      g+1     :     0.006938
      g-1     :     0.006938
      g+2     :     0.000000
      g-2     :     0.000000
      g+3     :     0.000000
      g-3     :     0.000000
      g+4     :     0.000000
      g-4     :     0.000000
      h0      :     0.009366  h :     0.011426
      h+1     :     0.001030
      h-1     :     0.001030
      h+2     :     0.000000
      h-2     :     0.000000
      h+3     :     0.000000
      h-3     :     0.000000
      h+4     :     0.000000
      h-4     :     0.000000
      h+5     :     0.000000
      h-5     :     0.000000

SPIN
  0 C s       :     0.000000  s :     0.000000
      pz      :    -0.000000  p :    -0.000000
      px      :    -0.000000
      py      :     0.000000
      dz2     :    -0.000000  d :    -0.000000
      dxz     :    -0.000000
      dyz     :    -0.000000
      dx2y2   :     0.000000
      dxy     :    -0.000000
      f0      :    -0.000000  f :    -0.000000
      f+1     :    -0.000000
      f-1     :     0.000000
      f+2     :    -0.000000
      f-2     :     0.000000
      f+3     :    -0.000000
      f-3     :    -0.000000
      g0      :    -0.000000  g :    -0.000000
      g+1     :     0.000000
      g-1     :     0.000000
      g+2     :    -0.000000
      g-2     :    -0.000000
      g+3     :     0.000000
      g-3     :     0.000000
      g+4     :     0.000000
      g-4     :    -0.000000
      h0      :    -0.000000  h :    -0.000000
      h+1     :     0.000000
      h-1     :     0.000000
      h+2     :    -0.000000
      h-2     :    -0.000000
      h+3     :    -0.000000
      h-3     :     0.000000
      h+4     :     0.000000
      h-4     :    -0.000000
      h+5     :    -0.000000
      h-5     :    -0.000000
  1 H s       :    -0.000000  s :    -0.000000
      pz      :    -0.000000  p :    -0.000000
      px      :    -0.000000
      py      :    -0.000000
      dz2     :     0.000000  d :     0.000000
      dxz     :     0.000000
      dyz     :    -0.000000
      dx2y2   :     0.000000
      dxy     :     0.000000
      f0      :    -0.000000  f :    -0.000000
      f+1     :    -0.000000
      f-1     :     0.000000
      f+2     :     0.000000
      f-2     :     0.000000
      f+3     :    -0.000000
      f-3     :     0.000000
      g0      :     0.000000  g :     0.000000
      g+1     :     0.000000
      g-1     :     0.000000
      g+2     :     0.000000
      g-2     :     0.000000
      g+3     :    -0.000000
      g-3     :     0.000000
      g+4     :     0.000000
      g-4     :    -0.000000
  2 N s       :     0.000000  s :     0.000000
      pz      :    -0.000000  p :    -0.000000
      px      :     0.000000
      py      :    -0.000000
      dz2     :     0.000000  d :     0.000000
      dxz     :     0.000000
      dyz     :    -0.000000
      dx2y2   :    -0.000000
      dxy     :    -0.000000
      f0      :    -0.000000  f :    -0.000000
      f+1     :    -0.000000
      f-1     :     0.000000
      f+2     :    -0.000000
      f-2     :     0.000000
      f+3     :     0.000000
      f-3     :    -0.000000
      g0      :     0.000000  g :     0.000000
      g+1     :     0.000000
      g-1     :     0.000000
      g+2     :     0.000000
      g-2     :    -0.000000
      g+3     :     0.000000
      g-3     :    -0.000000
      g+4     :    -0.000000
      g-4     :    -0.000000
      h0      :    -0.000000  h :    -0.000000
      h+1     :    -0.000000
      h-1     :     0.000000
      h+2     :    -0.000000
      h-2     :     0.000000
      h+3     :    -0.000000
      h-3     :    -0.000000
      h+4     :     0.000000
      h-4     :    -0.000000
      h+5     :     0.000000
      h-5     :     0.000000


                      *****************************
                      * MAYER POPULATION ANALYSIS *
                      *****************************

  NA   - Mulliken gross atomic population
  ZA   - Total nuclear charge
  QA   - Mulliken gross atomic charge
  VA   - Mayer's total valence
  BVA  - Mayer's bonded valence
  FA   - Mayer's free valence

  ATOM       NA         ZA         QA         VA         BVA        FA
  0 C      6.1050     6.0000    -0.1050     3.8705     3.8705     0.0000
  1 H      0.9086     1.0000     0.0914     1.1065     1.1065     0.0000
  2 N      6.9864     7.0000     0.0136     3.0266     3.0266     0.0000

  Mayer bond orders larger than 0.1
B(  0-C ,  1-H ) :   0.9752 B(  0-C ,  2-N ) :   2.8953 B(  1-H ,  2-N ) :   0.1313 


-------
TIMINGS
-------

Total SCF time: 0 days 0 hours 11 min 34 sec 

Total time                  ....     694.504 sec
Sum of individual times     ....     693.754 sec  ( 99.9%)

Fock matrix formation       ....     690.736 sec  ( 99.5%)
  XC integration            ....      13.071 sec  (  1.9% of F)
    Basis function eval.    ....       0.822 sec  (  6.3% of XC)
    Density eval.           ....       2.673 sec  ( 20.5% of XC)
    XC-Functional eval.     ....       0.109 sec  (  0.8% of XC)
    XC-Potential eval.      ....       8.833 sec  ( 67.6% of XC)
Diagonalization             ....       1.176 sec  (  0.2%)
Density matrix formation    ....       0.019 sec  (  0.0%)
Population analysis         ....       0.149 sec  (  0.0%)
Initial guess               ....       0.664 sec  (  0.1%)
Orbital Transformation      ....       0.000 sec  (  0.0%)
Orbital Orthonormalization  ....       0.000 sec  (  0.0%)
DIIS solution               ....       0.686 sec  (  0.1%)
Grid generation             ....       0.324 sec  (  0.0%)

-------------------------   --------------------
FINAL SINGLE POINT ENERGY       -93.354768444050
-------------------------   --------------------


                            ***************************************
                            *     ORCA property calculations      *
                            ***************************************

                                    ---------------------
                                    Active property flags
                                    ---------------------
   (+) Dipole Moment
   (+) Polarizability


------------------------------------------------------------------------------
                       ORCA ELECTRIC PROPERTIES CALCULATION
------------------------------------------------------------------------------

Dipole Moment Calculation                       ... on
Quadrupole Moment Calculation                   ... off
Polarizability Calculation                      ... Analytic (CP-SCF)
GBWName                                         ... hcn_pbe.gbw
Electron density file                           ... hcn_pbe.scfp.tmp
The origin for moment calculation is the CENTER OF MASS  = ( 0.000000,  0.000000 -1.057199)

-------------
DIPOLE MOMENT
-------------
                                X             Y             Z
Electronic contribution:     -0.00000       0.00000      -0.36205
Nuclear contribution   :      0.00000       0.00000       1.51979
                        -----------------------------------------
Total Dipole Moment    :     -0.00000       0.00000       1.15775
                        -----------------------------------------
Magnitude (a.u.)       :      1.15775
Magnitude (Debye)      :      2.94276



--------------------
Rotational spectrum 
--------------------
 
Rotational constants in cm-1:     0.000000     1.478659     1.478659 
Rotational constants in MHz :     0.000000 44329.095918 44329.095918 

 Dipole components along the rotational axes: 
x,y,z [a.u.] :     1.157745     0.000000    -0.000000 
x,y,z [Debye]:     2.942755     0.000000    -0.000000 

 
Transforming and storing MO dipole integrals   ... done

                ... starting polarizability calculation

Opening the Dipole integral file               ... (hcn_pbe.dmo.tmp) done
Reading Dipole-MO integrals                    ... done
Solving CP-SCF equations                       ... 

           ************************************************************
           *        Program running with 4 parallel MPI-processes     *
           *              working on a common directory               *
           ************************************************************

------------------------------------------------------------------------------
                           ORCA CP-SCF CALCULATION
------------------------------------------------------------------------------

Input orbitals are from        ... hcn_pbe.gbw
Input Perturbation             ... hcn_pbe.cpv.tmp
Wavefunction output            ... hcn_pbe.cpu.tmp
Perturbation mode              ... Real perturbation (singlet)
Solver                         ... POPLE
Max. number of iterations      ... 200
Convergence tolerance          ... 1.000e-06
Integral handling              ... Direct
Number of perturbations        ... 3
Number of operators            ... 2
Orbital ranges used for CP-SCF:
 Operator 0:  Orbitals   0...  6  to   7...377
 Operator 1:  Orbitals   0...  6  to   7...377
DFT calculation                         ... on
Exchange functional (SCF)               ... PBE
Exchange functional (CP-SCF)            ... PBE
   PBE kappa parameter  XKappa (SCF)    ...  0.804000
   PBE kappa parameter  XKappa (CP-SCF) ...  0.804000
   PBE mue parameter   XMuePBE (SCF)    ...  0.219520
   PBE mue parameter   XMuePBE (CP-SCF) ...  0.219520
Correlation functional (SCF)            ... PBE
Correlation functional (CP-SCF)         ... PBE
   PBE beta parameter CBetaPBE (SCF)    ...  0.066725
   PBE beta parameter CBetaPBE (CP-SCF) ...  0.066725
 LDA part of GGA corr.  LDAOpt (SCF)    ... PW91-LDA
 LDA part of GGA corr.  LDAOpt (CP-SCF) ... PW91-LDA
Variables per vector in CP-SCF ... 5194
Number of vectors sought       ... 3
Recalculating density on grid  ... done
Calculating the xc-kernel      ... done
     CP-SCF ITERATION   0: 
     CP-SCF ITERATION   1:      0.135517906720
     CP-SCF ITERATION   2:      0.005868164550
     CP-SCF ITERATION   3:      0.000202267252
     CP-SCF ITERATION   4:      0.000001556508
     CP-SCF ITERATION   5:      0.000000118008
done
Reading CP-SCF coefficients                    ... done
Doing the polarizability tensor   ... done
Cleaning up                                    ... done

-------------------------
THE POLARIZABILITY TENSOR
-------------------------

The raw cartesian tensor (atomic units):
   14.71655     -0.00000     -0.00000  
   -0.00000     14.71655     -0.00000  
   -0.00000     -0.00000     23.36202  
diagonalized tensor: 
   14.71655     14.71655     23.36202  

   -0.70338      0.71081     -0.00000  
   -0.71081     -0.70338     -0.00000  
   -0.00000     -0.00000      1.00000  

Isotropic polarizability :  17.59837


Timings for individual modules:

Sum of individual times         ...     1189.320 sec (=  19.822 min)
GTO integral calculation        ...        1.849 sec (=   0.031 min)   0.2 %
SCF iterations                  ...      694.802 sec (=  11.580 min)  58.4 %
Solution of CP-SCF eqns.        ...      492.669 sec (=   8.211 min)  41.4 %
                             ****ORCA TERMINATED NORMALLY****
TOTAL RUN TIME: 0 days 0 hours 19 minutes 50 seconds 103 msec
