
                                 *****************
                                 * O   R   C   A *
                                 *****************

           --- An Ab Initio, DFT and Semiempirical electronic structure package ---

                  #######################################################
                  #                        -***-                        #
                  #          Department of theory and spectroscopy      #
                  #               Directorship: Frank Neese             #
                  #        Max Planck Institute fuer Kohlenforschung    #
                  #                Kaiser Wilhelm Platz 1               #
                  #                 D-45470 Muelheim/Ruhr               #
                  #                      Germany                        #
                  #                                                     #
                  #                  All rights reserved                #
                  #                        -***-                        #
                  #######################################################


                         Program Version 4.1.2  - RELEASE  -


 With contributions from (in alphabetic order):
   Daniel Aravena         : Magnetic Properties
   Michael Atanasov       : Ab Initio Ligand Field Theory
   Alexander A. Auer      : GIAO ZORA
   Ute Becker             : Parallelization
   Giovanni Bistoni       : ED, Open-shell LED
   Martin Brehm           : Molecular dynamics
   Dmytro Bykov           : SCF Hessian
   Vijay G. Chilkuri      : MRCI spin determinant printing
   Dipayan Datta          : RHF DLPNO-CCSD density
   Achintya Kumar Dutta   : EOM-CC, STEOM-CC
   Dmitry Ganyushin       : Spin-Orbit,Spin-Spin,Magnetic field MRCI
   Miquel Garcia          : C-PCM Hessian
   Yang Guo               : DLPNO-NEVPT2, CIM, IAO-localization
   Andreas Hansen         : Spin unrestricted coupled pair/coupled cluster methods
   Benjamin Helmich-Paris : CASSCF linear response (MC-RPA)
   Lee Huntington         : MR-EOM, pCC
   Robert Izsak           : Overlap fitted RIJCOSX, COSX-SCS-MP3, EOM
   Christian Kollmar      : KDIIS, OOCD, Brueckner-CCSD(T), CCSD density
   Simone Kossmann        : Meta GGA functionals, TD-DFT gradient, OOMP2, MP2 Hessian
   Martin Krupicka        : AUTO-CI
   Lucas Lang             : DCDCAS
   Dagmar Lenk            : GEPOL surface, SMD
   Dimitrios Liakos       : Extrapolation schemes; parallel MDCI
   Dimitrios Manganas     : ROCIS; embedding schemes
   Dimitrios Pantazis     : SARC Basis sets
   Taras Petrenko         : DFT Hessian,TD-DFT gradient, ASA, ECA, R-Raman, ABS, FL, XAS/XES, NRVS
   Peter Pinski           : DLPNO-MP2, DLPNO-MP2 Gradient
   Christoph Reimann      : Effective Core Potentials
   Marius Retegan         : Local ZFS, SOC
   Christoph Riplinger    : Optimizer, TS searches, QM/MM, DLPNO-CCSD(T), (RO)-DLPNO pert. Triples
   Tobias Risthaus        : Range-separated hybrids, TD-DFT gradient, RPA, STAB
   Michael Roemelt        : Restricted open shell CIS
   Masaaki Saitow         : Open-shell DLPNO
   Barbara Sandhoefer     : DKH picture change effects
   Avijit Sen             : IP-ROCIS
   Kantharuban Sivalingam : CASSCF convergence, NEVPT2, FIC-MRCI
   Bernardo de Souza      : ESD, SOC TD-DFT
   Georgi Stoychev        : AutoAux, RI-MP2 NMR
   Willem Van den Heuvel  : Paramagnetic NMR
   Boris Wezisla          : Elementary symmetry handling
   Frank Wennmohs         : Technical directorship


 We gratefully acknowledge several colleagues who have allowed us to
 interface, adapt or use parts of their codes:
   Stefan Grimme, W. Hujo, H. Kruse,             : VdW corrections, initial TS optimization,
                  C. Bannwarth                     DFT functionals, gCP, sTDA/sTD-DF
   Ed Valeev                                     : LibInt (2-el integral package), F12 methods
   Garnet Chan, S. Sharma, J. Yang, R. Olivares  : DMRG
   Ulf Ekstrom                                   : XCFun DFT Library
   Mihaly Kallay                                 : mrcc  (arbitrary order and MRCC methods)
   Andreas Klamt, Michael Diedenhofen            : otool_cosmo (COSMO solvation model)
   Jiri Pittner, Ondrej Demel                    : Mk-CCSD
   Frank Weinhold                                : gennbo (NPA and NBO analysis)
   Christopher J. Cramer and Donald G. Truhlar   : smd solvation model
   Lars Goerigk                                  : TD-DFT with DH, B97 family of functionals
   V. Asgeirsson, H. Jonsson                     : NEB implementation
   FAccTs GmbH                                   : IRC, NEB, NEB-TS, Multilevel


 Your calculation uses the libint2 library for the computation of 2-el integrals
 For citations please refer to: http://libint.valeyev.net

 This ORCA versions uses:
   CBLAS   interface :  Fast vector & matrix operations
   LAPACKE interface :  Fast linear algebra routines
   SCALAPACK package :  Parallel linear algebra routines


----- Orbital basis set information -----
Your calculation utilizes the basis: aug-pc-4
   H, C-F              : F. Jensen, J. Chem. Phys. 115, 9113 (2001).
                         F. Jensen, J. Chem. Phys. 116, 7372 (2002).
                         F. Jensen, J. Chem. Phys. 117, 9234 (2002).
   Si-Cl               : F. Jensen, T. Helgaker, J. Chem. Phys. 121, 3463 (2004).
   He-B, Ne-Mg, Al, Ar : F. Jensen, J. Phys. Chem. A 111, 11198 (2007).
   K, Ca, Ga-Kr        : F. Jensen, J. Chem. Phys. 136, 094110 (2012).
   Sc-Zn               : F. Jensen, J. Chem. Phys. 138, 014107 (2013).

================================================================================
                                        WARNINGS
                       Please study these warnings very carefully!
================================================================================


INFO   : the flag for use of LIBINT has been found!

================================================================================
                                       INPUT FILE
================================================================================
NAME = hco_pbe.inp
|  1> !uks pbe nori aug-pc-4 grid5 nofinalgrid verytightscf
|  2> 
|  3> %maxcore 1500
|  4> 
|  5> %pal nprocs 4 end
|  6> 
|  7> %scf
|  8> 	maxiter 200
|  9> end
| 10> %elprop
| 11> 	dipole true
| 12> 	 polar 1
| 13> 	 maxiter 200
| 14> end
| 15> 
| 16> * xyz 0 2
| 17> C 0.0000 0.0000 0.0000
| 18> H 1.0800 0.0000 0.0000
| 19> O -0.5899 1.0427 0.0000
| 20> *
| 21> 
| 22>                          ****END OF INPUT****
================================================================================

                       ****************************
                       * Single Point Calculation *
                       ****************************

---------------------------------
CARTESIAN COORDINATES (ANGSTROEM)
---------------------------------
  C      0.000000    0.000000    0.000000
  H      1.080000    0.000000    0.000000
  O     -0.589900    1.042700    0.000000

----------------------------
CARTESIAN COORDINATES (A.U.)
----------------------------
  NO LB      ZA    FRAG     MASS         X           Y           Z
   0 C     6.0000    0    12.011    0.000000    0.000000    0.000000
   1 H     1.0000    0     1.008    2.040904    0.000000    0.000000
   2 O     8.0000    0    15.999   -1.114749    1.970417    0.000000

--------------------------------
INTERNAL COORDINATES (ANGSTROEM)
--------------------------------
 C      0   0   0     0.000000000000     0.00000000     0.00000000
 H      1   0   0     1.080000000000     0.00000000     0.00000000
 O      1   2   0     1.198000542571   119.49869812     0.00000000

---------------------------
INTERNAL COORDINATES (A.U.)
---------------------------
 C      0   0   0     0.000000000000     0.00000000     0.00000000
 H      1   0   0     2.040904224635     0.00000000     0.00000000
 O      1   2   0     2.263892933748   119.49869812     0.00000000

---------------------
BASIS SET INFORMATION
---------------------
There are 3 groups of distinct atoms

 Group   1 Type C   : 28s12p7d4f3g2h contracted to 9s8p7d4f3g2h pattern {11101111111/51111111/1111111/1111/111/11}
 Group   2 Type H   : 12s7p4d3f2g contracted to 8s7p4d3f2g pattern {51111111/1111111/1111/111/11}
 Group   3 Type O   : 27s12p7d4f3g2h contracted to 9s8p7d4f3g2h pattern {1191111111/51111111/1111111/1111/111/11}

Atom   0C    basis set group =>   1
Atom   1H    basis set group =>   2
Atom   2O    basis set group =>   3


           ************************************************************
           *        Program running with 4 parallel MPI-processes     *
           *              working on a common directory               *
           ************************************************************
------------------------------------------------------------------------------
                           ORCA GTO INTEGRAL CALCULATION
------------------------------------------------------------------------------

                         BASIS SET STATISTICS AND STARTUP INFO

 # of primitive gaussian shells          ...  139
 # of primitive gaussian functions       ...  443
 # of contracted shells                  ...   90
 # of contracted basis functions         ...  378
 Highest angular momentum                ...    5
 Maximum contraction depth               ...   11
 Integral package used                   ... LIBINT
 Integral threshhold            Thresh   ...  1.000e-12
 Primitive cut-off              TCut     ...  1.000e-14


------------------------------ INTEGRAL EVALUATION ----------------------------


 * One electron integrals 
 Pre-screening matrix                    ... done
 Shell pair data                         ... done (   0.001 sec)



           ************************************************************
           *        Program running with 4 parallel MPI-processes     *
           *              working on a common directory               *
           ************************************************************
-------------------------------------------------------------------------------
                                 ORCA SCF
-------------------------------------------------------------------------------

------------
SCF SETTINGS
------------
Hamiltonian:
 Density Functional     Method          .... DFT(GTOs)
 Exchange Functional    Exchange        .... PBE
   PBE kappa parameter   XKappa         ....  0.804000
   PBE mue parameter    XMuePBE         ....  0.219520
 Correlation Functional Correlation     .... PBE
   PBE beta parameter  CBetaPBE         ....  0.066725
 LDA part of GGA corr.  LDAOpt          .... PW91-LDA
 Gradients option       PostSCFGGA      .... off
   Density functional embedding theory  .... OFF
   NL short-range parameter             ....  6.400000


General Settings:
 Integral files         IntName         .... hco_pbe
 Hartree-Fock type      HFTyp           .... UHF
 Total Charge           Charge          ....    0
 Multiplicity           Mult            ....    2
 Number of Electrons    NEL             ....   15
 Basis Dimension        Dim             ....  378
 Nuclear Repulsion      ENuc            ....     26.2926488177 Eh

Convergence Acceleration:
 DIIS                   CNVDIIS         .... on
   Start iteration      DIISMaxIt       ....    12
   Startup error        DIISStart       ....  0.200000
   # of expansion vecs  DIISMaxEq       ....     5
   Bias factor          DIISBfac        ....   1.050
   Max. coefficient     DIISMaxC        ....  10.000
 Newton-Raphson         CNVNR           .... off
 SOSCF                  CNVSOSCF        .... off
 Level Shifting         CNVShift        .... on
   Level shift para.    LevelShift      ....    0.2500
   Turn off err/grad.   ShiftErr        ....    0.0010
 Zerner damping         CNVZerner       .... off
 Static damping         CNVDamp         .... on
   Fraction old density DampFac         ....    0.7000
   Max. Damping (<1)    DampMax         ....    0.9800
   Min. Damping (>=0)   DampMin         ....    0.0000
   Turn off err/grad.   DampErr         ....    0.1000
 Fernandez-Rico         CNVRico         .... off

SCF Procedure:
 Maximum # iterations   MaxIter         ....   200
 SCF integral mode      SCFMode         .... Direct
   Integral package                     .... LIBINT
 Reset frequency        DirectResetFreq ....    20
 Integral Threshold     Thresh          ....  1.000e-12 Eh
 Primitive CutOff       TCut            ....  1.000e-14 Eh

Convergence Tolerance:
 Convergence Check Mode ConvCheckMode   .... Total+1el-Energy
 Convergence forced     ConvForced      .... 0
 Energy Change          TolE            ....  1.000e-09 Eh
 1-El. energy change                    ....  1.000e-06 Eh
 DIIS Error             TolErr          ....  1.000e-08


Diagonalization of the overlap matrix:
Smallest eigenvalue                        ... 6.105e-07
Time for diagonalization                   ...    0.026 sec
Threshold for overlap eigenvalues          ... 1.000e-08
Number of eigenvalues below threshold      ... 0
Time for construction of square roots      ...    0.019 sec
Total time needed                          ...    0.045 sec

-------------------
DFT GRID GENERATION
-------------------

General Integration Accuracy     IntAcc      ...  5.010
Radial Grid Type                 RadialGrid  ... Gauss-Chebyshev
Angular Grid (max. acc.)         AngularGrid ... Lebedev-434
Angular grid pruning method      GridPruning ... 3 (G Style)
Weight generation scheme         WeightScheme... Becke
Basis function cutoff            BFCut       ...    1.0000e-12
Integration weight cutoff        WCut        ...    1.0000e-14
Grids for H and He will be reduced by one unit

# of grid points (after initial pruning)     ...  28232 (   0.0 sec)
# of grid points (after weights+screening)   ...  27985 (   0.0 sec)
nearest neighbour list constructed           ...    0.0 sec
Grid point re-assignment to atoms done       ...    0.0 sec
Grid point division into batches done        ...    0.2 sec
Reduced shell lists constructed in    0.3 sec

Total number of grid points                  ...    27985
Total number of batches                      ...      439
Average number of points per batch           ...       63
Average number of grid points per atom       ...     9328
Average number of shells per batch           ...    71.59 (79.55%)
Average number of basis functions per batch  ...   310.41 (82.12%)
Average number of large shells per batch     ...    65.64 (91.68%)
Average number of large basis fcns per batch ...   286.65 (92.35%)
Maximum spatial batch extension              ...  16.89, 17.05, 19.91 au
Average spatial batch extension              ...   0.64,  0.70,  0.75 au

Time for grid setup =    0.321 sec

------------------------------
INITIAL GUESS: MODEL POTENTIAL
------------------------------
Loading Hartree-Fock densities                     ... done
Calculating cut-offs                               ... done
Setting up the integral package                    ... done
Initializing the effective Hamiltonian             ... done
Starting the Coulomb interaction                   ... done (   0.0 sec)
Reading the grid                                   ... done
Mapping shells                                     ... done
Starting the XC term evaluation                    ... done (   0.5 sec)
  promolecular density results
     # of electrons  =     14.999510693
     EX              =    -13.476242460
     EC              =     -0.476749834
     EX+EC           =    -13.952992295
Transforming the Hamiltonian                       ... done (   0.0 sec)
Diagonalizing the Hamiltonian                      ... done (   0.0 sec)
Back transforming the eigenvectors                 ... done (   0.0 sec)
Now organizing SCF variables                       ... done
                      ------------------
                      INITIAL GUESS DONE (   1.0 sec)
                      ------------------
--------------
SCF ITERATIONS
--------------
ITER       Energy         Delta-E        Max-DP      RMS-DP      [F,P]     Damp
               ***  Starting incremental Fock matrix formation  ***
  0   -113.7328002769   0.000000000000 0.01054310  0.00013297  0.2177479 0.7000
  1   -113.7597426314  -0.026942354533 0.00743649  0.00007885  0.0444239 0.7000
                               ***Turning on DIIS***
  2   -113.7637071193  -0.003964487839 0.01990855  0.00015973  0.0378853 0.0000
  3   -113.7810998484  -0.017392729085 0.00421239  0.00004444  0.0241863 0.0000
  4   -113.7820787893  -0.000978940922 0.00108534  0.00001440  0.0159844 0.0000
  5   -113.7823351894  -0.000256400102 0.00062448  0.00000694  0.0038980 0.0000
  6   -113.7823559019  -0.000020712525 0.00037888  0.00000339  0.0011114 0.0000
  7   -113.7823581968  -0.000002294876 0.00019735  0.00000318  0.0004051 0.0000
  8   -113.7823588698  -0.000000672992 0.00003752  0.00000040  0.0001132 0.0000
  9   -113.7823589005  -0.000000030702 0.00001027  0.00000008  0.0000405 0.0000
 10   -113.7823589039  -0.000000003402 0.00000476  0.00000005  0.0000183 0.0000
 11   -113.7823589049  -0.000000000997 0.00000227  0.00000002  0.0000030 0.0000
 12   -113.7823589050  -0.000000000085 0.00000265  0.00000002  0.0000022 0.0000
 13   -113.7823589050  -0.000000000039 0.00000642  0.00000005  0.0000002 0.0000
                 **** Energy Check signals convergence ****

               *****************************************************
               *                     SUCCESS                       *
               *           SCF CONVERGED AFTER  14 CYCLES          *
               *****************************************************


----------------
TOTAL SCF ENERGY
----------------

Total Energy       :         -113.78235891 Eh           -3096.17539 eV

Components:
Nuclear Repulsion  :           26.29264882 Eh             715.45935 eV
Electronic Energy  :         -140.07500772 Eh           -3811.63474 eV
One Electron Energy:         -206.69121323 Eh           -5624.35385 eV
Two Electron Energy:           66.61620551 Eh            1812.71911 eV

Virial components:
Potential Energy   :         -227.18131893 Eh           -6181.91797 eV
Kinetic Energy     :          113.39896003 Eh            3085.74258 eV
Virial Ratio       :            2.00338097


DFT components:
N(Alpha)           :        7.999999440186 electrons
N(Beta)            :        6.999999504934 electrons
N(Total)           :       14.999998945120 electrons
E(X)               :      -13.669811764651 Eh       
E(C)               :       -0.477275223489 Eh       
E(XC)              :      -14.147086988139 Eh       
DFET-embed. en.    :        0.000000000000 Eh       

---------------
SCF CONVERGENCE
---------------

  Last Energy change         ...   -6.6080e-12  Tolerance :   1.0000e-09
  Last MAX-Density change    ...    5.7860e-06  Tolerance :   1.0000e-08
  Last RMS-Density change    ...    3.7873e-08  Tolerance :   1.0000e-09
  Last DIIS Error            ...    9.4126e-08  Tolerance :   1.0000e-08

             **** THE GBW FILE WAS UPDATED (hco_pbe.gbw) ****
             **** DENSITY FILE WAS UPDATED (hco_pbe.scfp.tmp) ****
             **** ENERGY FILE WAS UPDATED (hco_pbe.en.tmp) ****
----------------------
UHF SPIN CONTAMINATION
----------------------

Warning: in a DFT calculation there is little theoretical justification to 
         calculate <S**2> as in Hartree-Fock theory. We will do it anyways
         but you should keep in mind that the values have only limited relevance

Expectation value of <S**2>     :     0.752334
Ideal value S*(S+1) for S=0.5   :     0.750000
Deviation                       :     0.002334

----------------
ORBITAL ENERGIES
----------------
                 SPIN UP ORBITALS
  NO   OCC          E(Eh)            E(eV) 
   0   1.0000     -18.821943      -512.1711 
   1   1.0000      -9.991741      -271.8891 
   2   1.0000      -1.016918       -27.6717 
   3   1.0000      -0.570846       -15.5335 
   4   1.0000      -0.450107       -12.2480 
   5   1.0000      -0.395836       -10.7712 
   6   1.0000      -0.385149       -10.4804 
   7   1.0000      -0.189612        -5.1596 
   8   0.0000      -0.105168        -2.8618 
   9   0.0000      -0.015188        -0.4133 
  10   0.0000       0.011025         0.3000 
  11   0.0000       0.013083         0.3560 
  12   0.0000       0.017555         0.4777 
  13   0.0000       0.039902         1.0858 
  14   0.0000       0.050239         1.3671 
  15   0.0000       0.054815         1.4916 
  16   0.0000       0.057115         1.5542 
  17   0.0000       0.061160         1.6642 
  18   0.0000       0.064045         1.7427 
  19   0.0000       0.074861         2.0371 
  20   0.0000       0.078170         2.1271 
  21   0.0000       0.083381         2.2689 
  22   0.0000       0.116892         3.1808 
  23   0.0000       0.122416         3.3311 
  24   0.0000       0.131086         3.5670 
  25   0.0000       0.134445         3.6584 
  26   0.0000       0.135920         3.6986 
  27   0.0000       0.136517         3.7148 
  28   0.0000       0.147719         4.0196 
  29   0.0000       0.163173         4.4402 
  30   0.0000       0.171594         4.6693 
  31   0.0000       0.180327         4.9070 
  32   0.0000       0.180479         4.9111 
  33   0.0000       0.188448         5.1279 
  34   0.0000       0.188454         5.1281 
  35   0.0000       0.202022         5.4973 
  36   0.0000       0.218709         5.9514 
  37   0.0000       0.229566         6.2468 
  38   0.0000       0.236147         6.4259 
  39   0.0000       0.236289         6.4298 
  40   0.0000       0.253665         6.9026 
  41   0.0000       0.255417         6.9502 
  42   0.0000       0.257349         7.0028 
  43   0.0000       0.260750         7.0954 
  44   0.0000       0.264473         7.1967 
  45   0.0000       0.268055         7.2942 
  46   0.0000       0.274768         7.4768 
  47   0.0000       0.294965         8.0264 
  48   0.0000       0.297545         8.0966 
  49   0.0000       0.308305         8.3894 
  50   0.0000       0.317742         8.6462 
  51   0.0000       0.320825         8.7301 
  52   0.0000       0.329883         8.9766 
  53   0.0000       0.335962         9.1420 
  54   0.0000       0.342473         9.3192 
  55   0.0000       0.344879         9.3846 
  56   0.0000       0.374415        10.1884 
  57   0.0000       0.375280        10.2119 
  58   0.0000       0.385641        10.4938 
  59   0.0000       0.396996        10.8028 
  60   0.0000       0.399091        10.8598 
  61   0.0000       0.417372        11.3573 
  62   0.0000       0.420081        11.4310 
  63   0.0000       0.430345        11.7103 
  64   0.0000       0.431661        11.7461 
  65   0.0000       0.443911        12.0794 
  66   0.0000       0.449726        12.2377 
  67   0.0000       0.457164        12.4401 
  68   0.0000       0.457529        12.4500 
  69   0.0000       0.472725        12.8635 
  70   0.0000       0.473953        12.8969 
  71   0.0000       0.485065        13.1993 
  72   0.0000       0.498958        13.5773 
  73   0.0000       0.499673        13.5968 
  74   0.0000       0.521288        14.1850 
  75   0.0000       0.528614        14.3843 
  76   0.0000       0.535706        14.5773 
  77   0.0000       0.544626        14.8200 
  78   0.0000       0.551140        14.9973 
  79   0.0000       0.553038        15.0489 
  80   0.0000       0.556362        15.1394 
  81   0.0000       0.566442        15.4137 
  82   0.0000       0.573327        15.6010 
  83   0.0000       0.578338        15.7374 
  84   0.0000       0.582294        15.8450 
  85   0.0000       0.586225        15.9520 
  86   0.0000       0.610179        16.6038 
  87   0.0000       0.612395        16.6641 
  88   0.0000       0.624342        16.9892 
  89   0.0000       0.638219        17.3668 
  90   0.0000       0.639442        17.4001 
  91   0.0000       0.648901        17.6575 
  92   0.0000       0.659744        17.9525 
  93   0.0000       0.662068        18.0158 
  94   0.0000       0.672090        18.2885 
  95   0.0000       0.674887        18.3646 
  96   0.0000       0.677197        18.4275 
  97   0.0000       0.689766        18.7695 
  98   0.0000       0.689874        18.7724 
  99   0.0000       0.704510        19.1707 
 100   0.0000       0.721317        19.6280 
 101   0.0000       0.722779        19.6678 
 102   0.0000       0.750622        20.4255 
 103   0.0000       0.757847        20.6221 
 104   0.0000       0.762788        20.7565 
 105   0.0000       0.778457        21.1829 
 106   0.0000       0.787230        21.4216 
 107   0.0000       0.796838        21.6831 
 108   0.0000       0.809144        22.0179 
 109   0.0000       0.831825        22.6351 
 110   0.0000       0.844982        22.9931 
 111   0.0000       0.847508        23.0619 
 112   0.0000       0.857666        23.3383 
 113   0.0000       0.859603        23.3910 
 114   0.0000       0.872786        23.7497 
 115   0.0000       0.879814        23.9409 
 116   0.0000       0.884862        24.0783 
 117   0.0000       0.908458        24.7204 
 118   0.0000       0.910308        24.7707 
 119   0.0000       0.926497        25.2113 
 120   0.0000       0.945564        25.7301 
 121   0.0000       0.949564        25.8390 
 122   0.0000       0.976749        26.5787 
 123   0.0000       0.983846        26.7718 
 124   0.0000       0.988174        26.8896 
 125   0.0000       0.999410        27.1953 
 126   0.0000       1.000065        27.2132 
 127   0.0000       1.014185        27.5974 
 128   0.0000       1.014682        27.6109 
 129   0.0000       1.059387        28.8274 
 130   0.0000       1.068880        29.0857 
 131   0.0000       1.074127        29.2285 
 132   0.0000       1.089611        29.6498 
 133   0.0000       1.098832        29.9007 
 134   0.0000       1.114854        30.3367 
 135   0.0000       1.144867        31.1534 
 136   0.0000       1.148521        31.2529 
 137   0.0000       1.157821        31.5059 
 138   0.0000       1.201058        32.6824 
 139   0.0000       1.202988        32.7350 
 140   0.0000       1.231511        33.5111 
 141   0.0000       1.246397        33.9162 
 142   0.0000       1.288658        35.0662 
 143   0.0000       1.302481        35.4423 
 144   0.0000       1.362951        37.0878 
 145   0.0000       1.415835        38.5268 
 146   0.0000       1.431114        38.9426 
 147   0.0000       1.440624        39.2014 
 148   0.0000       1.493776        40.6477 
 149   0.0000       1.525793        41.5189 
 150   0.0000       1.600590        43.5543 
 151   0.0000       1.641212        44.6596 
 152   0.0000       1.650806        44.9207 
 153   0.0000       1.674704        45.5710 
 154   0.0000       1.684763        45.8447 
 155   0.0000       1.772190        48.2237 
 156   0.0000       1.783152        48.5220 
 157   0.0000       1.820963        49.5509 
 158   0.0000       1.829604        49.7861 
 159   0.0000       1.895934        51.5910 
 160   0.0000       1.903424        51.7948 
 161   0.0000       1.944525        52.9132 
 162   0.0000       1.964697        53.4621 
 163   0.0000       2.003975        54.5309 
 164   0.0000       2.012682        54.7679 
 165   0.0000       2.099245        57.1234 
 166   0.0000       2.113229        57.5039 
 167   0.0000       2.116204        57.5848 
 168   0.0000       2.147469        58.4356 
 169   0.0000       2.210810        60.1592 
 170   0.0000       2.234138        60.7940 
 171   0.0000       2.251902        61.2774 
 172   0.0000       2.283392        62.1343 
 173   0.0000       2.351112        63.9770 
 174   0.0000       2.377897        64.7059 
 175   0.0000       2.395249        65.1780 
 176   0.0000       2.472757        67.2871 
 177   0.0000       2.503921        68.1352 
 178   0.0000       2.564820        69.7923 
 179   0.0000       2.649401        72.0939 
 180   0.0000       2.681188        72.9588 
 181   0.0000       2.769340        75.3576 
 182   0.0000       2.867311        78.0235 
 183   0.0000       3.004074        81.7450 
 184   0.0000       3.057490        83.1985 
 185   0.0000       3.187608        86.7392 
 186   0.0000       3.199568        87.0647 
 187   0.0000       3.315728        90.2256 
 188   0.0000       3.351779        91.2065 
 189   0.0000       3.399255        92.4984 
 190   0.0000       3.509628        95.5018 
 191   0.0000       3.573676        97.2447 
 192   0.0000       3.583090        97.5008 
 193   0.0000       3.709301       100.9352 
 194   0.0000       3.748368       101.9983 
 195   0.0000       3.855749       104.9203 
 196   0.0000       3.865841       105.1949 
 197   0.0000       3.954464       107.6064 
 198   0.0000       3.981612       108.3452 
 199   0.0000       4.063351       110.5694 
 200   0.0000       4.078078       110.9701 
 201   0.0000       4.117955       112.0553 
 202   0.0000       4.158724       113.1646 
 203   0.0000       4.236507       115.2812 
 204   0.0000       4.274449       116.3137 
 205   0.0000       4.339702       118.0893 
 206   0.0000       4.400149       119.7341 
 207   0.0000       4.420689       120.2931 
 208   0.0000       4.450171       121.0953 
 209   0.0000       4.504106       122.5630 
 210   0.0000       4.548008       123.7576 
 211   0.0000       4.567552       124.2894 
 212   0.0000       4.604953       125.3072 
 213   0.0000       4.607804       125.3847 
 214   0.0000       4.729578       128.6984 
 215   0.0000       4.744621       129.1077 
 216   0.0000       4.786540       130.2484 
 217   0.0000       4.819133       131.1353 
 218   0.0000       4.858849       132.2160 
 219   0.0000       4.991403       135.8230 
 220   0.0000       5.040589       137.1614 
 221   0.0000       5.093376       138.5978 
 222   0.0000       5.219607       142.0327 
 223   0.0000       5.255740       143.0159 
 224   0.0000       5.298731       144.1858 
 225   0.0000       5.320779       144.7857 
 226   0.0000       5.342035       145.3642 
 227   0.0000       5.397110       146.8628 
 228   0.0000       5.496873       149.5775 
 229   0.0000       5.668435       154.2460 
 230   0.0000       5.760309       156.7460 
 231   0.0000       5.822151       158.4288 
 232   0.0000       5.846871       159.1015 
 233   0.0000       5.909558       160.8073 
 234   0.0000       5.943961       161.7434 
 235   0.0000       6.032296       164.1471 
 236   0.0000       6.109205       166.2399 
 237   0.0000       6.147084       167.2707 
 238   0.0000       6.311895       171.7554 
 239   0.0000       6.466489       175.9621 
 240   0.0000       6.555383       178.3810 
 241   0.0000       6.569645       178.7691 
 242   0.0000       6.587411       179.2526 
 243   0.0000       6.714694       182.7161 
 244   0.0000       6.809602       185.2987 
 245   0.0000       7.022634       191.0956 
 246   0.0000       7.491020       203.8410 
 247   0.0000       7.498997       204.0581 
 248   0.0000       7.639016       207.8682 
 249   0.0000       7.960879       216.6265 
 250   0.0000       8.228684       223.9139 
 251   0.0000       8.319547       226.3864 
 252   0.0000       8.453080       230.0200 
 253   0.0000       8.632934       234.9141 
 254   0.0000       8.808109       239.6808 
 255   0.0000       8.864743       241.2219 
 256   0.0000       8.934112       243.1096 
 257   0.0000       9.059839       246.5308 
 258   0.0000       9.242787       251.5090 
 259   0.0000       9.338495       254.1134 
 260   0.0000       9.356910       254.6145 
 261   0.0000       9.510738       258.8003 
 262   0.0000       9.825278       267.3594 
 263   0.0000      10.027610       272.8652 
 264   0.0000      10.181623       277.0560 
 265   0.0000      10.256518       279.0941 
 266   0.0000      10.261882       279.2400 
 267   0.0000      10.345357       281.5115 
 268   0.0000      10.473983       285.0116 
 269   0.0000      10.539063       286.7825 
 270   0.0000      10.555769       287.2371 
 271   0.0000      10.636176       289.4251 
 272   0.0000      10.647805       289.7415 
 273   0.0000      10.743084       292.3342 
 274   0.0000      10.762701       292.8680 
 275   0.0000      10.788833       293.5791 
 276   0.0000      11.084233       301.6173 
 277   0.0000      11.092641       301.8461 
 278   0.0000      11.107051       302.2382 
 279   0.0000      11.197050       304.6872 
 280   0.0000      11.249184       306.1058 
 281   0.0000      11.289106       307.1922 
 282   0.0000      11.531222       313.7805 
 283   0.0000      11.540922       314.0445 
 284   0.0000      11.632600       316.5391 
 285   0.0000      11.645650       316.8943 
 286   0.0000      11.665802       317.4426 
 287   0.0000      11.730789       319.2110 
 288   0.0000      11.817365       321.5669 
 289   0.0000      11.956441       325.3513 
 290   0.0000      11.987567       326.1983 
 291   0.0000      11.987712       326.2022 
 292   0.0000      12.039756       327.6184 
 293   0.0000      12.078607       328.6756 
 294   0.0000      12.183173       331.5210 
 295   0.0000      12.195051       331.8442 
 296   0.0000      12.217966       332.4678 
 297   0.0000      12.289519       334.4148 
 298   0.0000      12.339065       335.7630 
 299   0.0000      12.494530       339.9934 
 300   0.0000      12.504389       340.2617 
 301   0.0000      12.556618       341.6830 
 302   0.0000      12.567810       341.9875 
 303   0.0000      12.673530       344.8643 
 304   0.0000      12.700090       345.5870 
 305   0.0000      12.767086       347.4101 
 306   0.0000      12.770340       347.4986 
 307   0.0000      12.962520       352.7281 
 308   0.0000      13.001349       353.7847 
 309   0.0000      13.071374       355.6902 
 310   0.0000      13.223832       359.8388 
 311   0.0000      13.292003       361.6938 
 312   0.0000      13.371088       363.8458 
 313   0.0000      13.619749       370.6122 
 314   0.0000      13.687197       372.4476 
 315   0.0000      13.802489       375.5848 
 316   0.0000      13.914287       378.6270 
 317   0.0000      13.934094       379.1660 
 318   0.0000      14.308188       389.3456 
 319   0.0000      14.989039       407.8725 
 320   0.0000      14.995426       408.0463 
 321   0.0000      15.322342       416.9421 
 322   0.0000      15.388477       418.7417 
 323   0.0000      15.781447       429.4350 
 324   0.0000      16.125864       438.8071 
 325   0.0000      16.222740       441.4432 
 326   0.0000      16.677756       453.8248 
 327   0.0000      16.684509       454.0086 
 328   0.0000      16.929933       460.6869 
 329   0.0000      16.940757       460.9814 
 330   0.0000      16.961046       461.5335 
 331   0.0000      17.055008       464.0904 
 332   0.0000      17.108619       465.5492 
 333   0.0000      17.264097       469.7800 
 334   0.0000      17.309075       471.0039 
 335   0.0000      17.725184       482.3268 
 336   0.0000      18.011171       490.1089 
 337   0.0000      18.072282       491.7718 
 338   0.0000      18.285970       497.5865 
 339   0.0000      18.386778       500.3297 
 340   0.0000      18.632339       507.0117 
 341   0.0000      18.645311       507.3647 
 342   0.0000      18.842885       512.7410 
 343   0.0000      18.877875       513.6931 
 344   0.0000      18.892787       514.0989 
 345   0.0000      19.944596       542.7200 
 346   0.0000      20.200110       549.6729 
 347   0.0000      20.314178       552.7769 
 348   0.0000      20.770341       565.1897 
 349   0.0000      22.298671       606.7777 
 350   0.0000      22.953110       624.5859 
 351   0.0000      23.011927       626.1864 
 352   0.0000      23.451879       638.1581 
 353   0.0000      23.596545       642.0946 
 354   0.0000      23.922298       650.9588 
 355   0.0000      24.134495       656.7330 
 356   0.0000      25.467663       693.0104 
 357   0.0000      26.487767       720.7688 
 358   0.0000      30.145152       820.2913 
 359   0.0000      31.909706       868.3073 
 360   0.0000      31.975840       870.1069 
 361   0.0000      32.036095       871.7465 
 362   0.0000      32.283827       878.4876 
 363   0.0000      32.704217       889.9270 
 364   0.0000      33.853864       921.2105 
 365   0.0000      34.267270       932.4598 
 366   0.0000      34.494968       938.6558 
 367   0.0000      40.927215      1113.6861 
 368   0.0000      66.519977      1810.1006 
 369   0.0000      66.557185      1811.1131 
 370   0.0000      67.049257      1824.5030 
 371   0.0000      67.174875      1827.9213 
 372   0.0000      68.625672      1867.3995 
 373   0.0000      75.007770      2041.0652 
 374   0.0000      90.991917      2476.0160 
 375   0.0000      91.086130      2478.5796 
 376   0.0000      92.285071      2511.2045 
 377   0.0000     143.319375      3899.9185 

                 SPIN DOWN ORBITALS
  NO   OCC          E(Eh)            E(eV) 
   0   1.0000     -18.814113      -511.9580 
   1   1.0000      -9.983267      -271.6585 
   2   1.0000      -1.003831       -27.3156 
   3   1.0000      -0.550015       -14.9667 
   4   1.0000      -0.432253       -11.7622 
   5   1.0000      -0.388170       -10.5626 
   6   1.0000      -0.347853        -9.4656 
   7   0.0000      -0.127223        -3.4619 
   8   0.0000      -0.088880        -2.4186 
   9   0.0000      -0.005862        -0.1595 
  10   0.0000       0.014943         0.4066 
  11   0.0000       0.021239         0.5779 
  12   0.0000       0.021544         0.5862 
  13   0.0000       0.044342         1.2066 
  14   0.0000       0.054024         1.4701 
  15   0.0000       0.058123         1.5816 
  16   0.0000       0.058737         1.5983 
  17   0.0000       0.065932         1.7941 
  18   0.0000       0.073297         1.9945 
  19   0.0000       0.082683         2.2499 
  20   0.0000       0.089080         2.4240 
  21   0.0000       0.089969         2.4482 
  22   0.0000       0.123441         3.3590 
  23   0.0000       0.127961         3.4820 
  24   0.0000       0.136151         3.7049 
  25   0.0000       0.140644         3.8271 
  26   0.0000       0.141730         3.8567 
  27   0.0000       0.143713         3.9106 
  28   0.0000       0.155085         4.2201 
  29   0.0000       0.168355         4.5812 
  30   0.0000       0.182983         4.9792 
  31   0.0000       0.187622         5.1054 
  32   0.0000       0.188933         5.1411 
  33   0.0000       0.191451         5.2097 
  34   0.0000       0.195542         5.3210 
  35   0.0000       0.210741         5.7346 
  36   0.0000       0.229610         6.2480 
  37   0.0000       0.239518         6.5176 
  38   0.0000       0.243582         6.6282 
  39   0.0000       0.244218         6.6455 
  40   0.0000       0.260950         7.1008 
  41   0.0000       0.261155         7.1064 
  42   0.0000       0.264337         7.1930 
  43   0.0000       0.266341         7.2475 
  44   0.0000       0.272757         7.4221 
  45   0.0000       0.273845         7.4517 
  46   0.0000       0.281781         7.6677 
  47   0.0000       0.301691         8.2094 
  48   0.0000       0.305445         8.3116 
  49   0.0000       0.317339         8.6352 
  50   0.0000       0.327255         8.9050 
  51   0.0000       0.329271         8.9599 
  52   0.0000       0.340175         9.2566 
  53   0.0000       0.344771         9.3817 
  54   0.0000       0.350523         9.5382 
  55   0.0000       0.356919         9.7123 
  56   0.0000       0.383940        10.4475 
  57   0.0000       0.386436        10.5154 
  58   0.0000       0.393969        10.7204 
  59   0.0000       0.403139        10.9700 
  60   0.0000       0.406531        11.0623 
  61   0.0000       0.423440        11.5224 
  62   0.0000       0.428442        11.6585 
  63   0.0000       0.438362        11.9284 
  64   0.0000       0.438649        11.9363 
  65   0.0000       0.452683        12.3181 
  66   0.0000       0.457139        12.4394 
  67   0.0000       0.466646        12.6981 
  68   0.0000       0.469059        12.7638 
  69   0.0000       0.480029        13.0622 
  70   0.0000       0.489678        13.3248 
  71   0.0000       0.495431        13.4814 
  72   0.0000       0.508502        13.8370 
  73   0.0000       0.511423        13.9165 
  74   0.0000       0.528296        14.3757 
  75   0.0000       0.542567        14.7640 
  76   0.0000       0.542599        14.7649 
  77   0.0000       0.556837        15.1523 
  78   0.0000       0.558109        15.1869 
  79   0.0000       0.564592        15.3633 
  80   0.0000       0.566857        15.4250 
  81   0.0000       0.574223        15.6254 
  82   0.0000       0.581411        15.8210 
  83   0.0000       0.584363        15.9013 
  84   0.0000       0.590824        16.0771 
  85   0.0000       0.595377        16.2010 
  86   0.0000       0.618103        16.8194 
  87   0.0000       0.621529        16.9127 
  88   0.0000       0.633889        17.2490 
  89   0.0000       0.646105        17.5814 
  90   0.0000       0.646394        17.5893 
  91   0.0000       0.656643        17.8682 
  92   0.0000       0.667853        18.1732 
  93   0.0000       0.670263        18.2388 
  94   0.0000       0.682195        18.5635 
  95   0.0000       0.686857        18.6903 
  96   0.0000       0.687071        18.6961 
  97   0.0000       0.701194        19.0805 
  98   0.0000       0.701700        19.0942 
  99   0.0000       0.718318        19.5464 
 100   0.0000       0.733214        19.9518 
 101   0.0000       0.735839        20.0232 
 102   0.0000       0.761342        20.7172 
 103   0.0000       0.771358        20.9897 
 104   0.0000       0.773681        21.0529 
 105   0.0000       0.791012        21.5245 
 106   0.0000       0.797337        21.6966 
 107   0.0000       0.807531        21.9740 
 108   0.0000       0.817489        22.2450 
 109   0.0000       0.844355        22.9761 
 110   0.0000       0.852163        23.1885 
 111   0.0000       0.854787        23.2599 
 112   0.0000       0.868387        23.6300 
 113   0.0000       0.871362        23.7110 
 114   0.0000       0.880830        23.9686 
 115   0.0000       0.888516        24.1778 
 116   0.0000       0.892052        24.2740 
 117   0.0000       0.914263        24.8784 
 118   0.0000       0.916465        24.9383 
 119   0.0000       0.932718        25.3805 
 120   0.0000       0.955440        25.9988 
 121   0.0000       0.961817        26.1724 
 122   0.0000       0.988268        26.8921 
 123   0.0000       0.989217        26.9180 
 124   0.0000       1.001744        27.2588 
 125   0.0000       1.007568        27.4173 
 126   0.0000       1.008980        27.4557 
 127   0.0000       1.024236        27.8709 
 128   0.0000       1.029438        28.0124 
 129   0.0000       1.070305        29.1245 
 130   0.0000       1.077698        29.3257 
 131   0.0000       1.081224        29.4216 
 132   0.0000       1.099969        29.9317 
 133   0.0000       1.106954        30.1218 
 134   0.0000       1.118495        30.4358 
 135   0.0000       1.154613        31.4186 
 136   0.0000       1.156997        31.4835 
 137   0.0000       1.163339        31.6561 
 138   0.0000       1.208224        32.8775 
 139   0.0000       1.212543        32.9950 
 140   0.0000       1.241096        33.7719 
 141   0.0000       1.256948        34.2033 
 142   0.0000       1.295256        35.2457 
 143   0.0000       1.317046        35.8386 
 144   0.0000       1.378640        37.5147 
 145   0.0000       1.430024        38.9129 
 146   0.0000       1.444476        39.3062 
 147   0.0000       1.454996        39.5924 
 148   0.0000       1.511073        41.1184 
 149   0.0000       1.539327        41.8872 
 150   0.0000       1.615825        43.9688 
 151   0.0000       1.653327        44.9893 
 152   0.0000       1.665828        45.3295 
 153   0.0000       1.691446        46.0266 
 154   0.0000       1.697962        46.2039 
 155   0.0000       1.787373        48.6369 
 156   0.0000       1.793701        48.8091 
 157   0.0000       1.833404        49.8895 
 158   0.0000       1.843618        50.1674 
 159   0.0000       1.906497        51.8784 
 160   0.0000       1.913619        52.0722 
 161   0.0000       1.951234        53.0958 
 162   0.0000       1.982665        53.9511 
 163   0.0000       2.022398        55.0322 
 164   0.0000       2.033916        55.3457 
 165   0.0000       2.111902        57.4678 
 166   0.0000       2.140242        58.2389 
 167   0.0000       2.142295        58.2948 
 168   0.0000       2.165960        58.9388 
 169   0.0000       2.225813        60.5675 
 170   0.0000       2.261655        61.5428 
 171   0.0000       2.267525        61.7025 
 172   0.0000       2.301554        62.6285 
 173   0.0000       2.369278        64.4713 
 174   0.0000       2.386945        64.9521 
 175   0.0000       2.411236        65.6131 
 176   0.0000       2.491663        67.8016 
 177   0.0000       2.517452        68.5034 
 178   0.0000       2.576984        70.1233 
 179   0.0000       2.680781        72.9477 
 180   0.0000       2.691774        73.2469 
 181   0.0000       2.795459        76.0683 
 182   0.0000       2.888516        78.6005 
 183   0.0000       3.016784        82.0909 
 184   0.0000       3.078973        83.7831 
 185   0.0000       3.206703        87.2588 
 186   0.0000       3.214950        87.4832 
 187   0.0000       3.342319        90.9491 
 188   0.0000       3.361717        91.4770 
 189   0.0000       3.417314        92.9898 
 190   0.0000       3.533069        96.1397 
 191   0.0000       3.600528        97.9754 
 192   0.0000       3.610063        98.2348 
 193   0.0000       3.726349       101.3991 
 194   0.0000       3.775803       102.7448 
 195   0.0000       3.876311       105.4798 
 196   0.0000       3.886380       105.7538 
 197   0.0000       3.965138       107.8969 
 198   0.0000       4.003497       108.9407 
 199   0.0000       4.084249       111.1381 
 200   0.0000       4.101376       111.6041 
 201   0.0000       4.139787       112.6493 
 202   0.0000       4.177725       113.6817 
 203   0.0000       4.257698       115.8579 
 204   0.0000       4.311422       117.3197 
 205   0.0000       4.353622       118.4681 
 206   0.0000       4.411977       120.0560 
 207   0.0000       4.441629       120.8629 
 208   0.0000       4.472073       121.6913 
 209   0.0000       4.532357       123.3317 
 210   0.0000       4.580181       124.6330 
 211   0.0000       4.587994       124.8457 
 212   0.0000       4.635833       126.1474 
 213   0.0000       4.640030       126.2616 
 214   0.0000       4.764337       129.6442 
 215   0.0000       4.768001       129.7439 
 216   0.0000       4.814675       131.0140 
 217   0.0000       4.848808       131.9428 
 218   0.0000       4.892504       133.1318 
 219   0.0000       5.013558       136.4259 
 220   0.0000       5.064680       137.8170 
 221   0.0000       5.116255       139.2204 
 222   0.0000       5.233817       142.4194 
 223   0.0000       5.293504       144.0436 
 224   0.0000       5.328212       144.9880 
 225   0.0000       5.351688       145.6268 
 226   0.0000       5.357452       145.7837 
 227   0.0000       5.416461       147.3894 
 228   0.0000       5.512633       150.0064 
 229   0.0000       5.685231       154.7030 
 230   0.0000       5.778259       157.2344 
 231   0.0000       5.849865       159.1829 
 232   0.0000       5.866285       159.6297 
 233   0.0000       5.928350       161.3186 
 234   0.0000       5.962660       162.2522 
 235   0.0000       6.058462       164.8591 
 236   0.0000       6.134905       166.9393 
 237   0.0000       6.160914       167.6470 
 238   0.0000       6.333987       172.3566 
 239   0.0000       6.495078       176.7401 
 240   0.0000       6.573234       178.8668 
 241   0.0000       6.601314       179.6309 
 242   0.0000       6.603743       179.6970 
 243   0.0000       6.724039       182.9704 
 244   0.0000       6.846249       186.2959 
 245   0.0000       7.045949       191.7300 
 246   0.0000       7.512486       204.4251 
 247   0.0000       7.516023       204.5214 
 248   0.0000       7.658064       208.3865 
 249   0.0000       7.976174       217.0427 
 250   0.0000       8.233816       224.0535 
 251   0.0000       8.341758       226.9908 
 252   0.0000       8.480458       230.7650 
 253   0.0000       8.661325       235.6866 
 254   0.0000       8.844084       240.6598 
 255   0.0000       8.890330       241.9182 
 256   0.0000       8.969649       244.0765 
 257   0.0000       9.097970       247.5683 
 258   0.0000       9.274978       252.3850 
 259   0.0000       9.368346       254.9256 
 260   0.0000       9.390020       255.5154 
 261   0.0000       9.541880       259.6477 
 262   0.0000       9.830952       267.5138 
 263   0.0000      10.058941       273.7177 
 264   0.0000      10.200279       277.5637 
 265   0.0000      10.295032       280.1421 
 266   0.0000      10.300537       280.2919 
 267   0.0000      10.366006       282.0734 
 268   0.0000      10.507183       285.9150 
 269   0.0000      10.577090       287.8172 
 270   0.0000      10.585088       288.0349 
 271   0.0000      10.676774       290.5298 
 272   0.0000      10.686247       290.7876 
 273   0.0000      10.774585       293.1914 
 274   0.0000      10.785184       293.4798 
 275   0.0000      10.811383       294.1927 
 276   0.0000      11.103802       302.1498 
 277   0.0000      11.114155       302.4315 
 278   0.0000      11.121289       302.6257 
 279   0.0000      11.235803       305.7417 
 280   0.0000      11.274516       306.7952 
 281   0.0000      11.322873       308.1110 
 282   0.0000      11.567177       314.7589 
 283   0.0000      11.569674       314.8268 
 284   0.0000      11.642584       316.8108 
 285   0.0000      11.688346       318.0561 
 286   0.0000      11.698429       318.3304 
 287   0.0000      11.772504       320.3461 
 288   0.0000      11.862949       322.8073 
 289   0.0000      12.003375       326.6284 
 290   0.0000      12.011650       326.8536 
 291   0.0000      12.013513       326.9043 
 292   0.0000      12.081059       328.7423 
 293   0.0000      12.102484       329.3253 
 294   0.0000      12.205172       332.1196 
 295   0.0000      12.227421       332.7250 
 296   0.0000      12.242115       333.1249 
 297   0.0000      12.323475       335.3388 
 298   0.0000      12.370443       336.6169 
 299   0.0000      12.524608       340.8119 
 300   0.0000      12.529084       340.9337 
 301   0.0000      12.585125       342.4587 
 302   0.0000      12.597172       342.7865 
 303   0.0000      12.701681       345.6303 
 304   0.0000      12.743239       346.7612 
 305   0.0000      12.792089       348.0904 
 306   0.0000      12.797698       348.2431 
 307   0.0000      12.987400       353.4051 
 308   0.0000      13.036373       354.7377 
 309   0.0000      13.101434       356.5081 
 310   0.0000      13.243910       360.3851 
 311   0.0000      13.311230       362.2170 
 312   0.0000      13.403190       364.7193 
 313   0.0000      13.654559       371.5594 
 314   0.0000      13.718982       373.3125 
 315   0.0000      13.830957       376.3595 
 316   0.0000      13.939820       379.3218 
 317   0.0000      13.950944       379.6245 
 318   0.0000      14.352732       390.5577 
 319   0.0000      15.018478       408.6736 
 320   0.0000      15.024878       408.8477 
 321   0.0000      15.337961       417.3671 
 322   0.0000      15.415146       419.4674 
 323   0.0000      15.821761       430.5320 
 324   0.0000      16.167982       439.9532 
 325   0.0000      16.254712       442.3132 
 326   0.0000      16.716097       454.8681 
 327   0.0000      16.722866       455.0523 
 328   0.0000      16.951028       461.2609 
 329   0.0000      16.973750       461.8792 
 330   0.0000      16.983657       462.1488 
 331   0.0000      17.093053       465.1256 
 332   0.0000      17.143250       466.4915 
 333   0.0000      17.290342       470.4941 
 334   0.0000      17.337748       471.7841 
 335   0.0000      17.755935       483.1636 
 336   0.0000      18.030732       490.6412 
 337   0.0000      18.085017       492.1183 
 338   0.0000      18.308852       498.2092 
 339   0.0000      18.400116       500.6926 
 340   0.0000      18.663663       507.8641 
 341   0.0000      18.674513       508.1593 
 342   0.0000      18.859698       513.1985 
 343   0.0000      18.901507       514.3362 
 344   0.0000      18.909641       514.5575 
 345   0.0000      19.975928       543.5726 
 346   0.0000      20.231227       550.5197 
 347   0.0000      20.347163       553.6745 
 348   0.0000      20.799869       565.9932 
 349   0.0000      22.311242       607.1198 
 350   0.0000      22.987412       625.5193 
 351   0.0000      23.045298       627.0944 
 352   0.0000      23.500385       639.4780 
 353   0.0000      23.644954       643.4119 
 354   0.0000      23.925400       651.0432 
 355   0.0000      24.167409       657.6286 
 356   0.0000      25.511815       694.2118 
 357   0.0000      26.501428       721.1405 
 358   0.0000      30.158594       820.6571 
 359   0.0000      31.919783       868.5815 
 360   0.0000      32.011948       871.0894 
 361   0.0000      32.060523       872.4112 
 362   0.0000      32.316639       879.3805 
 363   0.0000      32.712393       890.1495 
 364   0.0000      33.873489       921.7445 
 365   0.0000      34.278529       932.7662 
 366   0.0000      34.513650       939.1642 
 367   0.0000      40.971153      1114.8817 
 368   0.0000      66.543175      1810.7318 
 369   0.0000      66.580123      1811.7373 
 370   0.0000      67.052068      1824.5795 
 371   0.0000      67.198945      1828.5763 
 372   0.0000      68.636269      1867.6878 
 373   0.0000      75.019786      2041.3921 
 374   0.0000      91.043963      2477.4322 
 375   0.0000      91.138152      2479.9952 
 376   0.0000      92.335773      2512.5841 
 377   0.0000     143.328028      3900.1539 

                    ********************************
                    * MULLIKEN POPULATION ANALYSIS *
                    ********************************

--------------------------------------------
MULLIKEN ATOMIC CHARGES AND SPIN POPULATIONS
--------------------------------------------
   0 C :    0.155769    0.446497
   1 H :    0.030385    0.181150
   2 O :   -0.186153    0.372353
Sum of atomic charges         :   -0.0000000
Sum of atomic spin populations:    1.0000000

-----------------------------------------------------
MULLIKEN REDUCED ORBITAL CHARGES AND SPIN POPULATIONS
-----------------------------------------------------
CHARGE
  0 C s       :     3.338114  s :     3.338114
      pz      :     0.568373  p :     2.361323
      px      :     0.871909
      py      :     0.921041
      dz2     :     0.008243  d :     0.130744
      dxz     :     0.005055
      dyz     :     0.022862
      dx2y2   :     0.065006
      dxy     :     0.029577
      f0      :     0.001071  f :     0.012093
      f+1     :     0.000549
      f-1     :     0.000848
      f+2     :     0.000812
      f-2     :     0.001923
      f+3     :     0.002062
      f-3     :     0.004827
      g0      :     0.000060  g :     0.001830
      g+1     :     0.000126
      g-1     :     0.000281
      g+2     :     0.000117
      g-2     :     0.000098
      g+3     :     0.000247
      g-3     :    -0.000002
      g+4     :     0.000512
      g-4     :     0.000392
      h0      :    -0.000002  h :     0.000128
      h+1     :    -0.000001
      h-1     :     0.000006
      h+2     :     0.000013
      h-2     :     0.000008
      h+3     :     0.000012
      h-3     :     0.000003
      h+4     :     0.000007
      h-4     :     0.000017
      h+5     :     0.000030
      h-5     :     0.000035
  1 H s       :     0.899535  s :     0.899535
      pz      :     0.012938  p :     0.063401
      px      :     0.032580
      py      :     0.017884
      dz2     :     0.002019  d :     0.003540
      dxz     :     0.002658
      dyz     :    -0.000157
      dx2y2   :    -0.001493
      dxy     :     0.000514
      f0      :     0.001257  f :     0.002613
      f+1     :     0.000571
      f-1     :     0.000142
      f+2     :     0.000229
      f-2     :     0.000249
      f+3     :    -0.000164
      f-3     :     0.000329
      g0      :     0.000021  g :     0.000527
      g+1     :     0.000267
      g-1     :     0.000029
      g+2     :     0.000055
      g-2     :     0.000035
      g+3     :    -0.000003
      g-3     :    -0.000007
      g+4     :     0.000044
      g-4     :     0.000085
  2 O s       :     3.864511  s :     3.864511
      pz      :     1.363913  p :     4.262652
      px      :     1.533855
      py      :     1.364884
      dz2     :     0.001845  d :     0.051602
      dxz     :     0.004562
      dyz     :     0.011357
      dx2y2   :     0.026794
      dxy     :     0.007045
      f0      :     0.000285  f :     0.006583
      f+1     :     0.000095
      f-1     :    -0.000027
      f+2     :     0.000323
      f-2     :     0.001093
      f+3     :     0.000765
      f-3     :     0.004049
      g0      :    -0.000021  g :     0.000725
      g+1     :    -0.000008
      g-1     :     0.000055
      g+2     :    -0.000067
      g-2     :     0.000011
      g+3     :     0.000149
      g-3     :     0.000000
      g+4     :     0.000329
      g-4     :     0.000276
      h0      :     0.000003  h :     0.000081
      h+1     :    -0.000016
      h-1     :    -0.000000
      h+2     :     0.000005
      h-2     :     0.000002
      h+3     :     0.000001
      h-3     :    -0.000022
      h+4     :     0.000002
      h-4     :     0.000008
      h+5     :     0.000084
      h-5     :     0.000014

SPIN
  0 C s       :     0.007011  s :     0.007011
      pz      :     0.011945  p :     0.412146
      px      :     0.081866
      py      :     0.318335
      dz2     :     0.003028  d :     0.028477
      dxz     :     0.001881
      dyz     :    -0.002501
      dx2y2   :     0.022764
      dxy     :     0.003304
      f0      :    -0.000291  f :    -0.001177
      f+1     :    -0.000225
      f-1     :     0.000092
      f+2     :     0.000358
      f-2     :    -0.000738
      f+3     :    -0.000250
      f-3     :    -0.000122
      g0      :     0.000005  g :     0.000000
      g+1     :    -0.000025
      g-1     :    -0.000015
      g+2     :     0.000009
      g-2     :    -0.000013
      g+3     :     0.000023
      g-3     :     0.000001
      g+4     :    -0.000088
      g-4     :     0.000104
      h0      :    -0.000003  h :     0.000041
      h+1     :    -0.000003
      h-1     :    -0.000002
      h+2     :    -0.000000
      h-2     :    -0.000001
      h+3     :     0.000006
      h-3     :     0.000003
      h+4     :    -0.000001
      h-4     :     0.000005
      h+5     :     0.000026
      h-5     :     0.000010
  1 H s       :     0.161731  s :     0.161731
      pz      :     0.003417  p :     0.019323
      px      :     0.009807
      py      :     0.006098
      dz2     :     0.000620  d :     0.000547
      dxz     :     0.000671
      dyz     :    -0.000425
      dx2y2   :     0.000016
      dxy     :    -0.000336
      f0      :     0.000018  f :    -0.000284
      f+1     :    -0.000005
      f-1     :     0.000121
      f+2     :    -0.000080
      f-2     :    -0.000375
      f+3     :     0.000336
      f-3     :    -0.000298
      g0      :     0.000001  g :    -0.000168
      g+1     :    -0.000011
      g-1     :    -0.000023
      g+2     :    -0.000023
      g-2     :     0.000016
      g+3     :    -0.000001
      g-3     :    -0.000089
      g+4     :     0.000028
      g-4     :    -0.000066
  2 O s       :     0.046294  s :     0.046294
      pz      :    -0.013397  p :     0.309987
      px      :     0.173875
      py      :     0.149509
      dz2     :     0.001139  d :     0.014674
      dxz     :     0.000037
      dyz     :    -0.000288
      dx2y2   :     0.012431
      dxy     :     0.001355
      f0      :     0.000096  f :     0.001275
      f+1     :    -0.000079
      f-1     :    -0.000138
      f+2     :    -0.000019
      f-2     :    -0.000187
      f+3     :    -0.000409
      f-3     :     0.002010
      g0      :    -0.000053  g :     0.000103
      g+1     :    -0.000020
      g-1     :    -0.000002
      g+2     :    -0.000096
      g-2     :    -0.000038
      g+3     :     0.000040
      g-3     :    -0.000002
      g+4     :     0.000245
      g-4     :     0.000029
      h0      :    -0.000002  h :     0.000021
      h+1     :    -0.000014
      h-1     :    -0.000007
      h+2     :     0.000004
      h-2     :    -0.000004
      h+3     :    -0.000007
      h-3     :    -0.000015
      h+4     :    -0.000003
      h-4     :     0.000003
      h+5     :     0.000065
      h-5     :    -0.000000


                     *******************************
                     * LOEWDIN POPULATION ANALYSIS *
                     *******************************

-------------------------------------------
LOEWDIN ATOMIC CHARGES AND SPIN POPULATIONS
-------------------------------------------
   0 C :    0.215206    0.481245
   1 H :   -0.571029    0.152309
   2 O :    0.355823    0.366445

----------------------------------------------------
LOEWDIN REDUCED ORBITAL CHARGES AND SPIN POPULATIONS
----------------------------------------------------
CHARGE
  0 C s       :     2.746054  s :     2.746054
      pz      :     0.477420  p :     2.226420
      px      :     0.862585
      py      :     0.886415
      dz2     :     0.058970  d :     0.560259
      dxz     :     0.027665
      dyz     :     0.073659
      dx2y2   :     0.229789
      dxy     :     0.170176
      f0      :     0.016691  f :     0.198916
      f+1     :     0.010492
      f-1     :     0.019057
      f+2     :     0.010076
      f-2     :     0.023840
      f+3     :     0.047417
      f-3     :     0.071344
      g0      :     0.001791  g :     0.046496
      g+1     :     0.002188
      g-1     :     0.006143
      g+2     :     0.003521
      g-2     :     0.003618
      g+3     :     0.006237
      g-3     :     0.000031
      g+4     :     0.014636
      g-4     :     0.008332
      h0      :     0.000613  h :     0.006649
      h+1     :     0.000291
      h-1     :     0.000505
      h+2     :     0.000142
      h-2     :     0.000782
      h+3     :     0.000745
      h-3     :     0.000407
      h+4     :     0.000118
      h-4     :     0.000364
      h+5     :     0.001349
      h-5     :     0.001334
  1 H s       :     0.760805  s :     0.760805
      pz      :     0.051259  p :     0.359269
      px      :     0.220665
      py      :     0.087345
      dz2     :     0.026744  d :     0.253429
      dxz     :     0.056138
      dyz     :     0.003674
      dx2y2   :     0.063610
      dxy     :     0.103263
      f0      :     0.012448  f :     0.124105
      f+1     :     0.015815
      f-1     :     0.006448
      f+2     :     0.010011
      f-2     :     0.007402
      f+3     :     0.031035
      f-3     :     0.040947
      g0      :     0.004615  g :     0.073420
      g+1     :     0.009218
      g-1     :     0.002353
      g+2     :     0.004254
      g-2     :     0.008565
      g+3     :     0.000228
      g-3     :     0.005757
      g+4     :     0.020535
      g-4     :     0.017895
  2 O s       :     3.227387  s :     3.227387
      pz      :     1.144663  p :     3.977906
      px      :     1.377766
      py      :     1.455477
      dz2     :     0.034076  d :     0.281467
      dxz     :     0.008664
      dyz     :     0.022903
      dx2y2   :     0.118952
      dxy     :     0.096872
      f0      :     0.005108  f :     0.112311
      f+1     :     0.010420
      f-1     :     0.011835
      f+2     :     0.002529
      f-2     :     0.007006
      f+3     :     0.020833
      f-3     :     0.054579
      g0      :     0.002773  g :     0.034507
      g+1     :     0.000482
      g-1     :     0.001593
      g+2     :     0.002477
      g-2     :     0.005311
      g+3     :     0.001740
      g-3     :     0.000018
      g+4     :     0.010639
      g-4     :     0.009475
      h0      :     0.000179  h :     0.010598
      h+1     :     0.001068
      h-1     :     0.000753
      h+2     :     0.000124
      h-2     :     0.000263
      h+3     :     0.000660
      h-3     :     0.002172
      h+4     :     0.000041
      h-4     :     0.000229
      h+5     :     0.004540
      h-5     :     0.000570

SPIN
  0 C s       :     0.055865  s :     0.055865
      pz      :     0.009912  p :     0.284088
      px      :     0.088607
      py      :     0.185568
      dz2     :     0.005867  d :     0.112402
      dxz     :     0.000532
      dyz     :    -0.003918
      dx2y2   :     0.086187
      dxy     :     0.023734
      f0      :    -0.000079  f :     0.022934
      f+1     :     0.000503
      f-1     :     0.000471
      f+2     :     0.000087
      f-2     :    -0.000954
      f+3     :     0.002423
      f-3     :     0.020483
      g0      :     0.000113  g :     0.005323
      g+1     :    -0.000054
      g-1     :    -0.000004
      g+2     :     0.000925
      g-2     :     0.000342
      g+3     :     0.000029
      g-3     :    -0.000002
      g+4     :     0.003102
      g-4     :     0.000871
      h0      :     0.000004  h :     0.000633
      h+1     :     0.000011
      h-1     :     0.000009
      h+2     :    -0.000003
      h-2     :    -0.000002
      h+3     :     0.000020
      h-3     :     0.000092
      h+4     :    -0.000003
      h-4     :     0.000004
      h+5     :     0.000342
      h-5     :     0.000160
  1 H s       :     0.061009  s :     0.061009
      pz      :     0.000751  p :     0.055439
      px      :     0.043844
      py      :     0.010844
      dz2     :     0.004266  d :     0.018097
      dxz     :     0.000680
      dyz     :    -0.000153
      dx2y2   :     0.001780
      dxy     :     0.011524
      f0      :     0.000092  f :     0.009523
      f+1     :     0.000142
      f-1     :     0.000139
      f+2     :     0.000175
      f-2     :    -0.000304
      f+3     :     0.000848
      f-3     :     0.008432
      g0      :     0.000032  g :     0.008242
      g+1     :     0.000041
      g-1     :    -0.000057
      g+2     :     0.000299
      g-2     :     0.000117
      g+3     :     0.000015
      g-3     :    -0.000227
      g+4     :     0.000652
      g-4     :     0.007369
  2 O s       :     0.008834  s :     0.008834
      pz      :    -0.008316  p :     0.224808
      px      :     0.138113
      py      :     0.095011
      dz2     :     0.001088  d :     0.082620
      dxz     :     0.000122
      dyz     :     0.000782
      dx2y2   :     0.075771
      dxy     :     0.004857
      f0      :     0.000340  f :     0.034724
      f+1     :     0.001672
      f-1     :     0.001375
      f+2     :     0.000174
      f-2     :     0.000064
      f+3     :     0.002706
      f-3     :     0.028394
      g0      :     0.000161  g :     0.011641
      g+1     :     0.000017
      g-1     :     0.000107
      g+2     :     0.001640
      g-2     :     0.000397
      g+3     :     0.000086
      g-3     :     0.000009
      g+4     :     0.002813
      g-4     :     0.006412
      h0      :     0.000018  h :     0.003818
      h+1     :     0.000221
      h-1     :     0.000045
      h+2     :     0.000014
      h-2     :     0.000015
      h+3     :     0.000096
      h-3     :     0.000963
      h+4     :    -0.000009
      h-4     :     0.000015
      h+5     :     0.002397
      h-5     :     0.000043


                      *****************************
                      * MAYER POPULATION ANALYSIS *
                      *****************************

  NA   - Mulliken gross atomic population
  ZA   - Total nuclear charge
  QA   - Mulliken gross atomic charge
  VA   - Mayer's total valence
  BVA  - Mayer's bonded valence
  FA   - Mayer's free valence

  ATOM       NA         ZA         QA         VA         BVA        FA
  0 C      5.8442     6.0000     0.1558     3.6127     3.2577     0.3549
  1 H      0.9696     1.0000     0.0304     1.0675     1.0378     0.0297
  2 O      8.1862     8.0000    -0.1862     2.4129     2.3192     0.0936

  Mayer bond orders larger than 0.1
B(  0-C ,  1-H ) :   0.9881 B(  0-C ,  2-O ) :   2.2696 

-------
TIMINGS
-------

Total SCF time: 0 days 0 hours 12 min 42 sec 

Total time                  ....     762.170 sec
Sum of individual times     ....     761.331 sec  ( 99.9%)

Fock matrix formation       ....     757.891 sec  ( 99.4%)
  XC integration            ....      15.044 sec  (  2.0% of F)
    Basis function eval.    ....       0.975 sec  (  6.5% of XC)
    Density eval.           ....       3.154 sec  ( 21.0% of XC)
    XC-Functional eval.     ....       0.128 sec  (  0.9% of XC)
    XC-Potential eval.      ....      10.301 sec  ( 68.5% of XC)
Diagonalization             ....       1.502 sec  (  0.2%)
Density matrix formation    ....       0.023 sec  (  0.0%)
Population analysis         ....       0.099 sec  (  0.0%)
Initial guess               ....       0.655 sec  (  0.1%)
Orbital Transformation      ....       0.000 sec  (  0.0%)
Orbital Orthonormalization  ....       0.000 sec  (  0.0%)
DIIS solution               ....       0.840 sec  (  0.1%)
Grid generation             ....       0.321 sec  (  0.0%)

-------------------------   --------------------
FINAL SINGLE POINT ENERGY      -113.782358905017
-------------------------   --------------------


                            ***************************************
                            *     ORCA property calculations      *
                            ***************************************

                                    ---------------------
                                    Active property flags
                                    ---------------------
   (+) Dipole Moment
   (+) Polarizability


------------------------------------------------------------------------------
                       ORCA ELECTRIC PROPERTIES CALCULATION
------------------------------------------------------------------------------

Dipole Moment Calculation                       ... on
Quadrupole Moment Calculation                   ... off
Polarizability Calculation                      ... Analytic (CP-SCF)
GBWName                                         ... hco_pbe.gbw
Electron density file                           ... hco_pbe.scfp.tmp
The origin for moment calculation is the CENTER OF MASS  = (-0.543719,  1.086385  0.000000)

-------------
DIPOLE MOMENT
-------------
                                X             Y             Z
Electronic contribution:     -0.70265       0.32783      -0.00000
Nuclear contribution   :      1.27870      -0.53243       0.00000
                        -----------------------------------------
Total Dipole Moment    :      0.57605      -0.20460      -0.00000
                        -----------------------------------------
Magnitude (a.u.)       :      0.61130
Magnitude (Debye)      :      1.55381



--------------------
Rotational spectrum 
--------------------
 
Rotational constants in cm-1:    22.707377     1.478412     1.388041 
Rotational constants in MHz : 680750.036446 44321.680166 41612.415293 

 Dipole components along the rotational axes: 
x,y,z [a.u.] :     0.501208    -0.349978    -0.000000 
x,y,z [Debye]:     1.273968    -0.889573    -0.000000 

 
Transforming and storing MO dipole integrals   ... done

                ... starting polarizability calculation

Opening the Dipole integral file               ... (hco_pbe.dmo.tmp) done
Reading Dipole-MO integrals                    ... done
Solving CP-SCF equations                       ... 

           ************************************************************
           *        Program running with 4 parallel MPI-processes     *
           *              working on a common directory               *
           ************************************************************

------------------------------------------------------------------------------
                           ORCA CP-SCF CALCULATION
------------------------------------------------------------------------------

Input orbitals are from        ... hco_pbe.gbw
Input Perturbation             ... hco_pbe.cpv.tmp
Wavefunction output            ... hco_pbe.cpu.tmp
Perturbation mode              ... Real perturbation (singlet)
Solver                         ... POPLE
Max. number of iterations      ... 200
Convergence tolerance          ... 1.000e-06
Integral handling              ... Direct
Number of perturbations        ... 3
Number of operators            ... 2
Orbital ranges used for CP-SCF:
 Operator 0:  Orbitals   0...  7  to   8...377
 Operator 1:  Orbitals   0...  6  to   7...377
DFT calculation                         ... on
Exchange functional (SCF)               ... PBE
Exchange functional (CP-SCF)            ... PBE
   PBE kappa parameter  XKappa (SCF)    ...  0.804000
   PBE kappa parameter  XKappa (CP-SCF) ...  0.804000
   PBE mue parameter   XMuePBE (SCF)    ...  0.219520
   PBE mue parameter   XMuePBE (CP-SCF) ...  0.219520
Correlation functional (SCF)            ... PBE
Correlation functional (CP-SCF)         ... PBE
   PBE beta parameter CBetaPBE (SCF)    ...  0.066725
   PBE beta parameter CBetaPBE (CP-SCF) ...  0.066725
 LDA part of GGA corr.  LDAOpt (SCF)    ... PW91-LDA
 LDA part of GGA corr.  LDAOpt (CP-SCF) ... PW91-LDA
Variables per vector in CP-SCF ... 5557
Number of vectors sought       ... 3
Recalculating density on grid  ... done
Calculating the xc-kernel      ... done
     CP-SCF ITERATION   0: 
     CP-SCF ITERATION   1:      0.701715534138
     CP-SCF ITERATION   2:      0.048131905696
     CP-SCF ITERATION   3:      0.006985563409
     CP-SCF ITERATION   4:      0.000596847798
     CP-SCF ITERATION   5:      0.000060186132
     CP-SCF ITERATION   6:      0.000003457794
     CP-SCF ITERATION   7:      0.000000566198
done
Reading CP-SCF coefficients                    ... done
Doing the polarizability tensor   ... done
Cleaning up                                    ... done

-------------------------
THE POLARIZABILITY TENSOR
-------------------------

The raw cartesian tensor (atomic units):
   19.58181     -2.06251      0.00000  
   -2.06251     20.69720     -0.00000  
    0.00000     -0.00000     13.90633  
diagonalized tensor: 
   13.90633     18.00292     22.27609  

   -0.00000     -0.79405      0.60786  
    0.00000     -0.60786     -0.79405  
    1.00000     -0.00000      0.00000  

Isotropic polarizability :  18.06178


Timings for individual modules:

Sum of individual times         ...     1421.317 sec (=  23.689 min)
GTO integral calculation        ...        1.546 sec (=   0.026 min)   0.1 %
SCF iterations                  ...      762.471 sec (=  12.708 min)  53.6 %
Solution of CP-SCF eqns.        ...      657.299 sec (=  10.955 min)  46.2 %
                             ****ORCA TERMINATED NORMALLY****
TOTAL RUN TIME: 0 days 0 hours 23 minutes 42 seconds 145 msec
