
                                 *****************
                                 * O   R   C   A *
                                 *****************

           --- An Ab Initio, DFT and Semiempirical electronic structure package ---

                  #######################################################
                  #                        -***-                        #
                  #          Department of theory and spectroscopy      #
                  #               Directorship: Frank Neese             #
                  #        Max Planck Institute fuer Kohlenforschung    #
                  #                Kaiser Wilhelm Platz 1               #
                  #                 D-45470 Muelheim/Ruhr               #
                  #                      Germany                        #
                  #                                                     #
                  #                  All rights reserved                #
                  #                        -***-                        #
                  #######################################################


                         Program Version 4.1.2  - RELEASE  -


 With contributions from (in alphabetic order):
   Daniel Aravena         : Magnetic Properties
   Michael Atanasov       : Ab Initio Ligand Field Theory
   Alexander A. Auer      : GIAO ZORA
   Ute Becker             : Parallelization
   Giovanni Bistoni       : ED, Open-shell LED
   Martin Brehm           : Molecular dynamics
   Dmytro Bykov           : SCF Hessian
   Vijay G. Chilkuri      : MRCI spin determinant printing
   Dipayan Datta          : RHF DLPNO-CCSD density
   Achintya Kumar Dutta   : EOM-CC, STEOM-CC
   Dmitry Ganyushin       : Spin-Orbit,Spin-Spin,Magnetic field MRCI
   Miquel Garcia          : C-PCM Hessian
   Yang Guo               : DLPNO-NEVPT2, CIM, IAO-localization
   Andreas Hansen         : Spin unrestricted coupled pair/coupled cluster methods
   Benjamin Helmich-Paris : CASSCF linear response (MC-RPA)
   Lee Huntington         : MR-EOM, pCC
   Robert Izsak           : Overlap fitted RIJCOSX, COSX-SCS-MP3, EOM
   Christian Kollmar      : KDIIS, OOCD, Brueckner-CCSD(T), CCSD density
   Simone Kossmann        : Meta GGA functionals, TD-DFT gradient, OOMP2, MP2 Hessian
   Martin Krupicka        : AUTO-CI
   Lucas Lang             : DCDCAS
   Dagmar Lenk            : GEPOL surface, SMD
   Dimitrios Liakos       : Extrapolation schemes; parallel MDCI
   Dimitrios Manganas     : ROCIS; embedding schemes
   Dimitrios Pantazis     : SARC Basis sets
   Taras Petrenko         : DFT Hessian,TD-DFT gradient, ASA, ECA, R-Raman, ABS, FL, XAS/XES, NRVS
   Peter Pinski           : DLPNO-MP2, DLPNO-MP2 Gradient
   Christoph Reimann      : Effective Core Potentials
   Marius Retegan         : Local ZFS, SOC
   Christoph Riplinger    : Optimizer, TS searches, QM/MM, DLPNO-CCSD(T), (RO)-DLPNO pert. Triples
   Tobias Risthaus        : Range-separated hybrids, TD-DFT gradient, RPA, STAB
   Michael Roemelt        : Restricted open shell CIS
   Masaaki Saitow         : Open-shell DLPNO
   Barbara Sandhoefer     : DKH picture change effects
   Avijit Sen             : IP-ROCIS
   Kantharuban Sivalingam : CASSCF convergence, NEVPT2, FIC-MRCI
   Bernardo de Souza      : ESD, SOC TD-DFT
   Georgi Stoychev        : AutoAux, RI-MP2 NMR
   Willem Van den Heuvel  : Paramagnetic NMR
   Boris Wezisla          : Elementary symmetry handling
   Frank Wennmohs         : Technical directorship


 We gratefully acknowledge several colleagues who have allowed us to
 interface, adapt or use parts of their codes:
   Stefan Grimme, W. Hujo, H. Kruse,             : VdW corrections, initial TS optimization,
                  C. Bannwarth                     DFT functionals, gCP, sTDA/sTD-DF
   Ed Valeev                                     : LibInt (2-el integral package), F12 methods
   Garnet Chan, S. Sharma, J. Yang, R. Olivares  : DMRG
   Ulf Ekstrom                                   : XCFun DFT Library
   Mihaly Kallay                                 : mrcc  (arbitrary order and MRCC methods)
   Andreas Klamt, Michael Diedenhofen            : otool_cosmo (COSMO solvation model)
   Jiri Pittner, Ondrej Demel                    : Mk-CCSD
   Frank Weinhold                                : gennbo (NPA and NBO analysis)
   Christopher J. Cramer and Donald G. Truhlar   : smd solvation model
   Lars Goerigk                                  : TD-DFT with DH, B97 family of functionals
   V. Asgeirsson, H. Jonsson                     : NEB implementation
   FAccTs GmbH                                   : IRC, NEB, NEB-TS, Multilevel


 Your calculation uses the libint2 library for the computation of 2-el integrals
 For citations please refer to: http://libint.valeyev.net

 This ORCA versions uses:
   CBLAS   interface :  Fast vector & matrix operations
   LAPACKE interface :  Fast linear algebra routines
   SCALAPACK package :  Parallel linear algebra routines


----- Orbital basis set information -----
Your calculation utilizes the basis: aug-pc-4
   H, C-F              : F. Jensen, J. Chem. Phys. 115, 9113 (2001).
                         F. Jensen, J. Chem. Phys. 116, 7372 (2002).
                         F. Jensen, J. Chem. Phys. 117, 9234 (2002).
   Si-Cl               : F. Jensen, T. Helgaker, J. Chem. Phys. 121, 3463 (2004).
   He-B, Ne-Mg, Al, Ar : F. Jensen, J. Phys. Chem. A 111, 11198 (2007).
   K, Ca, Ga-Kr        : F. Jensen, J. Chem. Phys. 136, 094110 (2012).
   Sc-Zn               : F. Jensen, J. Chem. Phys. 138, 014107 (2013).

================================================================================
                                        WARNINGS
                       Please study these warnings very carefully!
================================================================================


INFO   : the flag for use of LIBINT has been found!

================================================================================
                                       INPUT FILE
================================================================================
NAME = hconh2_pbe.inp
|  1> !uks pbe nori aug-pc-4 grid5 nofinalgrid verytightscf
|  2> 
|  3> %maxcore 1500
|  4> 
|  5> %pal nprocs 4 end
|  6> 
|  7> %scf
|  8> 	maxiter 200
|  9> end
| 10> %elprop
| 11> 	dipole true
| 12> 	 polar 1
| 13> 	 maxiter 200
| 14> end
| 15> 
| 16> * xyz 0 1
| 17> C 0.0000 0.4165 0.0000
| 18> O 1.1942 0.2217 0.0000
| 19> N -0.9373 -0.5551 0.0000
| 20> H -0.4299 1.4182 0.0000
| 21> H -0.6608 -1.5171 0.0000
| 22> H -1.9020 -0.2881 0.0000
| 23> *
| 24> 
| 25>                          ****END OF INPUT****
================================================================================

                       ****************************
                       * Single Point Calculation *
                       ****************************

---------------------------------
CARTESIAN COORDINATES (ANGSTROEM)
---------------------------------
  C      0.000000    0.416500    0.000000
  O      1.194200    0.221700    0.000000
  N     -0.937300   -0.555100    0.000000
  H     -0.429900    1.418200    0.000000
  H     -0.660800   -1.517100    0.000000
  H     -1.902000   -0.288100    0.000000

----------------------------
CARTESIAN COORDINATES (A.U.)
----------------------------
  NO LB      ZA    FRAG     MASS         X           Y           Z
   0 C     6.0000    0    12.011    0.000000    0.787071    0.000000
   1 O     8.0000    0    15.999    2.256711    0.418952    0.000000
   2 N     7.0000    0    14.007   -1.771240   -1.048987    0.000000
   3 H     1.0000    0     1.008   -0.812393    2.680010    0.000000
   4 H     1.0000    0     1.008   -1.248731   -2.866904    0.000000
   5 H     1.0000    0     1.008   -3.594259   -0.544430    0.000000

--------------------------------
INTERNAL COORDINATES (ANGSTROEM)
--------------------------------
 C      0   0   0     0.000000000000     0.00000000     0.00000000
 O      1   0   0     1.209983751957     0.00000000     0.00000000
 N      1   2   0     1.350014018446   124.70600338     0.00000000
 H      1   2   3     1.090053622534   122.49216824   180.00000085
 H      3   1   2     1.000947675955   119.99358902     0.00000000
 H      3   1   2     1.000967077381   118.50010283   180.00000000

---------------------------
INTERNAL COORDINATES (A.U.)
---------------------------
 C      0   0   0     0.000000000000     0.00000000     0.00000000
 O      1   0   0     2.286537917693     0.00000000     0.00000000
 N      1   2   0     2.551156771817   124.70600338     0.00000000
 H      1   2   3     2.059902817878   122.49216824   180.00000085
 H      3   1   2     1.891516981940   119.99358902     0.00000000
 H      3   1   2     1.891553645321   118.50010283   180.00000000

---------------------
BASIS SET INFORMATION
---------------------
There are 4 groups of distinct atoms

 Group   1 Type C   : 28s12p7d4f3g2h contracted to 9s8p7d4f3g2h pattern {11101111111/51111111/1111111/1111/111/11}
 Group   2 Type O   : 27s12p7d4f3g2h contracted to 9s8p7d4f3g2h pattern {1191111111/51111111/1111111/1111/111/11}
 Group   3 Type N   : 27s12p7d4f3g2h contracted to 9s8p7d4f3g2h pattern {1191111111/51111111/1111111/1111/111/11}
 Group   4 Type H   : 12s7p4d3f2g contracted to 8s7p4d3f2g pattern {51111111/1111111/1111/111/11}

Atom   0C    basis set group =>   1
Atom   1O    basis set group =>   2
Atom   2N    basis set group =>   3
Atom   3H    basis set group =>   4
Atom   4H    basis set group =>   4
Atom   5H    basis set group =>   4


           ************************************************************
           *        Program running with 4 parallel MPI-processes     *
           *              working on a common directory               *
           ************************************************************
------------------------------------------------------------------------------
                           ORCA GTO INTEGRAL CALCULATION
------------------------------------------------------------------------------

                         BASIS SET STATISTICS AND STARTUP INFO

 # of primitive gaussian shells          ...  250
 # of primitive gaussian functions       ...  802
 # of contracted shells                  ...  171
 # of contracted basis functions         ...  699
 Highest angular momentum                ...    5
 Maximum contraction depth               ...   11
 Integral package used                   ... LIBINT
 Integral threshhold            Thresh   ...  1.000e-12
 Primitive cut-off              TCut     ...  1.000e-14


------------------------------ INTEGRAL EVALUATION ----------------------------


 * One electron integrals 
 Pre-screening matrix                    ... done
 Shell pair data                         ... done (   0.005 sec)



           ************************************************************
           *        Program running with 4 parallel MPI-processes     *
           *              working on a common directory               *
           ************************************************************
-------------------------------------------------------------------------------
                                 ORCA SCF
-------------------------------------------------------------------------------

------------
SCF SETTINGS
------------
Hamiltonian:
 Density Functional     Method          .... DFT(GTOs)
 Exchange Functional    Exchange        .... PBE
   PBE kappa parameter   XKappa         ....  0.804000
   PBE mue parameter    XMuePBE         ....  0.219520
 Correlation Functional Correlation     .... PBE
   PBE beta parameter  CBetaPBE         ....  0.066725
 LDA part of GGA corr.  LDAOpt          .... PW91-LDA
 Gradients option       PostSCFGGA      .... off
   Density functional embedding theory  .... OFF
   NL short-range parameter             ....  6.400000


General Settings:
 Integral files         IntName         .... hconh2_pbe
 Hartree-Fock type      HFTyp           .... UHF
 Total Charge           Charge          ....    0
 Multiplicity           Mult            ....    1
 Number of Electrons    NEL             ....   24
 Basis Dimension        Dim             ....  699
 Nuclear Repulsion      ENuc            ....     71.5996504178 Eh

Convergence Acceleration:
 DIIS                   CNVDIIS         .... on
   Start iteration      DIISMaxIt       ....    12
   Startup error        DIISStart       ....  0.200000
   # of expansion vecs  DIISMaxEq       ....     5
   Bias factor          DIISBfac        ....   1.050
   Max. coefficient     DIISMaxC        ....  10.000
 Newton-Raphson         CNVNR           .... off
 SOSCF                  CNVSOSCF        .... off
 Level Shifting         CNVShift        .... on
   Level shift para.    LevelShift      ....    0.2500
   Turn off err/grad.   ShiftErr        ....    0.0010
 Zerner damping         CNVZerner       .... off
 Static damping         CNVDamp         .... on
   Fraction old density DampFac         ....    0.7000
   Max. Damping (<1)    DampMax         ....    0.9800
   Min. Damping (>=0)   DampMin         ....    0.0000
   Turn off err/grad.   DampErr         ....    0.1000
 Fernandez-Rico         CNVRico         .... off

SCF Procedure:
 Maximum # iterations   MaxIter         ....   200
 SCF integral mode      SCFMode         .... Direct
   Integral package                     .... LIBINT
 Reset frequency        DirectResetFreq ....    20
 Integral Threshold     Thresh          ....  1.000e-12 Eh
 Primitive CutOff       TCut            ....  1.000e-14 Eh

Convergence Tolerance:
 Convergence Check Mode ConvCheckMode   .... Total+1el-Energy
 Convergence forced     ConvForced      .... 0
 Energy Change          TolE            ....  1.000e-09 Eh
 1-El. energy change                    ....  1.000e-06 Eh
 DIIS Error             TolErr          ....  1.000e-08


Diagonalization of the overlap matrix:
Smallest eigenvalue                        ... 4.148e-08
Time for diagonalization                   ...    0.122 sec
Threshold for overlap eigenvalues          ... 1.000e-08
Number of eigenvalues below threshold      ... 0
Time for construction of square roots      ...    0.095 sec
Total time needed                          ...    0.218 sec

-------------------
DFT GRID GENERATION
-------------------

General Integration Accuracy     IntAcc      ...  5.010
Radial Grid Type                 RadialGrid  ... Gauss-Chebyshev
Angular Grid (max. acc.)         AngularGrid ... Lebedev-434
Angular grid pruning method      GridPruning ... 3 (G Style)
Weight generation scheme         WeightScheme... Becke
Basis function cutoff            BFCut       ...    1.0000e-12
Integration weight cutoff        WCut        ...    1.0000e-14
Grids for H and He will be reduced by one unit

# of grid points (after initial pruning)     ...  52206 (   0.0 sec)
# of grid points (after weights+screening)   ...  50528 (   0.0 sec)
nearest neighbour list constructed           ...    0.0 sec
Grid point re-assignment to atoms done       ...    0.0 sec
Grid point division into batches done        ...    0.4 sec
Reduced shell lists constructed in    0.6 sec

Total number of grid points                  ...    50528
Total number of batches                      ...      793
Average number of points per batch           ...       63
Average number of grid points per atom       ...     8421
Average number of shells per batch           ...   121.44 (71.02%)
Average number of basis functions per batch  ...   514.79 (73.65%)
Average number of large shells per batch     ...   106.66 (87.83%)
Average number of large basis fcns per batch ...   454.88 (88.36%)
Maximum spatial batch extension              ...  15.23, 13.36, 17.58 au
Average spatial batch extension              ...   0.65,  0.65,  0.71 au

Time for grid setup =    0.678 sec

------------------------------
INITIAL GUESS: MODEL POTENTIAL
------------------------------
Loading Hartree-Fock densities                     ... done
Calculating cut-offs                               ... done
Setting up the integral package                    ... done
Initializing the effective Hamiltonian             ... done
Starting the Coulomb interaction                   ... done (   0.1 sec)
Reading the grid                                   ... done
Mapping shells                                     ... done
Starting the XC term evaluation                    ... done (   2.3 sec)
  promolecular density results
     # of electrons  =     23.998534202
     EX              =    -20.683545198
     EC              =     -0.786302922
     EX+EC           =    -21.469848120
Transforming the Hamiltonian                       ... done (   0.1 sec)
Diagonalizing the Hamiltonian                      ... done (   0.1 sec)
Back transforming the eigenvectors                 ... done (   0.0 sec)
Now organizing SCF variables                       ... done
                      ------------------
                      INITIAL GUESS DONE (   3.5 sec)
                      ------------------
--------------
SCF ITERATIONS
--------------
ITER       Energy         Delta-E        Max-DP      RMS-DP      [F,P]     Damp
               ***  Starting incremental Fock matrix formation  ***
  0   -169.6400485417   0.000000000000 0.02487039  0.00019080  0.3013198 0.7000
  1   -169.7204355711  -0.080387029362 0.01691601  0.00011926  0.0992333 0.7000
                               ***Turning on DIIS***
  2   -169.7399733777  -0.019537806621 0.02886806  0.00020229  0.0286326 0.0000
  3   -169.7845481154  -0.044574737644 0.00933301  0.00007215  0.0679327 0.0000
  4   -169.7904436132  -0.005895497860 0.00339759  0.00002701  0.0384465 0.0000
  5   -169.7923262313  -0.001882618064 0.00144195  0.00001199  0.0048868 0.0000
  6   -169.7923879649  -0.000061733645 0.00110545  0.00000785  0.0016222 0.0000
  7   -169.7923948531  -0.000006888134 0.00186395  0.00001201  0.0004373 0.0000
  8   -169.7923964223  -0.000001569277 0.00010374  0.00000091  0.0002568 0.0000
  9   -169.7923966310  -0.000000208622 0.00004319  0.00000029  0.0001601 0.0000
 10   -169.7923966734  -0.000000042385 0.00001366  0.00000013  0.0000776 0.0000
 11   -169.7923966849  -0.000000011554 0.00001729  0.00000014  0.0000116 0.0000
 12   -169.7923966852  -0.000000000299 0.00004139  0.00000034  0.0000026 0.0000
 13   -169.7923966852   0.000000000010 0.00003810  0.00000029  0.0000042 0.0000
 14   -169.7923966852  -0.000000000022 0.00005619  0.00000038  0.0000006 0.0000
 15   -169.7923966852  -0.000000000010 0.00023154  0.00000156  0.0000002 0.0000
 16   -169.7923966852   0.000000000001 0.00038446  0.00000208  0.0000001 0.0000
                 **** Energy Check signals convergence ****

               *****************************************************
               *                     SUCCESS                       *
               *           SCF CONVERGED AFTER  17 CYCLES          *
               *****************************************************


----------------
TOTAL SCF ENERGY
----------------

Total Energy       :         -169.79239669 Eh           -4620.28600 eV

Components:
Nuclear Repulsion  :           71.59965042 Eh            1948.32554 eV
Electronic Energy  :         -241.39204710 Eh           -6568.61154 eV
One Electron Energy:         -372.61229861 Eh          -10139.29612 eV
Two Electron Energy:          131.22025150 Eh            3570.68457 eV

Virial components:
Potential Energy   :         -339.08103038 Eh           -9226.86392 eV
Kinetic Energy     :          169.28863370 Eh            4606.57792 eV
Virial Ratio       :            2.00297576


DFT components:
N(Alpha)           :       12.000000129619 electrons
N(Beta)            :       12.000000129619 electrons
N(Total)           :       24.000000259237 electrons
E(X)               :      -21.069952564025 Eh       
E(C)               :       -0.793219570043 Eh       
E(XC)              :      -21.863172134068 Eh       
DFET-embed. en.    :        0.000000000000 Eh       

---------------
SCF CONVERGENCE
---------------

  Last Energy change         ...   -2.0009e-11  Tolerance :   1.0000e-09
  Last MAX-Density change    ...    4.9007e-04  Tolerance :   1.0000e-08
  Last RMS-Density change    ...    2.7548e-06  Tolerance :   1.0000e-09
  Last DIIS Error            ...    1.0307e-08  Tolerance :   1.0000e-08

             **** THE GBW FILE WAS UPDATED (hconh2_pbe.gbw) ****
             **** DENSITY FILE WAS UPDATED (hconh2_pbe.scfp.tmp) ****
             **** ENERGY FILE WAS UPDATED (hconh2_pbe.en.tmp) ****
----------------------
UHF SPIN CONTAMINATION
----------------------

Warning: in a DFT calculation there is little theoretical justification to 
         calculate <S**2> as in Hartree-Fock theory. We will do it anyways
         but you should keep in mind that the values have only limited relevance

Expectation value of <S**2>     :     0.000000
Ideal value S*(S+1) for S=0.0   :     0.000000
Deviation                       :     0.000000

----------------
ORBITAL ENERGIES
----------------
                 SPIN UP ORBITALS
  NO   OCC          E(Eh)            E(eV) 
   0   1.0000     -18.724352      -509.5155 
   1   1.0000     -14.020655      -381.5214 
   2   1.0000      -9.979573      -271.5580 
   3   1.0000      -0.957427       -26.0529 
   4   1.0000      -0.844226       -22.9726 
   5   1.0000      -0.577990       -15.7279 
   6   1.0000      -0.516301       -14.0493 
   7   1.0000      -0.441746       -12.0205 
   8   1.0000      -0.372318       -10.1313 
   9   1.0000      -0.369476       -10.0540 
  10   1.0000      -0.250730        -6.8227 
  11   1.0000      -0.221093        -6.0162 
  12   0.0000      -0.030594        -0.8325 
  13   0.0000      -0.029494        -0.8026 
  14   0.0000      -0.006352        -0.1728 
  15   0.0000       0.010676         0.2905 
  16   0.0000       0.012430         0.3382 
  17   0.0000       0.025539         0.6949 
  18   0.0000       0.030776         0.8375 
  19   0.0000       0.034116         0.9283 
  20   0.0000       0.036782         1.0009 
  21   0.0000       0.041997         1.1428 
  22   0.0000       0.045736         1.2445 
  23   0.0000       0.052776         1.4361 
  24   0.0000       0.056757         1.5444 
  25   0.0000       0.064446         1.7537 
  26   0.0000       0.069433         1.8894 
  27   0.0000       0.070771         1.9258 
  28   0.0000       0.081299         2.2123 
  29   0.0000       0.085038         2.3140 
  30   0.0000       0.094296         2.5659 
  31   0.0000       0.101114         2.7515 
  32   0.0000       0.105385         2.8677 
  33   0.0000       0.111726         3.0402 
  34   0.0000       0.111816         3.0427 
  35   0.0000       0.115579         3.1451 
  36   0.0000       0.118234         3.2173 
  37   0.0000       0.122279         3.3274 
  38   0.0000       0.122735         3.3398 
  39   0.0000       0.134369         3.6564 
  40   0.0000       0.143357         3.9010 
  41   0.0000       0.147645         4.0176 
  42   0.0000       0.149618         4.0713 
  43   0.0000       0.152782         4.1574 
  44   0.0000       0.156061         4.2466 
  45   0.0000       0.161275         4.3885 
  46   0.0000       0.170890         4.6501 
  47   0.0000       0.175158         4.7663 
  48   0.0000       0.182774         4.9735 
  49   0.0000       0.184266         5.0141 
  50   0.0000       0.191356         5.2071 
  51   0.0000       0.198753         5.4083 
  52   0.0000       0.202023         5.4973 
  53   0.0000       0.202035         5.4976 
  54   0.0000       0.210658         5.7323 
  55   0.0000       0.215973         5.8769 
  56   0.0000       0.217358         5.9146 
  57   0.0000       0.228262         6.2113 
  58   0.0000       0.232795         6.3347 
  59   0.0000       0.235741         6.4148 
  60   0.0000       0.245891         6.6910 
  61   0.0000       0.249067         6.7775 
  62   0.0000       0.254481         6.9248 
  63   0.0000       0.258931         7.0459 
  64   0.0000       0.262251         7.1362 
  65   0.0000       0.264904         7.2084 
  66   0.0000       0.269426         7.3315 
  67   0.0000       0.277314         7.5461 
  68   0.0000       0.280081         7.6214 
  69   0.0000       0.281584         7.6623 
  70   0.0000       0.285566         7.7706 
  71   0.0000       0.289657         7.8820 
  72   0.0000       0.292067         7.9476 
  73   0.0000       0.294073         8.0021 
  74   0.0000       0.301096         8.1932 
  75   0.0000       0.305397         8.3103 
  76   0.0000       0.308556         8.3962 
  77   0.0000       0.310703         8.4547 
  78   0.0000       0.313285         8.5249 
  79   0.0000       0.319815         8.7026 
  80   0.0000       0.328560         8.9406 
  81   0.0000       0.330593         8.9959 
  82   0.0000       0.331464         9.0196 
  83   0.0000       0.336730         9.1629 
  84   0.0000       0.339010         9.2249 
  85   0.0000       0.343207         9.3391 
  86   0.0000       0.357455         9.7268 
  87   0.0000       0.359328         9.7778 
  88   0.0000       0.382683        10.4133 
  89   0.0000       0.385971        10.5028 
  90   0.0000       0.386985        10.5304 
  91   0.0000       0.392901        10.6914 
  92   0.0000       0.396701        10.7948 
  93   0.0000       0.413423        11.2498 
  94   0.0000       0.417100        11.3499 
  95   0.0000       0.420366        11.4387 
  96   0.0000       0.430893        11.7252 
  97   0.0000       0.430965        11.7272 
  98   0.0000       0.434578        11.8255 
  99   0.0000       0.439739        11.9659 
 100   0.0000       0.447942        12.1891 
 101   0.0000       0.448465        12.2033 
 102   0.0000       0.456043        12.4096 
 103   0.0000       0.459301        12.4982 
 104   0.0000       0.462810        12.5937 
 105   0.0000       0.468226        12.7411 
 106   0.0000       0.469831        12.7847 
 107   0.0000       0.472551        12.8588 
 108   0.0000       0.477536        12.9944 
 109   0.0000       0.481534        13.1032 
 110   0.0000       0.485752        13.2180 
 111   0.0000       0.490250        13.3404 
 112   0.0000       0.498303        13.5595 
 113   0.0000       0.499723        13.5982 
 114   0.0000       0.502436        13.6720 
 115   0.0000       0.508149        13.8274 
 116   0.0000       0.513471        13.9723 
 117   0.0000       0.516394        14.0518 
 118   0.0000       0.520632        14.1671 
 119   0.0000       0.522001        14.2044 
 120   0.0000       0.523426        14.2431 
 121   0.0000       0.530425        14.4336 
 122   0.0000       0.535648        14.5757 
 123   0.0000       0.535685        14.5767 
 124   0.0000       0.544719        14.8225 
 125   0.0000       0.546325        14.8663 
 126   0.0000       0.552186        15.0258 
 127   0.0000       0.558267        15.1912 
 128   0.0000       0.567308        15.4372 
 129   0.0000       0.571008        15.5379 
 130   0.0000       0.571836        15.5605 
 131   0.0000       0.577075        15.7030 
 132   0.0000       0.583585        15.8802 
 133   0.0000       0.588681        16.0188 
 134   0.0000       0.590974        16.0812 
 135   0.0000       0.597272        16.2526 
 136   0.0000       0.601266        16.3613 
 137   0.0000       0.605363        16.4728 
 138   0.0000       0.609455        16.5841 
 139   0.0000       0.612260        16.6605 
 140   0.0000       0.619361        16.8537 
 141   0.0000       0.623946        16.9784 
 142   0.0000       0.628495        17.1022 
 143   0.0000       0.642134        17.4733 
 144   0.0000       0.659870        17.9560 
 145   0.0000       0.665377        18.1058 
 146   0.0000       0.678893        18.4736 
 147   0.0000       0.680284        18.5115 
 148   0.0000       0.683365        18.5953 
 149   0.0000       0.690683        18.7944 
 150   0.0000       0.700612        19.0646 
 151   0.0000       0.701596        19.0914 
 152   0.0000       0.706974        19.2377 
 153   0.0000       0.718104        19.5406 
 154   0.0000       0.719756        19.5856 
 155   0.0000       0.730120        19.8676 
 156   0.0000       0.731194        19.8968 
 157   0.0000       0.741164        20.1681 
 158   0.0000       0.752706        20.4822 
 159   0.0000       0.761130        20.7114 
 160   0.0000       0.761512        20.7218 
 161   0.0000       0.768898        20.9228 
 162   0.0000       0.770475        20.9657 
 163   0.0000       0.780016        21.2253 
 164   0.0000       0.784100        21.3364 
 165   0.0000       0.793214        21.5845 
 166   0.0000       0.794466        21.6185 
 167   0.0000       0.795680        21.6515 
 168   0.0000       0.810351        22.0508 
 169   0.0000       0.813997        22.1500 
 170   0.0000       0.815025        22.1779 
 171   0.0000       0.823740        22.4151 
 172   0.0000       0.826569        22.4921 
 173   0.0000       0.836029        22.7495 
 174   0.0000       0.840853        22.8808 
 175   0.0000       0.843807        22.9612 
 176   0.0000       0.850941        23.1553 
 177   0.0000       0.856740        23.3131 
 178   0.0000       0.856988        23.3198 
 179   0.0000       0.859295        23.3826 
 180   0.0000       0.861429        23.4407 
 181   0.0000       0.863887        23.5075 
 182   0.0000       0.872494        23.7418 
 183   0.0000       0.875647        23.8276 
 184   0.0000       0.883029        24.0284 
 185   0.0000       0.885471        24.0949 
 186   0.0000       0.888445        24.1758 
 187   0.0000       0.895252        24.3610 
 188   0.0000       0.895275        24.3617 
 189   0.0000       0.897854        24.4319 
 190   0.0000       0.911096        24.7922 
 191   0.0000       0.914046        24.8725 
 192   0.0000       0.919505        25.0210 
 193   0.0000       0.922065        25.0907 
 194   0.0000       0.927246        25.2316 
 195   0.0000       0.933489        25.4015 
 196   0.0000       0.943178        25.6652 
 197   0.0000       0.945934        25.7402 
 198   0.0000       0.949612        25.8403 
 199   0.0000       0.961113        26.1532 
 200   0.0000       0.972258        26.4565 
 201   0.0000       0.974296        26.5119 
 202   0.0000       0.978647        26.6304 
 203   0.0000       0.987380        26.8680 
 204   0.0000       0.993161        27.0253 
 205   0.0000       1.003231        27.2993 
 206   0.0000       1.008490        27.4424 
 207   0.0000       1.011186        27.5158 
 208   0.0000       1.022036        27.8110 
 209   0.0000       1.027025        27.9468 
 210   0.0000       1.034427        28.1482 
 211   0.0000       1.040567        28.3153 
 212   0.0000       1.046050        28.4645 
 213   0.0000       1.051606        28.6157 
 214   0.0000       1.059206        28.8225 
 215   0.0000       1.062287        28.9063 
 216   0.0000       1.070752        29.1366 
 217   0.0000       1.071154        29.1476 
 218   0.0000       1.079663        29.3791 
 219   0.0000       1.096142        29.8275 
 220   0.0000       1.097309        29.8593 
 221   0.0000       1.110059        30.2062 
 222   0.0000       1.123735        30.5784 
 223   0.0000       1.132764        30.8241 
 224   0.0000       1.132913        30.8281 
 225   0.0000       1.149577        31.2816 
 226   0.0000       1.160271        31.5726 
 227   0.0000       1.165733        31.7212 
 228   0.0000       1.168869        31.8066 
 229   0.0000       1.184047        32.2196 
 230   0.0000       1.198668        32.6174 
 231   0.0000       1.216127        33.0925 
 232   0.0000       1.226226        33.3673 
 233   0.0000       1.231317        33.5058 
 234   0.0000       1.238349        33.6972 
 235   0.0000       1.263533        34.3825 
 236   0.0000       1.270159        34.5628 
 237   0.0000       1.280101        34.8333 
 238   0.0000       1.281317        34.8664 
 239   0.0000       1.291552        35.1449 
 240   0.0000       1.303239        35.4629 
 241   0.0000       1.308040        35.5936 
 242   0.0000       1.317127        35.8409 
 243   0.0000       1.335217        36.3331 
 244   0.0000       1.336493        36.3678 
 245   0.0000       1.343948        36.5707 
 246   0.0000       1.353281        36.8246 
 247   0.0000       1.364648        37.1340 
 248   0.0000       1.376391        37.4535 
 249   0.0000       1.389139        37.8004 
 250   0.0000       1.394311        37.9411 
 251   0.0000       1.404598        38.2211 
 252   0.0000       1.435768        39.0692 
 253   0.0000       1.449133        39.4329 
 254   0.0000       1.456669        39.6380 
 255   0.0000       1.458274        39.6816 
 256   0.0000       1.491520        40.5863 
 257   0.0000       1.499543        40.8046 
 258   0.0000       1.512243        41.1502 
 259   0.0000       1.516175        41.2572 
 260   0.0000       1.552709        42.2514 
 261   0.0000       1.566182        42.6180 
 262   0.0000       1.582588        43.0644 
 263   0.0000       1.607322        43.7375 
 264   0.0000       1.628054        44.3016 
 265   0.0000       1.632247        44.4157 
 266   0.0000       1.650573        44.9144 
 267   0.0000       1.660952        45.1968 
 268   0.0000       1.679053        45.6894 
 269   0.0000       1.685621        45.8681 
 270   0.0000       1.687280        45.9132 
 271   0.0000       1.704068        46.3700 
 272   0.0000       1.720927        46.8288 
 273   0.0000       1.744185        47.4617 
 274   0.0000       1.748268        47.5728 
 275   0.0000       1.772903        48.2431 
 276   0.0000       1.792763        48.7836 
 277   0.0000       1.813060        49.3359 
 278   0.0000       1.835758        49.9535 
 279   0.0000       1.861283        50.6481 
 280   0.0000       1.874090        50.9966 
 281   0.0000       1.878997        51.1301 
 282   0.0000       1.891903        51.4813 
 283   0.0000       1.941566        52.8327 
 284   0.0000       1.944499        52.9125 
 285   0.0000       1.957979        53.2793 
 286   0.0000       1.973404        53.6990 
 287   0.0000       1.983822        53.9825 
 288   0.0000       2.028523        55.1989 
 289   0.0000       2.042373        55.5758 
 290   0.0000       2.045346        55.6567 
 291   0.0000       2.068760        56.2938 
 292   0.0000       2.092000        56.9262 
 293   0.0000       2.107383        57.3448 
 294   0.0000       2.135841        58.1192 
 295   0.0000       2.143098        58.3167 
 296   0.0000       2.202650        59.9371 
 297   0.0000       2.225425        60.5569 
 298   0.0000       2.252108        61.2830 
 299   0.0000       2.274236        61.8851 
 300   0.0000       2.298911        62.5566 
 301   0.0000       2.299481        62.5721 
 302   0.0000       2.348066        63.8941 
 303   0.0000       2.359518        64.2057 
 304   0.0000       2.362382        64.2837 
 305   0.0000       2.375183        64.6320 
 306   0.0000       2.400337        65.3165 
 307   0.0000       2.417797        65.7916 
 308   0.0000       2.418003        65.7972 
 309   0.0000       2.502641        68.1003 
 310   0.0000       2.510170        68.3052 
 311   0.0000       2.512753        68.3755 
 312   0.0000       2.559855        69.6572 
 313   0.0000       2.577668        70.1419 
 314   0.0000       2.631432        71.6049 
 315   0.0000       2.634411        71.6860 
 316   0.0000       2.674880        72.7872 
 317   0.0000       2.713675        73.8429 
 318   0.0000       2.752552        74.9008 
 319   0.0000       2.781685        75.6935 
 320   0.0000       2.803936        76.2990 
 321   0.0000       2.807188        76.3875 
 322   0.0000       2.895163        78.7814 
 323   0.0000       2.915918        79.3462 
 324   0.0000       2.925492        79.6067 
 325   0.0000       2.968338        80.7726 
 326   0.0000       2.989681        81.3533 
 327   0.0000       3.029441        82.4353 
 328   0.0000       3.046961        82.9120 
 329   0.0000       3.075284        83.6827 
 330   0.0000       3.152081        85.7725 
 331   0.0000       3.153543        85.8123 
 332   0.0000       3.196361        86.9774 
 333   0.0000       3.205816        87.2347 
 334   0.0000       3.268117        88.9300 
 335   0.0000       3.302929        89.8773 
 336   0.0000       3.386595        92.1539 
 337   0.0000       3.388996        92.2193 
 338   0.0000       3.449887        93.8762 
 339   0.0000       3.482200        94.7555 
 340   0.0000       3.516061        95.6769 
 341   0.0000       3.529433        96.0408 
 342   0.0000       3.582659        97.4891 
 343   0.0000       3.602462        98.0280 
 344   0.0000       3.620445        98.5173 
 345   0.0000       3.630610        98.7939 
 346   0.0000       3.664112        99.7056 
 347   0.0000       3.673760        99.9681 
 348   0.0000       3.682635       100.2096 
 349   0.0000       3.728277       101.4516 
 350   0.0000       3.744595       101.8956 
 351   0.0000       3.788524       103.0910 
 352   0.0000       3.842106       104.5490 
 353   0.0000       3.873050       105.3911 
 354   0.0000       3.885125       105.7196 
 355   0.0000       3.920843       106.6916 
 356   0.0000       3.956991       107.6752 
 357   0.0000       3.997171       108.7686 
 358   0.0000       4.058953       110.4497 
 359   0.0000       4.085249       111.1653 
 360   0.0000       4.086138       111.1895 
 361   0.0000       4.131627       112.4273 
 362   0.0000       4.131858       112.4336 
 363   0.0000       4.152118       112.9849 
 364   0.0000       4.159738       113.1922 
 365   0.0000       4.171356       113.5084 
 366   0.0000       4.191630       114.0600 
 367   0.0000       4.251457       115.6880 
 368   0.0000       4.263896       116.0265 
 369   0.0000       4.298191       116.9597 
 370   0.0000       4.306778       117.1934 
 371   0.0000       4.338650       118.0607 
 372   0.0000       4.408645       119.9653 
 373   0.0000       4.412582       120.0725 
 374   0.0000       4.446547       120.9967 
 375   0.0000       4.458525       121.3226 
 376   0.0000       4.473262       121.7237 
 377   0.0000       4.557146       124.0063 
 378   0.0000       4.597886       125.1148 
 379   0.0000       4.604789       125.3027 
 380   0.0000       4.609265       125.4245 
 381   0.0000       4.660492       126.8184 
 382   0.0000       4.694086       127.7326 
 383   0.0000       4.728712       128.6748 
 384   0.0000       4.735325       128.8547 
 385   0.0000       4.744384       129.1012 
 386   0.0000       4.787081       130.2631 
 387   0.0000       4.809508       130.8734 
 388   0.0000       4.864123       132.3595 
 389   0.0000       4.870010       132.5197 
 390   0.0000       4.878108       132.7401 
 391   0.0000       4.975303       135.3849 
 392   0.0000       4.984630       135.6387 
 393   0.0000       5.008802       136.2964 
 394   0.0000       5.078971       138.2058 
 395   0.0000       5.084427       138.3543 
 396   0.0000       5.143606       139.9646 
 397   0.0000       5.152360       140.2029 
 398   0.0000       5.166817       140.5962 
 399   0.0000       5.168389       140.6390 
 400   0.0000       5.215982       141.9341 
 401   0.0000       5.292280       144.0103 
 402   0.0000       5.328764       145.0030 
 403   0.0000       5.333725       145.1380 
 404   0.0000       5.354479       145.7028 
 405   0.0000       5.364372       145.9720 
 406   0.0000       5.467083       148.7669 
 407   0.0000       5.472126       148.9041 
 408   0.0000       5.499691       149.6542 
 409   0.0000       5.517006       150.1254 
 410   0.0000       5.533497       150.5741 
 411   0.0000       5.563879       151.4009 
 412   0.0000       5.610682       152.6744 
 413   0.0000       5.712563       155.4467 
 414   0.0000       5.785068       157.4197 
 415   0.0000       5.790744       157.5742 
 416   0.0000       5.865726       159.6145 
 417   0.0000       5.916378       160.9928 
 418   0.0000       5.959095       162.1552 
 419   0.0000       6.009993       163.5402 
 420   0.0000       6.067096       165.0941 
 421   0.0000       6.074701       165.3010 
 422   0.0000       6.108921       166.2322 
 423   0.0000       6.214651       169.1093 
 424   0.0000       6.241556       169.8414 
 425   0.0000       6.273210       170.7027 
 426   0.0000       6.300115       171.4348 
 427   0.0000       6.353022       172.8745 
 428   0.0000       6.422284       174.7592 
 429   0.0000       6.455214       175.6553 
 430   0.0000       6.471856       176.1082 
 431   0.0000       6.485561       176.4811 
 432   0.0000       6.560371       178.5168 
 433   0.0000       6.620121       180.1427 
 434   0.0000       6.636930       180.6000 
 435   0.0000       6.681646       181.8168 
 436   0.0000       6.715051       182.7258 
 437   0.0000       6.767479       184.1525 
 438   0.0000       6.792571       184.8353 
 439   0.0000       6.813207       185.3968 
 440   0.0000       6.859489       186.6562 
 441   0.0000       6.891572       187.5292 
 442   0.0000       7.010757       190.7724 
 443   0.0000       7.078814       192.6243 
 444   0.0000       7.128766       193.9836 
 445   0.0000       7.216512       196.3713 
 446   0.0000       7.290953       198.3969 
 447   0.0000       7.332758       199.5345 
 448   0.0000       7.408215       201.5878 
 449   0.0000       7.490624       203.8302 
 450   0.0000       7.744947       210.7507 
 451   0.0000       7.764578       211.2849 
 452   0.0000       7.950859       216.3539 
 453   0.0000       7.982961       217.2274 
 454   0.0000       8.012664       218.0357 
 455   0.0000       8.109381       220.6675 
 456   0.0000       8.160835       222.0676 
 457   0.0000       8.201339       223.1698 
 458   0.0000       8.353606       227.3132 
 459   0.0000       8.374031       227.8690 
 460   0.0000       8.508766       231.5353 
 461   0.0000       8.520772       231.8620 
 462   0.0000       8.600550       234.0329 
 463   0.0000       8.696527       236.6445 
 464   0.0000       8.734923       237.6893 
 465   0.0000       8.844920       240.6825 
 466   0.0000       9.036926       245.9073 
 467   0.0000       9.070177       246.8121 
 468   0.0000       9.083751       247.1814 
 469   0.0000       9.128801       248.4073 
 470   0.0000       9.177607       249.7354 
 471   0.0000       9.215390       250.7635 
 472   0.0000       9.247394       251.6344 
 473   0.0000       9.260277       251.9849 
 474   0.0000       9.341737       254.2016 
 475   0.0000       9.418084       256.2791 
 476   0.0000       9.437711       256.8132 
 477   0.0000       9.458164       257.3697 
 478   0.0000       9.503232       258.5961 
 479   0.0000       9.593565       261.0542 
 480   0.0000       9.604630       261.3553 
 481   0.0000       9.756311       265.4827 
 482   0.0000       9.796565       266.5781 
 483   0.0000       9.848851       268.0009 
 484   0.0000       9.855935       268.1936 
 485   0.0000       9.928754       270.1751 
 486   0.0000      10.043651       273.3016 
 487   0.0000      10.137262       275.8489 
 488   0.0000      10.194558       277.4080 
 489   0.0000      10.301660       280.3224 
 490   0.0000      10.305910       280.4381 
 491   0.0000      10.383847       282.5588 
 492   0.0000      10.482816       285.2519 
 493   0.0000      10.567697       287.5617 
 494   0.0000      10.702981       291.2429 
 495   0.0000      10.716845       291.6202 
 496   0.0000      10.718132       291.6552 
 497   0.0000      10.814363       294.2738 
 498   0.0000      10.842736       295.0459 
 499   0.0000      10.854759       295.3730 
 500   0.0000      11.044002       300.5226 
 501   0.0000      11.128974       302.8348 
 502   0.0000      11.173535       304.0474 
 503   0.0000      11.225222       305.4538 
 504   0.0000      11.270403       306.6833 
 505   0.0000      11.332730       308.3793 
 506   0.0000      11.467311       312.0414 
 507   0.0000      11.504424       313.0513 
 508   0.0000      11.537766       313.9586 
 509   0.0000      11.544868       314.1518 
 510   0.0000      11.595952       315.5419 
 511   0.0000      11.596806       315.5651 
 512   0.0000      11.643242       316.8287 
 513   0.0000      11.685317       317.9736 
 514   0.0000      11.731601       319.2331 
 515   0.0000      11.769169       320.2554 
 516   0.0000      11.779815       320.5451 
 517   0.0000      11.803437       321.1879 
 518   0.0000      11.822452       321.7053 
 519   0.0000      11.861219       322.7602 
 520   0.0000      11.894636       323.6695 
 521   0.0000      11.948547       325.1365 
 522   0.0000      12.049205       327.8755 
 523   0.0000      12.073259       328.5301 
 524   0.0000      12.076413       328.6159 
 525   0.0000      12.084922       328.8474 
 526   0.0000      12.140732       330.3661 
 527   0.0000      12.154359       330.7369 
 528   0.0000      12.219323       332.5047 
 529   0.0000      12.280940       334.1814 
 530   0.0000      12.307062       334.8922 
 531   0.0000      12.330592       335.5325 
 532   0.0000      12.356247       336.2306 
 533   0.0000      12.457981       338.9989 
 534   0.0000      12.480953       339.6240 
 535   0.0000      12.501878       340.1934 
 536   0.0000      12.560449       341.7872 
 537   0.0000      12.588220       342.5429 
 538   0.0000      12.607456       343.0663 
 539   0.0000      12.615150       343.2757 
 540   0.0000      12.650340       344.2333 
 541   0.0000      12.662639       344.5679 
 542   0.0000      12.734570       346.5253 
 543   0.0000      12.779778       347.7555 
 544   0.0000      12.803691       348.4061 
 545   0.0000      12.857079       349.8589 
 546   0.0000      12.886165       350.6504 
 547   0.0000      12.947506       352.3196 
 548   0.0000      12.951125       352.4180 
 549   0.0000      12.969722       352.9241 
 550   0.0000      12.983048       353.2867 
 551   0.0000      13.037413       354.7660 
 552   0.0000      13.084801       356.0555 
 553   0.0000      13.100225       356.4752 
 554   0.0000      13.141477       357.5978 
 555   0.0000      13.224981       359.8700 
 556   0.0000      13.320197       362.4610 
 557   0.0000      13.340910       363.0246 
 558   0.0000      13.430600       365.4652 
 559   0.0000      13.465285       366.4090 
 560   0.0000      13.542968       368.5229 
 561   0.0000      13.587310       369.7295 
 562   0.0000      13.633734       370.9928 
 563   0.0000      13.800874       375.5409 
 564   0.0000      13.854498       377.0001 
 565   0.0000      13.868090       377.3699 
 566   0.0000      13.955105       379.7377 
 567   0.0000      13.973429       380.2363 
 568   0.0000      13.999706       380.9514 
 569   0.0000      14.152636       385.1128 
 570   0.0000      14.258075       387.9819 
 571   0.0000      14.336870       390.1261 
 572   0.0000      14.404660       391.9707 
 573   0.0000      14.633654       398.2020 
 574   0.0000      14.773373       402.0039 
 575   0.0000      14.881114       404.9357 
 576   0.0000      15.114242       411.2794 
 577   0.0000      15.158252       412.4770 
 578   0.0000      15.224187       414.2712 
 579   0.0000      15.225316       414.3019 
 580   0.0000      15.336149       417.3178 
 581   0.0000      15.405495       419.2048 
 582   0.0000      15.435165       420.0122 
 583   0.0000      15.456439       420.5911 
 584   0.0000      15.499430       421.7609 
 585   0.0000      15.619579       425.0303 
 586   0.0000      15.633559       425.4108 
 587   0.0000      15.686281       426.8454 
 588   0.0000      15.860604       431.5890 
 589   0.0000      15.980811       434.8600 
 590   0.0000      16.123992       438.7561 
 591   0.0000      16.229095       441.6161 
 592   0.0000      16.309405       443.8015 
 593   0.0000      16.457851       447.8409 
 594   0.0000      16.520441       449.5441 
 595   0.0000      16.643516       452.8931 
 596   0.0000      16.709626       454.6920 
 597   0.0000      16.727697       455.1838 
 598   0.0000      16.757868       456.0048 
 599   0.0000      16.765437       456.2107 
 600   0.0000      16.776792       456.5197 
 601   0.0000      16.842485       458.3073 
 602   0.0000      16.945650       461.1146 
 603   0.0000      17.026053       463.3025 
 604   0.0000      17.073022       464.5806 
 605   0.0000      17.075430       464.6461 
 606   0.0000      17.121127       465.8896 
 607   0.0000      17.152556       466.7448 
 608   0.0000      17.279983       470.2123 
 609   0.0000      17.300890       470.7812 
 610   0.0000      17.409877       473.7468 
 611   0.0000      17.468105       475.3313 
 612   0.0000      17.480534       475.6695 
 613   0.0000      17.495990       476.0901 
 614   0.0000      17.707237       481.8384 
 615   0.0000      17.716887       482.1010 
 616   0.0000      17.754594       483.1271 
 617   0.0000      17.892510       486.8799 
 618   0.0000      18.009865       490.0733 
 619   0.0000      18.177170       494.6259 
 620   0.0000      18.295598       497.8485 
 621   0.0000      18.363735       499.7026 
 622   0.0000      18.506427       503.5855 
 623   0.0000      18.553572       504.8684 
 624   0.0000      18.668705       508.0013 
 625   0.0000      18.671497       508.0773 
 626   0.0000      18.874612       513.6043 
 627   0.0000      18.925135       514.9791 
 628   0.0000      18.978601       516.4340 
 629   0.0000      19.137831       520.7669 
 630   0.0000      19.196265       522.3569 
 631   0.0000      19.204392       522.5781 
 632   0.0000      19.386357       527.5296 
 633   0.0000      19.510283       530.9018 
 634   0.0000      19.734588       537.0054 
 635   0.0000      19.991628       543.9998 
 636   0.0000      20.253763       551.1329 
 637   0.0000      20.506539       558.0113 
 638   0.0000      20.610498       560.8402 
 639   0.0000      20.800394       566.0075 
 640   0.0000      20.889057       568.4201 
 641   0.0000      21.021415       572.0218 
 642   0.0000      21.168528       576.0249 
 643   0.0000      22.012777       598.9981 
 644   0.0000      22.230095       604.9116 
 645   0.0000      22.378422       608.9478 
 646   0.0000      22.952716       624.5751 
 647   0.0000      23.168535       630.4479 
 648   0.0000      23.309131       634.2737 
 649   0.0000      23.538376       640.5118 
 650   0.0000      23.558190       641.0509 
 651   0.0000      23.643811       643.3808 
 652   0.0000      23.846317       648.8913 
 653   0.0000      24.086425       655.4249 
 654   0.0000      24.123223       656.4263 
 655   0.0000      24.177783       657.9109 
 656   0.0000      24.583460       668.9500 
 657   0.0000      24.956461       679.0998 
 658   0.0000      25.693583       699.1579 
 659   0.0000      26.050140       708.8603 
 660   0.0000      26.452515       719.8095 
 661   0.0000      26.575344       723.1519 
 662   0.0000      26.788193       728.9438 
 663   0.0000      28.984399       788.7056 
 664   0.0000      29.469683       801.9109 
 665   0.0000      30.520651       830.5091 
 666   0.0000      32.173161       875.4762 
 667   0.0000      32.347610       880.2232 
 668   0.0000      32.476444       883.7290 
 669   0.0000      32.871056       894.4669 
 670   0.0000      33.654992       915.7989 
 671   0.0000      34.627620       942.2654 
 672   0.0000      34.743467       945.4178 
 673   0.0000      35.093497       954.9426 
 674   0.0000      41.327231      1124.5711 
 675   0.0000      41.756767      1136.2594 
 676   0.0000      41.849209      1138.7749 
 677   0.0000      48.139374      1309.9390 
 678   0.0000      48.251675      1312.9948 
 679   0.0000      48.708498      1325.4256 
 680   0.0000      49.419791      1344.7809 
 681   0.0000      49.713879      1352.7834 
 682   0.0000      66.701825      1815.0489 
 683   0.0000      66.791029      1817.4763 
 684   0.0000      67.213903      1828.9833 
 685   0.0000      67.541941      1837.9097 
 686   0.0000      68.752678      1870.8555 
 687   0.0000      77.190700      2100.4657 
 688   0.0000      91.027536      2476.9852 
 689   0.0000      91.038759      2477.2906 
 690   0.0000      91.126756      2479.6851 
 691   0.0000      91.262226      2483.3714 
 692   0.0000      91.308951      2484.6429 
 693   0.0000      91.461322      2488.7891 
 694   0.0000      92.516636      2517.5056 
 695   0.0000      92.960308      2529.5786 
 696   0.0000      93.181970      2535.6103 
 697   0.0000     106.745447      2904.6913 
 698   0.0000     144.006258      3918.6095 

                 SPIN DOWN ORBITALS
  NO   OCC          E(Eh)            E(eV) 
   0   1.0000     -18.724352      -509.5155 
   1   1.0000     -14.020655      -381.5214 
   2   1.0000      -9.979573      -271.5580 
   3   1.0000      -0.957427       -26.0529 
   4   1.0000      -0.844226       -22.9726 
   5   1.0000      -0.577990       -15.7279 
   6   1.0000      -0.516301       -14.0493 
   7   1.0000      -0.441746       -12.0205 
   8   1.0000      -0.372318       -10.1313 
   9   1.0000      -0.369476       -10.0540 
  10   1.0000      -0.250730        -6.8227 
  11   1.0000      -0.221093        -6.0162 
  12   0.0000      -0.030594        -0.8325 
  13   0.0000      -0.029494        -0.8026 
  14   0.0000      -0.006352        -0.1728 
  15   0.0000       0.010676         0.2905 
  16   0.0000       0.012430         0.3382 
  17   0.0000       0.025539         0.6949 
  18   0.0000       0.030776         0.8375 
  19   0.0000       0.034116         0.9283 
  20   0.0000       0.036782         1.0009 
  21   0.0000       0.041997         1.1428 
  22   0.0000       0.045736         1.2445 
  23   0.0000       0.052776         1.4361 
  24   0.0000       0.056757         1.5444 
  25   0.0000       0.064446         1.7537 
  26   0.0000       0.069433         1.8894 
  27   0.0000       0.070771         1.9258 
  28   0.0000       0.081299         2.2123 
  29   0.0000       0.085038         2.3140 
  30   0.0000       0.094296         2.5659 
  31   0.0000       0.101114         2.7515 
  32   0.0000       0.105385         2.8677 
  33   0.0000       0.111726         3.0402 
  34   0.0000       0.111816         3.0427 
  35   0.0000       0.115579         3.1451 
  36   0.0000       0.118234         3.2173 
  37   0.0000       0.122279         3.3274 
  38   0.0000       0.122735         3.3398 
  39   0.0000       0.134369         3.6564 
  40   0.0000       0.143357         3.9010 
  41   0.0000       0.147645         4.0176 
  42   0.0000       0.149618         4.0713 
  43   0.0000       0.152782         4.1574 
  44   0.0000       0.156061         4.2466 
  45   0.0000       0.161275         4.3885 
  46   0.0000       0.170890         4.6501 
  47   0.0000       0.175158         4.7663 
  48   0.0000       0.182774         4.9735 
  49   0.0000       0.184266         5.0141 
  50   0.0000       0.191356         5.2071 
  51   0.0000       0.198753         5.4083 
  52   0.0000       0.202023         5.4973 
  53   0.0000       0.202035         5.4976 
  54   0.0000       0.210658         5.7323 
  55   0.0000       0.215973         5.8769 
  56   0.0000       0.217358         5.9146 
  57   0.0000       0.228262         6.2113 
  58   0.0000       0.232795         6.3347 
  59   0.0000       0.235741         6.4148 
  60   0.0000       0.245891         6.6910 
  61   0.0000       0.249067         6.7775 
  62   0.0000       0.254481         6.9248 
  63   0.0000       0.258931         7.0459 
  64   0.0000       0.262251         7.1362 
  65   0.0000       0.264904         7.2084 
  66   0.0000       0.269426         7.3315 
  67   0.0000       0.277314         7.5461 
  68   0.0000       0.280081         7.6214 
  69   0.0000       0.281584         7.6623 
  70   0.0000       0.285566         7.7706 
  71   0.0000       0.289657         7.8820 
  72   0.0000       0.292067         7.9476 
  73   0.0000       0.294073         8.0021 
  74   0.0000       0.301096         8.1932 
  75   0.0000       0.305397         8.3103 
  76   0.0000       0.308556         8.3962 
  77   0.0000       0.310703         8.4547 
  78   0.0000       0.313285         8.5249 
  79   0.0000       0.319815         8.7026 
  80   0.0000       0.328560         8.9406 
  81   0.0000       0.330593         8.9959 
  82   0.0000       0.331464         9.0196 
  83   0.0000       0.336730         9.1629 
  84   0.0000       0.339010         9.2249 
  85   0.0000       0.343207         9.3391 
  86   0.0000       0.357455         9.7268 
  87   0.0000       0.359328         9.7778 
  88   0.0000       0.382683        10.4133 
  89   0.0000       0.385971        10.5028 
  90   0.0000       0.386985        10.5304 
  91   0.0000       0.392901        10.6914 
  92   0.0000       0.396701        10.7948 
  93   0.0000       0.413423        11.2498 
  94   0.0000       0.417100        11.3499 
  95   0.0000       0.420366        11.4387 
  96   0.0000       0.430893        11.7252 
  97   0.0000       0.430965        11.7272 
  98   0.0000       0.434578        11.8255 
  99   0.0000       0.439739        11.9659 
 100   0.0000       0.447942        12.1891 
 101   0.0000       0.448465        12.2033 
 102   0.0000       0.456043        12.4096 
 103   0.0000       0.459301        12.4982 
 104   0.0000       0.462810        12.5937 
 105   0.0000       0.468226        12.7411 
 106   0.0000       0.469831        12.7847 
 107   0.0000       0.472551        12.8588 
 108   0.0000       0.477536        12.9944 
 109   0.0000       0.481534        13.1032 
 110   0.0000       0.485752        13.2180 
 111   0.0000       0.490250        13.3404 
 112   0.0000       0.498303        13.5595 
 113   0.0000       0.499723        13.5982 
 114   0.0000       0.502436        13.6720 
 115   0.0000       0.508149        13.8274 
 116   0.0000       0.513471        13.9723 
 117   0.0000       0.516394        14.0518 
 118   0.0000       0.520632        14.1671 
 119   0.0000       0.522001        14.2044 
 120   0.0000       0.523426        14.2431 
 121   0.0000       0.530425        14.4336 
 122   0.0000       0.535648        14.5757 
 123   0.0000       0.535685        14.5767 
 124   0.0000       0.544719        14.8225 
 125   0.0000       0.546325        14.8663 
 126   0.0000       0.552186        15.0258 
 127   0.0000       0.558267        15.1912 
 128   0.0000       0.567308        15.4372 
 129   0.0000       0.571008        15.5379 
 130   0.0000       0.571836        15.5605 
 131   0.0000       0.577075        15.7030 
 132   0.0000       0.583585        15.8802 
 133   0.0000       0.588681        16.0188 
 134   0.0000       0.590974        16.0812 
 135   0.0000       0.597272        16.2526 
 136   0.0000       0.601266        16.3613 
 137   0.0000       0.605363        16.4728 
 138   0.0000       0.609455        16.5841 
 139   0.0000       0.612260        16.6605 
 140   0.0000       0.619361        16.8537 
 141   0.0000       0.623946        16.9784 
 142   0.0000       0.628495        17.1022 
 143   0.0000       0.642134        17.4733 
 144   0.0000       0.659870        17.9560 
 145   0.0000       0.665377        18.1058 
 146   0.0000       0.678893        18.4736 
 147   0.0000       0.680284        18.5115 
 148   0.0000       0.683365        18.5953 
 149   0.0000       0.690683        18.7944 
 150   0.0000       0.700612        19.0646 
 151   0.0000       0.701596        19.0914 
 152   0.0000       0.706974        19.2377 
 153   0.0000       0.718104        19.5406 
 154   0.0000       0.719756        19.5856 
 155   0.0000       0.730120        19.8676 
 156   0.0000       0.731194        19.8968 
 157   0.0000       0.741164        20.1681 
 158   0.0000       0.752706        20.4822 
 159   0.0000       0.761130        20.7114 
 160   0.0000       0.761512        20.7218 
 161   0.0000       0.768898        20.9228 
 162   0.0000       0.770475        20.9657 
 163   0.0000       0.780016        21.2253 
 164   0.0000       0.784100        21.3364 
 165   0.0000       0.793214        21.5845 
 166   0.0000       0.794466        21.6185 
 167   0.0000       0.795680        21.6515 
 168   0.0000       0.810351        22.0508 
 169   0.0000       0.813997        22.1500 
 170   0.0000       0.815025        22.1779 
 171   0.0000       0.823740        22.4151 
 172   0.0000       0.826569        22.4921 
 173   0.0000       0.836029        22.7495 
 174   0.0000       0.840853        22.8808 
 175   0.0000       0.843807        22.9612 
 176   0.0000       0.850941        23.1553 
 177   0.0000       0.856740        23.3131 
 178   0.0000       0.856988        23.3198 
 179   0.0000       0.859295        23.3826 
 180   0.0000       0.861429        23.4407 
 181   0.0000       0.863887        23.5075 
 182   0.0000       0.872494        23.7418 
 183   0.0000       0.875647        23.8276 
 184   0.0000       0.883029        24.0284 
 185   0.0000       0.885471        24.0949 
 186   0.0000       0.888445        24.1758 
 187   0.0000       0.895252        24.3610 
 188   0.0000       0.895275        24.3617 
 189   0.0000       0.897854        24.4319 
 190   0.0000       0.911096        24.7922 
 191   0.0000       0.914046        24.8725 
 192   0.0000       0.919505        25.0210 
 193   0.0000       0.922065        25.0907 
 194   0.0000       0.927246        25.2316 
 195   0.0000       0.933489        25.4015 
 196   0.0000       0.943178        25.6652 
 197   0.0000       0.945934        25.7402 
 198   0.0000       0.949612        25.8403 
 199   0.0000       0.961113        26.1532 
 200   0.0000       0.972258        26.4565 
 201   0.0000       0.974296        26.5119 
 202   0.0000       0.978647        26.6304 
 203   0.0000       0.987380        26.8680 
 204   0.0000       0.993161        27.0253 
 205   0.0000       1.003231        27.2993 
 206   0.0000       1.008490        27.4424 
 207   0.0000       1.011186        27.5158 
 208   0.0000       1.022036        27.8110 
 209   0.0000       1.027025        27.9468 
 210   0.0000       1.034427        28.1482 
 211   0.0000       1.040567        28.3153 
 212   0.0000       1.046050        28.4645 
 213   0.0000       1.051606        28.6157 
 214   0.0000       1.059206        28.8225 
 215   0.0000       1.062287        28.9063 
 216   0.0000       1.070752        29.1366 
 217   0.0000       1.071154        29.1476 
 218   0.0000       1.079663        29.3791 
 219   0.0000       1.096142        29.8275 
 220   0.0000       1.097309        29.8593 
 221   0.0000       1.110059        30.2062 
 222   0.0000       1.123735        30.5784 
 223   0.0000       1.132764        30.8241 
 224   0.0000       1.132913        30.8281 
 225   0.0000       1.149577        31.2816 
 226   0.0000       1.160271        31.5726 
 227   0.0000       1.165733        31.7212 
 228   0.0000       1.168869        31.8066 
 229   0.0000       1.184047        32.2196 
 230   0.0000       1.198668        32.6174 
 231   0.0000       1.216127        33.0925 
 232   0.0000       1.226226        33.3673 
 233   0.0000       1.231317        33.5058 
 234   0.0000       1.238349        33.6972 
 235   0.0000       1.263533        34.3825 
 236   0.0000       1.270159        34.5628 
 237   0.0000       1.280101        34.8333 
 238   0.0000       1.281317        34.8664 
 239   0.0000       1.291552        35.1449 
 240   0.0000       1.303239        35.4629 
 241   0.0000       1.308040        35.5936 
 242   0.0000       1.317127        35.8409 
 243   0.0000       1.335217        36.3331 
 244   0.0000       1.336493        36.3678 
 245   0.0000       1.343948        36.5707 
 246   0.0000       1.353281        36.8246 
 247   0.0000       1.364648        37.1340 
 248   0.0000       1.376391        37.4535 
 249   0.0000       1.389139        37.8004 
 250   0.0000       1.394311        37.9411 
 251   0.0000       1.404598        38.2211 
 252   0.0000       1.435768        39.0692 
 253   0.0000       1.449133        39.4329 
 254   0.0000       1.456669        39.6380 
 255   0.0000       1.458274        39.6816 
 256   0.0000       1.491520        40.5863 
 257   0.0000       1.499543        40.8046 
 258   0.0000       1.512243        41.1502 
 259   0.0000       1.516175        41.2572 
 260   0.0000       1.552709        42.2514 
 261   0.0000       1.566182        42.6180 
 262   0.0000       1.582588        43.0644 
 263   0.0000       1.607322        43.7375 
 264   0.0000       1.628054        44.3016 
 265   0.0000       1.632247        44.4157 
 266   0.0000       1.650573        44.9144 
 267   0.0000       1.660952        45.1968 
 268   0.0000       1.679053        45.6894 
 269   0.0000       1.685621        45.8681 
 270   0.0000       1.687280        45.9132 
 271   0.0000       1.704068        46.3700 
 272   0.0000       1.720927        46.8288 
 273   0.0000       1.744185        47.4617 
 274   0.0000       1.748268        47.5728 
 275   0.0000       1.772903        48.2431 
 276   0.0000       1.792763        48.7836 
 277   0.0000       1.813060        49.3359 
 278   0.0000       1.835758        49.9535 
 279   0.0000       1.861283        50.6481 
 280   0.0000       1.874090        50.9966 
 281   0.0000       1.878997        51.1301 
 282   0.0000       1.891903        51.4813 
 283   0.0000       1.941566        52.8327 
 284   0.0000       1.944499        52.9125 
 285   0.0000       1.957979        53.2793 
 286   0.0000       1.973404        53.6990 
 287   0.0000       1.983822        53.9825 
 288   0.0000       2.028523        55.1989 
 289   0.0000       2.042373        55.5758 
 290   0.0000       2.045346        55.6567 
 291   0.0000       2.068760        56.2938 
 292   0.0000       2.092000        56.9262 
 293   0.0000       2.107383        57.3448 
 294   0.0000       2.135841        58.1192 
 295   0.0000       2.143098        58.3167 
 296   0.0000       2.202650        59.9371 
 297   0.0000       2.225425        60.5569 
 298   0.0000       2.252108        61.2830 
 299   0.0000       2.274236        61.8851 
 300   0.0000       2.298911        62.5566 
 301   0.0000       2.299481        62.5721 
 302   0.0000       2.348066        63.8941 
 303   0.0000       2.359518        64.2057 
 304   0.0000       2.362382        64.2837 
 305   0.0000       2.375183        64.6320 
 306   0.0000       2.400337        65.3165 
 307   0.0000       2.417797        65.7916 
 308   0.0000       2.418003        65.7972 
 309   0.0000       2.502641        68.1003 
 310   0.0000       2.510170        68.3052 
 311   0.0000       2.512753        68.3755 
 312   0.0000       2.559855        69.6572 
 313   0.0000       2.577668        70.1419 
 314   0.0000       2.631432        71.6049 
 315   0.0000       2.634411        71.6860 
 316   0.0000       2.674880        72.7872 
 317   0.0000       2.713675        73.8429 
 318   0.0000       2.752552        74.9008 
 319   0.0000       2.781685        75.6935 
 320   0.0000       2.803936        76.2990 
 321   0.0000       2.807188        76.3875 
 322   0.0000       2.895163        78.7814 
 323   0.0000       2.915918        79.3462 
 324   0.0000       2.925492        79.6067 
 325   0.0000       2.968338        80.7726 
 326   0.0000       2.989681        81.3533 
 327   0.0000       3.029441        82.4353 
 328   0.0000       3.046961        82.9120 
 329   0.0000       3.075284        83.6827 
 330   0.0000       3.152081        85.7725 
 331   0.0000       3.153543        85.8123 
 332   0.0000       3.196361        86.9774 
 333   0.0000       3.205816        87.2347 
 334   0.0000       3.268117        88.9300 
 335   0.0000       3.302929        89.8773 
 336   0.0000       3.386595        92.1539 
 337   0.0000       3.388996        92.2193 
 338   0.0000       3.449887        93.8762 
 339   0.0000       3.482200        94.7555 
 340   0.0000       3.516061        95.6769 
 341   0.0000       3.529433        96.0408 
 342   0.0000       3.582659        97.4891 
 343   0.0000       3.602462        98.0280 
 344   0.0000       3.620445        98.5173 
 345   0.0000       3.630610        98.7939 
 346   0.0000       3.664112        99.7056 
 347   0.0000       3.673760        99.9681 
 348   0.0000       3.682635       100.2096 
 349   0.0000       3.728277       101.4516 
 350   0.0000       3.744595       101.8956 
 351   0.0000       3.788524       103.0910 
 352   0.0000       3.842106       104.5490 
 353   0.0000       3.873050       105.3911 
 354   0.0000       3.885125       105.7196 
 355   0.0000       3.920843       106.6916 
 356   0.0000       3.956991       107.6752 
 357   0.0000       3.997171       108.7686 
 358   0.0000       4.058953       110.4497 
 359   0.0000       4.085249       111.1653 
 360   0.0000       4.086138       111.1895 
 361   0.0000       4.131627       112.4273 
 362   0.0000       4.131858       112.4336 
 363   0.0000       4.152118       112.9849 
 364   0.0000       4.159738       113.1922 
 365   0.0000       4.171356       113.5084 
 366   0.0000       4.191630       114.0600 
 367   0.0000       4.251457       115.6880 
 368   0.0000       4.263896       116.0265 
 369   0.0000       4.298191       116.9597 
 370   0.0000       4.306778       117.1934 
 371   0.0000       4.338650       118.0607 
 372   0.0000       4.408645       119.9653 
 373   0.0000       4.412582       120.0725 
 374   0.0000       4.446547       120.9967 
 375   0.0000       4.458525       121.3226 
 376   0.0000       4.473262       121.7237 
 377   0.0000       4.557146       124.0063 
 378   0.0000       4.597886       125.1148 
 379   0.0000       4.604789       125.3027 
 380   0.0000       4.609265       125.4245 
 381   0.0000       4.660492       126.8184 
 382   0.0000       4.694086       127.7326 
 383   0.0000       4.728712       128.6748 
 384   0.0000       4.735325       128.8547 
 385   0.0000       4.744384       129.1012 
 386   0.0000       4.787081       130.2631 
 387   0.0000       4.809508       130.8734 
 388   0.0000       4.864123       132.3595 
 389   0.0000       4.870010       132.5197 
 390   0.0000       4.878108       132.7401 
 391   0.0000       4.975303       135.3849 
 392   0.0000       4.984630       135.6387 
 393   0.0000       5.008802       136.2964 
 394   0.0000       5.078971       138.2058 
 395   0.0000       5.084427       138.3543 
 396   0.0000       5.143606       139.9646 
 397   0.0000       5.152360       140.2029 
 398   0.0000       5.166817       140.5962 
 399   0.0000       5.168389       140.6390 
 400   0.0000       5.215982       141.9341 
 401   0.0000       5.292280       144.0103 
 402   0.0000       5.328764       145.0030 
 403   0.0000       5.333725       145.1380 
 404   0.0000       5.354479       145.7028 
 405   0.0000       5.364372       145.9720 
 406   0.0000       5.467083       148.7669 
 407   0.0000       5.472126       148.9041 
 408   0.0000       5.499691       149.6542 
 409   0.0000       5.517006       150.1254 
 410   0.0000       5.533497       150.5741 
 411   0.0000       5.563879       151.4009 
 412   0.0000       5.610682       152.6744 
 413   0.0000       5.712563       155.4467 
 414   0.0000       5.785068       157.4197 
 415   0.0000       5.790744       157.5742 
 416   0.0000       5.865726       159.6145 
 417   0.0000       5.916378       160.9928 
 418   0.0000       5.959095       162.1552 
 419   0.0000       6.009993       163.5402 
 420   0.0000       6.067096       165.0941 
 421   0.0000       6.074701       165.3010 
 422   0.0000       6.108921       166.2322 
 423   0.0000       6.214651       169.1093 
 424   0.0000       6.241556       169.8414 
 425   0.0000       6.273210       170.7027 
 426   0.0000       6.300115       171.4348 
 427   0.0000       6.353022       172.8745 
 428   0.0000       6.422284       174.7592 
 429   0.0000       6.455214       175.6553 
 430   0.0000       6.471856       176.1082 
 431   0.0000       6.485561       176.4811 
 432   0.0000       6.560371       178.5168 
 433   0.0000       6.620121       180.1427 
 434   0.0000       6.636930       180.6000 
 435   0.0000       6.681646       181.8168 
 436   0.0000       6.715051       182.7258 
 437   0.0000       6.767479       184.1525 
 438   0.0000       6.792571       184.8353 
 439   0.0000       6.813207       185.3968 
 440   0.0000       6.859489       186.6562 
 441   0.0000       6.891572       187.5292 
 442   0.0000       7.010757       190.7724 
 443   0.0000       7.078814       192.6243 
 444   0.0000       7.128766       193.9836 
 445   0.0000       7.216512       196.3713 
 446   0.0000       7.290953       198.3969 
 447   0.0000       7.332758       199.5345 
 448   0.0000       7.408215       201.5878 
 449   0.0000       7.490624       203.8302 
 450   0.0000       7.744947       210.7507 
 451   0.0000       7.764578       211.2849 
 452   0.0000       7.950859       216.3539 
 453   0.0000       7.982961       217.2274 
 454   0.0000       8.012664       218.0357 
 455   0.0000       8.109381       220.6675 
 456   0.0000       8.160835       222.0676 
 457   0.0000       8.201339       223.1698 
 458   0.0000       8.353606       227.3132 
 459   0.0000       8.374031       227.8690 
 460   0.0000       8.508766       231.5353 
 461   0.0000       8.520772       231.8620 
 462   0.0000       8.600550       234.0329 
 463   0.0000       8.696527       236.6445 
 464   0.0000       8.734923       237.6893 
 465   0.0000       8.844920       240.6825 
 466   0.0000       9.036926       245.9073 
 467   0.0000       9.070177       246.8121 
 468   0.0000       9.083751       247.1814 
 469   0.0000       9.128801       248.4073 
 470   0.0000       9.177607       249.7354 
 471   0.0000       9.215390       250.7635 
 472   0.0000       9.247394       251.6344 
 473   0.0000       9.260277       251.9849 
 474   0.0000       9.341737       254.2016 
 475   0.0000       9.418084       256.2791 
 476   0.0000       9.437711       256.8132 
 477   0.0000       9.458164       257.3697 
 478   0.0000       9.503232       258.5961 
 479   0.0000       9.593565       261.0542 
 480   0.0000       9.604630       261.3553 
 481   0.0000       9.756311       265.4827 
 482   0.0000       9.796565       266.5781 
 483   0.0000       9.848851       268.0009 
 484   0.0000       9.855935       268.1936 
 485   0.0000       9.928754       270.1751 
 486   0.0000      10.043651       273.3016 
 487   0.0000      10.137262       275.8489 
 488   0.0000      10.194558       277.4080 
 489   0.0000      10.301660       280.3224 
 490   0.0000      10.305910       280.4381 
 491   0.0000      10.383847       282.5588 
 492   0.0000      10.482816       285.2519 
 493   0.0000      10.567697       287.5617 
 494   0.0000      10.702981       291.2429 
 495   0.0000      10.716845       291.6202 
 496   0.0000      10.718132       291.6552 
 497   0.0000      10.814363       294.2738 
 498   0.0000      10.842736       295.0459 
 499   0.0000      10.854759       295.3730 
 500   0.0000      11.044002       300.5226 
 501   0.0000      11.128974       302.8348 
 502   0.0000      11.173535       304.0474 
 503   0.0000      11.225222       305.4538 
 504   0.0000      11.270403       306.6833 
 505   0.0000      11.332730       308.3793 
 506   0.0000      11.467311       312.0414 
 507   0.0000      11.504424       313.0513 
 508   0.0000      11.537766       313.9586 
 509   0.0000      11.544868       314.1518 
 510   0.0000      11.595952       315.5419 
 511   0.0000      11.596806       315.5651 
 512   0.0000      11.643242       316.8287 
 513   0.0000      11.685317       317.9736 
 514   0.0000      11.731601       319.2331 
 515   0.0000      11.769169       320.2554 
 516   0.0000      11.779815       320.5451 
 517   0.0000      11.803437       321.1879 
 518   0.0000      11.822452       321.7053 
 519   0.0000      11.861219       322.7602 
 520   0.0000      11.894636       323.6695 
 521   0.0000      11.948547       325.1365 
 522   0.0000      12.049205       327.8755 
 523   0.0000      12.073259       328.5301 
 524   0.0000      12.076413       328.6159 
 525   0.0000      12.084922       328.8474 
 526   0.0000      12.140732       330.3661 
 527   0.0000      12.154359       330.7369 
 528   0.0000      12.219323       332.5047 
 529   0.0000      12.280940       334.1814 
 530   0.0000      12.307062       334.8922 
 531   0.0000      12.330592       335.5325 
 532   0.0000      12.356247       336.2306 
 533   0.0000      12.457981       338.9989 
 534   0.0000      12.480953       339.6240 
 535   0.0000      12.501878       340.1934 
 536   0.0000      12.560449       341.7872 
 537   0.0000      12.588220       342.5429 
 538   0.0000      12.607456       343.0663 
 539   0.0000      12.615150       343.2757 
 540   0.0000      12.650340       344.2333 
 541   0.0000      12.662639       344.5679 
 542   0.0000      12.734570       346.5253 
 543   0.0000      12.779778       347.7555 
 544   0.0000      12.803691       348.4061 
 545   0.0000      12.857079       349.8589 
 546   0.0000      12.886165       350.6504 
 547   0.0000      12.947506       352.3196 
 548   0.0000      12.951125       352.4180 
 549   0.0000      12.969722       352.9241 
 550   0.0000      12.983048       353.2867 
 551   0.0000      13.037413       354.7660 
 552   0.0000      13.084801       356.0555 
 553   0.0000      13.100225       356.4752 
 554   0.0000      13.141477       357.5978 
 555   0.0000      13.224981       359.8700 
 556   0.0000      13.320197       362.4610 
 557   0.0000      13.340910       363.0246 
 558   0.0000      13.430600       365.4652 
 559   0.0000      13.465285       366.4090 
 560   0.0000      13.542968       368.5229 
 561   0.0000      13.587310       369.7295 
 562   0.0000      13.633734       370.9928 
 563   0.0000      13.800874       375.5409 
 564   0.0000      13.854498       377.0001 
 565   0.0000      13.868090       377.3699 
 566   0.0000      13.955105       379.7377 
 567   0.0000      13.973429       380.2363 
 568   0.0000      13.999706       380.9514 
 569   0.0000      14.152636       385.1128 
 570   0.0000      14.258075       387.9819 
 571   0.0000      14.336870       390.1261 
 572   0.0000      14.404660       391.9707 
 573   0.0000      14.633654       398.2020 
 574   0.0000      14.773373       402.0039 
 575   0.0000      14.881114       404.9357 
 576   0.0000      15.114242       411.2794 
 577   0.0000      15.158252       412.4770 
 578   0.0000      15.224187       414.2712 
 579   0.0000      15.225316       414.3019 
 580   0.0000      15.336149       417.3178 
 581   0.0000      15.405495       419.2048 
 582   0.0000      15.435165       420.0122 
 583   0.0000      15.456439       420.5911 
 584   0.0000      15.499430       421.7609 
 585   0.0000      15.619579       425.0303 
 586   0.0000      15.633559       425.4108 
 587   0.0000      15.686281       426.8454 
 588   0.0000      15.860604       431.5890 
 589   0.0000      15.980811       434.8600 
 590   0.0000      16.123992       438.7561 
 591   0.0000      16.229095       441.6161 
 592   0.0000      16.309405       443.8015 
 593   0.0000      16.457851       447.8409 
 594   0.0000      16.520441       449.5441 
 595   0.0000      16.643516       452.8931 
 596   0.0000      16.709626       454.6920 
 597   0.0000      16.727697       455.1838 
 598   0.0000      16.757868       456.0048 
 599   0.0000      16.765437       456.2107 
 600   0.0000      16.776792       456.5197 
 601   0.0000      16.842485       458.3073 
 602   0.0000      16.945650       461.1146 
 603   0.0000      17.026053       463.3025 
 604   0.0000      17.073022       464.5806 
 605   0.0000      17.075430       464.6461 
[...]
   0 C :    0.061744    0.000000
   1 O :    0.499048    0.000000
   2 N :    0.936972   -0.000000
   3 H :   -0.454562   -0.000000
   4 H :   -0.542116   -0.000000
   5 H :   -0.501088    0.000000

----------------------------------------------------
LOEWDIN REDUCED ORBITAL CHARGES AND SPIN POPULATIONS
----------------------------------------------------
CHARGE
  0 C s       :     2.465518  s :     2.465518
      pz      :     0.510131  p :     2.079300
      px      :     0.827359
      py      :     0.741811
      dz2     :     0.072703  d :     0.971126
      dxz     :     0.205900
      dyz     :     0.041724
      dx2y2   :     0.277310
      dxy     :     0.373489
      f0      :     0.019191  f :     0.324484
      f+1     :     0.032120
      f-1     :     0.012771
      f+2     :     0.033692
      f-2     :     0.039168
      f+3     :     0.086660
      f-3     :     0.100883
      g0      :     0.003328  g :     0.078389
      g+1     :     0.014497
      g-1     :     0.002838
      g+2     :     0.006768
      g-2     :     0.007328
      g+3     :     0.004861
      g-3     :     0.002142
      g+4     :     0.011813
      g-4     :     0.024813
      h0      :     0.001329  h :     0.019437
      h+1     :     0.002067
      h-1     :     0.001209
      h+2     :     0.001055
      h-2     :     0.002020
      h+3     :     0.002796
      h-3     :     0.002159
      h+4     :     0.000827
      h-4     :     0.000144
      h+5     :     0.002964
      h-5     :     0.002867
  1 O s       :     3.033647  s :     3.033647
      pz      :     1.092688  p :     3.831406
      px      :     1.388919
      py      :     1.349799
      dz2     :     0.030484  d :     0.257314
      dxz     :     0.054416
      dyz     :     0.002384
      dx2y2   :     0.068391
      dxy     :     0.101638
      f0      :     0.017020  f :     0.175861
      f+1     :     0.020703
      f-1     :     0.007702
      f+2     :     0.022206
      f-2     :     0.005061
      f+3     :     0.040855
      f-3     :     0.062315
      g0      :     0.006733  g :     0.121677
      g+1     :     0.017662
      g-1     :     0.001843
      g+2     :     0.007197
      g-2     :     0.012062
      g+3     :     0.004964
      g-3     :     0.006925
      g+4     :     0.039736
      g-4     :     0.024556
      h0      :     0.006300  h :     0.081047
      h+1     :     0.005007
      h-1     :     0.001752
      h+2     :     0.006912
      h-2     :     0.003543
      h+3     :     0.006817
      h-3     :     0.008054
      h+4     :     0.000529
      h-4     :     0.005479
      h+5     :     0.026793
      h-5     :     0.009860
  2 N s       :     2.565394  s :     2.565394
      pz      :     0.924317  p :     2.744904
      px      :     0.917542
      py      :     0.903045
      dz2     :     0.041479  d :     0.355389
      dxz     :     0.038646
      dyz     :     0.021393
      dx2y2   :     0.156165
      dxy     :     0.097706
      f0      :     0.014215  f :     0.165790
      f+1     :     0.016739
      f-1     :     0.012945
      f+2     :     0.004610
      f-2     :     0.020120
      f+3     :     0.046823
      f-3     :     0.050338
      g0      :     0.007561  g :     0.131180
      g+1     :     0.015342
      g-1     :     0.003990
      g+2     :     0.012142
      g-2     :     0.008492
      g+3     :     0.001710
      g-3     :     0.009662
      g+4     :     0.035791
      g-4     :     0.036488
      h0      :     0.008093  h :     0.100371
      h+1     :     0.006873
      h-1     :     0.002578
      h+2     :     0.004614
      h-2     :     0.008104
      h+3     :     0.007423
      h-3     :     0.009512
      h+4     :     0.000179
      h-4     :     0.005960
      h+5     :     0.030360
      h-5     :     0.016676
  3 H s       :     0.615828  s :     0.615828
      pz      :     0.048408  p :     0.259158
      px      :     0.078392
      py      :     0.132358
      dz2     :     0.029009  d :     0.257826
      dxz     :     0.020267
      dyz     :     0.051913
      dx2y2   :     0.074626
      dxy     :     0.082010
      f0      :     0.014310  f :     0.180698
      f+1     :     0.012558
      f-1     :     0.017649
      f+2     :     0.015582
      f-2     :     0.021496
      f+3     :     0.047217
      f-3     :     0.051888
      g0      :     0.007228  g :     0.141051
      g+1     :     0.008858
      g-1     :     0.010968
      g+2     :     0.009078
      g-2     :     0.012186
      g+3     :     0.006207
      g-3     :     0.011802
      g+4     :     0.043138
      g-4     :     0.031586
  4 H s       :     0.573980  s :     0.573980
      pz      :     0.108101  p :     0.370630
      px      :     0.087829
      py      :     0.174701
      dz2     :     0.032580  d :     0.329073
      dxz     :     0.013678
      dyz     :     0.096155
      dx2y2   :     0.084096
      dxy     :     0.102563
      f0      :     0.018330  f :     0.164927
      f+1     :     0.009109
      f-1     :     0.017033
      f+2     :     0.016399
      f-2     :     0.017588
      f+3     :     0.036091
      f-3     :     0.050377
      g0      :     0.005695  g :     0.103506
      g+1     :     0.006046
      g-1     :     0.011147
      g+2     :     0.006924
      g-2     :     0.009368
      g+3     :     0.007902
      g-3     :     0.002861
      g+4     :     0.032014
      g-4     :     0.021549
  5 H s       :     0.588409  s :     0.588409
      pz      :     0.116700  p :     0.377626
      px      :     0.176577
      py      :     0.084349
      dz2     :     0.032869  d :     0.315869
      dxz     :     0.097859
      dyz     :     0.006873
      dx2y2   :     0.076819
      dxy     :     0.101450
      f0      :     0.015812  f :     0.140745
      f+1     :     0.015521
      f-1     :     0.006279
      f+2     :     0.018921
      f-2     :     0.006692
      f+3     :     0.043176
      f-3     :     0.034345
      g0      :     0.004520  g :     0.078439
      g+1     :     0.011277
      g-1     :     0.001084
      g+2     :     0.006033
      g-2     :     0.006894
      g+3     :     0.003645
      g-3     :     0.004714
      g+4     :     0.027623
      g-4     :     0.012648

SPIN
  0 C s       :     0.000000  s :     0.000000
      pz      :    -0.000000  p :     0.000000
      px      :     0.000000
      py      :     0.000000
      dz2     :    -0.000000  d :     0.000000
      dxz     :     0.000000
      dyz     :     0.000000
      dx2y2   :     0.000000
      dxy     :     0.000000
      f0      :     0.000000  f :    -0.000000
      f+1     :    -0.000000
      f-1     :    -0.000000
      f+2     :     0.000000
      f-2     :     0.000000
      f+3     :    -0.000000
      f-3     :     0.000000
      g0      :     0.000000  g :    -0.000000
      g+1     :    -0.000000
      g-1     :    -0.000000
      g+2     :     0.000000
      g-2     :    -0.000000
      g+3     :    -0.000000
      g-3     :    -0.000000
      g+4     :    -0.000000
      g-4     :    -0.000000
      h0      :     0.000000  h :     0.000000
      h+1     :    -0.000000
      h-1     :     0.000000
      h+2     :     0.000000
      h-2     :    -0.000000
      h+3     :     0.000000
      h-3     :     0.000000
      h+4     :     0.000000
      h-4     :     0.000000
      h+5     :     0.000000
      h-5     :    -0.000000
  1 O s       :     0.000000  s :     0.000000
      pz      :     0.000000  p :     0.000000
      px      :    -0.000000
      py      :     0.000000
      dz2     :     0.000000  d :     0.000000
      dxz     :    -0.000000
      dyz     :    -0.000000
      dx2y2   :     0.000000
      dxy     :    -0.000000
      f0      :    -0.000000  f :    -0.000000
      f+1     :    -0.000000
      f-1     :     0.000000
      f+2     :    -0.000000
      f-2     :    -0.000000
      f+3     :    -0.000000
      f-3     :    -0.000000
      g0      :     0.000000  g :    -0.000000
      g+1     :    -0.000000
      g-1     :    -0.000000
      g+2     :    -0.000000
      g-2     :    -0.000000
      g+3     :     0.000000
      g-3     :    -0.000000
      g+4     :    -0.000000
      g-4     :    -0.000000
      h0      :     0.000000  h :     0.000000
      h+1     :     0.000000
      h-1     :    -0.000000
      h+2     :     0.000000
      h-2     :     0.000000
      h+3     :     0.000000
      h-3     :    -0.000000
      h+4     :    -0.000000
      h-4     :    -0.000000
      h+5     :     0.000000
      h-5     :    -0.000000
  2 N s       :     0.000000  s :     0.000000
      pz      :    -0.000000  p :    -0.000000
      px      :    -0.000000
      py      :    -0.000000
      dz2     :    -0.000000  d :     0.000000
      dxz     :    -0.000000
      dyz     :     0.000000
      dx2y2   :     0.000000
      dxy     :    -0.000000
      f0      :     0.000000  f :     0.000000
      f+1     :    -0.000000
      f-1     :     0.000000
      f+2     :     0.000000
      f-2     :     0.000000
      f+3     :     0.000000
      f-3     :     0.000000
      g0      :     0.000000  g :     0.000000
      g+1     :    -0.000000
      g-1     :    -0.000000
      g+2     :    -0.000000
      g-2     :     0.000000
      g+3     :     0.000000
      g-3     :    -0.000000
      g+4     :    -0.000000
      g-4     :    -0.000000
      h0      :     0.000000  h :    -0.000000
      h+1     :     0.000000
      h-1     :    -0.000000
      h+2     :     0.000000
      h-2     :    -0.000000
      h+3     :     0.000000
      h-3     :    -0.000000
      h+4     :    -0.000000
      h-4     :     0.000000
      h+5     :    -0.000000
      h-5     :    -0.000000
  3 H s       :    -0.000000  s :    -0.000000
      pz      :    -0.000000  p :     0.000000
      px      :     0.000000
      py      :     0.000000
      dz2     :     0.000000  d :    -0.000000
      dxz     :    -0.000000
      dyz     :     0.000000
      dx2y2   :    -0.000000
      dxy     :     0.000000
      f0      :    -0.000000  f :    -0.000000
      f+1     :    -0.000000
      f-1     :    -0.000000
      f+2     :     0.000000
      f-2     :    -0.000000
      f+3     :    -0.000000
      f-3     :    -0.000000
      g0      :     0.000000  g :     0.000000
      g+1     :    -0.000000
      g-1     :     0.000000
      g+2     :    -0.000000
      g-2     :     0.000000
      g+3     :    -0.000000
      g-3     :     0.000000
      g+4     :     0.000000
      g-4     :    -0.000000
  4 H s       :     0.000000  s :     0.000000
      pz      :     0.000000  p :    -0.000000
      px      :     0.000000
      py      :    -0.000000
      dz2     :    -0.000000  d :    -0.000000
      dxz     :    -0.000000
      dyz     :     0.000000
      dx2y2   :     0.000000
      dxy     :     0.000000
      f0      :     0.000000  f :     0.000000
      f+1     :    -0.000000
      f-1     :    -0.000000
      f+2     :     0.000000
      f-2     :     0.000000
      f+3     :     0.000000
      f-3     :     0.000000
      g0      :     0.000000  g :    -0.000000
      g+1     :     0.000000
      g-1     :     0.000000
      g+2     :    -0.000000
      g-2     :    -0.000000
      g+3     :     0.000000
      g-3     :     0.000000
      g+4     :     0.000000
      g-4     :    -0.000000
  5 H s       :     0.000000  s :     0.000000
      pz      :    -0.000000  p :    -0.000000
      px      :    -0.000000
      py      :     0.000000
      dz2     :     0.000000  d :     0.000000
      dxz     :    -0.000000
      dyz     :    -0.000000
      dx2y2   :     0.000000
      dxy     :     0.000000
      f0      :    -0.000000  f :    -0.000000
      f+1     :    -0.000000
      f-1     :    -0.000000
      f+2     :    -0.000000
      f-2     :    -0.000000
      f+3     :    -0.000000
      f-3     :    -0.000000
      g0      :     0.000000  g :     0.000000
      g+1     :     0.000000
      g-1     :    -0.000000
      g+2     :    -0.000000
      g-2     :    -0.000000
      g+3     :    -0.000000
      g-3     :    -0.000000
      g+4     :     0.000000
      g-4     :    -0.000000


                      *****************************
                      * MAYER POPULATION ANALYSIS *
                      *****************************

  NA   - Mulliken gross atomic population
  ZA   - Total nuclear charge
  QA   - Mulliken gross atomic charge
  VA   - Mayer's total valence
  BVA  - Mayer's bonded valence
  FA   - Mayer's free valence

  ATOM       NA         ZA         QA         VA         BVA        FA
  0 C      5.3938     6.0000     0.6062     3.8811     3.8811     0.0000
  1 O      8.3695     8.0000    -0.3695     1.8700     1.8700    -0.0000
  2 N      7.4052     7.0000    -0.4052     3.4359     3.4359     0.0000
  3 H      1.1031     1.0000    -0.1031     1.1580     1.1580     0.0000
  4 H      0.8472     1.0000     0.1528     1.0441     1.0441     0.0000
  5 H      0.8812     1.0000     0.1188     1.0796     1.0796     0.0000

  Mayer bond orders larger than 0.1
B(  0-C ,  1-O ) :   1.6619 B(  0-C ,  2-N ) :   1.2491 B(  0-C ,  3-H ) :   0.9713 
B(  1-O ,  3-H ) :   0.1107 B(  2-N ,  4-H ) :   0.9863 B(  2-N ,  5-H ) :   1.0545 


-------
TIMINGS
-------

Total SCF time: 0 days 2 hours 6 min 7 sec 

Total time                  ....    7567.101 sec
Sum of individual times     ....    7565.168 sec  (100.0%)

Fock matrix formation       ....    7549.813 sec  ( 99.8%)
  XC integration            ....      79.951 sec  (  1.1% of F)
    Basis function eval.    ....       3.566 sec  (  4.5% of XC)
    Density eval.           ....      25.342 sec  ( 31.7% of XC)
    XC-Functional eval.     ....       0.277 sec  (  0.3% of XC)
    XC-Potential eval.      ....      49.846 sec  ( 62.3% of XC)
Diagonalization             ....       7.798 sec  (  0.1%)
Density matrix formation    ....       0.106 sec  (  0.0%)
Population analysis         ....       0.497 sec  (  0.0%)
Initial guess               ....       2.792 sec  (  0.0%)
Orbital Transformation      ....       0.000 sec  (  0.0%)
Orbital Orthonormalization  ....       0.000 sec  (  0.0%)
DIIS solution               ....       3.485 sec  (  0.0%)
Grid generation             ....       0.678 sec  (  0.0%)

-------------------------   --------------------
FINAL SINGLE POINT ENERGY      -169.792396685243
-------------------------   --------------------


                            ***************************************
                            *     ORCA property calculations      *
                            ***************************************

                                    ---------------------
                                    Active property flags
                                    ---------------------
   (+) Dipole Moment
   (+) Polarizability


------------------------------------------------------------------------------
                       ORCA ELECTRIC PROPERTIES CALCULATION
------------------------------------------------------------------------------

Dipole Moment Calculation                       ... on
Quadrupole Moment Calculation                   ... off
Polarizability Calculation                      ... Analytic (CP-SCF)
GBWName                                         ... hconh2_pbe.gbw
Electron density file                           ... hconh2_pbe.scfp.tmp
The origin for moment calculation is the CENTER OF MASS  = ( 0.124214,  0.016118  0.000000)

-------------
DIPOLE MOMENT
-------------
                                X             Y             Z
Electronic contribution:      1.49986       0.12071       0.00000
Nuclear contribution   :     -2.98152      -0.38703       0.00000
                        -----------------------------------------
Total Dipole Moment    :     -1.48166      -0.26632       0.00000
                        -----------------------------------------
Magnitude (a.u.)       :      1.50540
Magnitude (Debye)      :      3.82642



--------------------
Rotational spectrum 
--------------------
 
Rotational constants in cm-1:     2.468819     0.383251     0.331751 
Rotational constants in MHz : 74013.333721 11489.574538  9945.646668 

 Dipole components along the rotational axes: 
x,y,z [a.u.] :     1.478533     0.283146     0.000000 
x,y,z [Debye]:     3.758132     0.719700     0.000000 

 
Transforming and storing MO dipole integrals   ... done

                ... starting polarizability calculation

Opening the Dipole integral file               ... (hconh2_pbe.dmo.tmp) done
Reading Dipole-MO integrals                    ... done
Solving CP-SCF equations                       ... 

           ************************************************************
           *        Program running with 4 parallel MPI-processes     *
           *              working on a common directory               *
           ************************************************************

------------------------------------------------------------------------------
                           ORCA CP-SCF CALCULATION
------------------------------------------------------------------------------

Input orbitals are from        ... hconh2_pbe.gbw
Input Perturbation             ... hconh2_pbe.cpv.tmp
Wavefunction output            ... hconh2_pbe.cpu.tmp
Perturbation mode              ... Real perturbation (singlet)
Solver                         ... POPLE
Max. number of iterations      ... 200
Convergence tolerance          ... 1.000e-06
Integral handling              ... Direct
Number of perturbations        ... 3
Number of operators            ... 2
Orbital ranges used for CP-SCF:
 Operator 0:  Orbitals   0... 11  to  12...698
 Operator 1:  Orbitals   0... 11  to  12...698
DFT calculation                         ... on
Exchange functional (SCF)               ... PBE
Exchange functional (CP-SCF)            ... PBE
   PBE kappa parameter  XKappa (SCF)    ...  0.804000
   PBE kappa parameter  XKappa (CP-SCF) ...  0.804000
   PBE mue parameter   XMuePBE (SCF)    ...  0.219520
   PBE mue parameter   XMuePBE (CP-SCF) ...  0.219520
Correlation functional (SCF)            ... PBE
Correlation functional (CP-SCF)         ... PBE
   PBE beta parameter CBetaPBE (SCF)    ...  0.066725
   PBE beta parameter CBetaPBE (CP-SCF) ...  0.066725
 LDA part of GGA corr.  LDAOpt (SCF)    ... PW91-LDA
 LDA part of GGA corr.  LDAOpt (CP-SCF) ... PW91-LDA
Variables per vector in CP-SCF ... 16488
Number of vectors sought       ... 3
Recalculating density on grid  ... done
Calculating the xc-kernel      ... done
     CP-SCF ITERATION   0: 
     CP-SCF ITERATION   1:      0.750038026128
     CP-SCF ITERATION   2:      0.140261638772
     CP-SCF ITERATION   3:      0.004755234637
     CP-SCF ITERATION   4:      0.000274004739
     CP-SCF ITERATION   5:      0.000019998658
     CP-SCF ITERATION   6:      0.000000415261
done
Reading CP-SCF coefficients                    ... done
Doing the polarizability tensor   ... done
Cleaning up                                    ... done

-------------------------
THE POLARIZABILITY TENSOR
-------------------------

The raw cartesian tensor (atomic units):
   37.60143      2.13584     -0.00000  
    2.13584     30.49633     -0.00000  
   -0.00000     -0.00000     21.15185  
diagonalized tensor: 
   21.15185     29.90371     38.19405  

    0.00000     -0.26736     -0.96360  
    0.00000      0.96360     -0.26736  
    1.00000     -0.00000      0.00000  

Isotropic polarizability :  29.74987


Timings for individual modules:

Sum of individual times         ...    12413.756 sec (= 206.896 min)
GTO integral calculation        ...        3.541 sec (=   0.059 min)   0.0 %
SCF iterations                  ...     7567.393 sec (= 126.123 min)  61.0 %
Solution of CP-SCF eqns.        ...     4842.822 sec (=  80.714 min)  39.0 %
                             ****ORCA TERMINATED NORMALLY****
TOTAL RUN TIME: 0 days 3 hours 26 minutes 55 seconds 88 msec
