
                                 *****************
                                 * O   R   C   A *
                                 *****************

           --- An Ab Initio, DFT and Semiempirical electronic structure package ---

                  #######################################################
                  #                        -***-                        #
                  #          Department of theory and spectroscopy      #
                  #               Directorship: Frank Neese             #
                  #        Max Planck Institute fuer Kohlenforschung    #
                  #                Kaiser Wilhelm Platz 1               #
                  #                 D-45470 Muelheim/Ruhr               #
                  #                      Germany                        #
                  #                                                     #
                  #                  All rights reserved                #
                  #                        -***-                        #
                  #######################################################


                         Program Version 4.1.2  - RELEASE  -


 With contributions from (in alphabetic order):
   Daniel Aravena         : Magnetic Properties
   Michael Atanasov       : Ab Initio Ligand Field Theory
   Alexander A. Auer      : GIAO ZORA
   Ute Becker             : Parallelization
   Giovanni Bistoni       : ED, Open-shell LED
   Martin Brehm           : Molecular dynamics
   Dmytro Bykov           : SCF Hessian
   Vijay G. Chilkuri      : MRCI spin determinant printing
   Dipayan Datta          : RHF DLPNO-CCSD density
   Achintya Kumar Dutta   : EOM-CC, STEOM-CC
   Dmitry Ganyushin       : Spin-Orbit,Spin-Spin,Magnetic field MRCI
   Miquel Garcia          : C-PCM Hessian
   Yang Guo               : DLPNO-NEVPT2, CIM, IAO-localization
   Andreas Hansen         : Spin unrestricted coupled pair/coupled cluster methods
   Benjamin Helmich-Paris : CASSCF linear response (MC-RPA)
   Lee Huntington         : MR-EOM, pCC
   Robert Izsak           : Overlap fitted RIJCOSX, COSX-SCS-MP3, EOM
   Christian Kollmar      : KDIIS, OOCD, Brueckner-CCSD(T), CCSD density
   Simone Kossmann        : Meta GGA functionals, TD-DFT gradient, OOMP2, MP2 Hessian
   Martin Krupicka        : AUTO-CI
   Lucas Lang             : DCDCAS
   Dagmar Lenk            : GEPOL surface, SMD
   Dimitrios Liakos       : Extrapolation schemes; parallel MDCI
   Dimitrios Manganas     : ROCIS; embedding schemes
   Dimitrios Pantazis     : SARC Basis sets
   Taras Petrenko         : DFT Hessian,TD-DFT gradient, ASA, ECA, R-Raman, ABS, FL, XAS/XES, NRVS
   Peter Pinski           : DLPNO-MP2, DLPNO-MP2 Gradient
   Christoph Reimann      : Effective Core Potentials
   Marius Retegan         : Local ZFS, SOC
   Christoph Riplinger    : Optimizer, TS searches, QM/MM, DLPNO-CCSD(T), (RO)-DLPNO pert. Triples
   Tobias Risthaus        : Range-separated hybrids, TD-DFT gradient, RPA, STAB
   Michael Roemelt        : Restricted open shell CIS
   Masaaki Saitow         : Open-shell DLPNO
   Barbara Sandhoefer     : DKH picture change effects
   Avijit Sen             : IP-ROCIS
   Kantharuban Sivalingam : CASSCF convergence, NEVPT2, FIC-MRCI
   Bernardo de Souza      : ESD, SOC TD-DFT
   Georgi Stoychev        : AutoAux, RI-MP2 NMR
   Willem Van den Heuvel  : Paramagnetic NMR
   Boris Wezisla          : Elementary symmetry handling
   Frank Wennmohs         : Technical directorship


 We gratefully acknowledge several colleagues who have allowed us to
 interface, adapt or use parts of their codes:
   Stefan Grimme, W. Hujo, H. Kruse,             : VdW corrections, initial TS optimization,
                  C. Bannwarth                     DFT functionals, gCP, sTDA/sTD-DF
   Ed Valeev                                     : LibInt (2-el integral package), F12 methods
   Garnet Chan, S. Sharma, J. Yang, R. Olivares  : DMRG
   Ulf Ekstrom                                   : XCFun DFT Library
   Mihaly Kallay                                 : mrcc  (arbitrary order and MRCC methods)
   Andreas Klamt, Michael Diedenhofen            : otool_cosmo (COSMO solvation model)
   Jiri Pittner, Ondrej Demel                    : Mk-CCSD
   Frank Weinhold                                : gennbo (NPA and NBO analysis)
   Christopher J. Cramer and Donald G. Truhlar   : smd solvation model
   Lars Goerigk                                  : TD-DFT with DH, B97 family of functionals
   V. Asgeirsson, H. Jonsson                     : NEB implementation
   FAccTs GmbH                                   : IRC, NEB, NEB-TS, Multilevel


 Your calculation uses the libint2 library for the computation of 2-el integrals
 For citations please refer to: http://libint.valeyev.net

 This ORCA versions uses:
   CBLAS   interface :  Fast vector & matrix operations
   LAPACKE interface :  Fast linear algebra routines
   SCALAPACK package :  Parallel linear algebra routines


----- Orbital basis set information -----
Your calculation utilizes the basis: aug-pc-4
   H, C-F              : F. Jensen, J. Chem. Phys. 115, 9113 (2001).
                         F. Jensen, J. Chem. Phys. 116, 7372 (2002).
                         F. Jensen, J. Chem. Phys. 117, 9234 (2002).
   Si-Cl               : F. Jensen, T. Helgaker, J. Chem. Phys. 121, 3463 (2004).
   He-B, Ne-Mg, Al, Ar : F. Jensen, J. Phys. Chem. A 111, 11198 (2007).
   K, Ca, Ga-Kr        : F. Jensen, J. Chem. Phys. 136, 094110 (2012).
   Sc-Zn               : F. Jensen, J. Chem. Phys. 138, 014107 (2013).

================================================================================
                                        WARNINGS
                       Please study these warnings very carefully!
================================================================================


INFO   : the flag for use of LIBINT has been found!

================================================================================
                                       INPUT FILE
================================================================================
NAME = he_pbe.inp
|  1> !uks pbe nori aug-pc-4 grid5 nofinalgrid verytightscf
|  2> 
|  3> %maxcore 1500
|  4> 
|  5> %pal nprocs 4 end
|  6> 
|  7> %scf
|  8> 	maxiter 200
|  9> end
| 10> %elprop
| 11> 	dipole true
| 12> 	 polar 1
| 13> 	 maxiter 200
| 14> end
| 15> 
| 16> * xyz 0 1
| 17> He 0.0 0.0 0.0
| 18> *
| 19> 
| 20>                          ****END OF INPUT****
================================================================================

                       ****************************
                       * Single Point Calculation *
                       ****************************

---------------------------------
CARTESIAN COORDINATES (ANGSTROEM)
---------------------------------
  He     0.000000    0.000000    0.000000

----------------------------
CARTESIAN COORDINATES (A.U.)
----------------------------
  NO LB      ZA    FRAG     MASS         X           Y           Z
   0 He    2.0000    0     4.003    0.000000    0.000000    0.000000

--------------------------------
INTERNAL COORDINATES (ANGSTROEM)
--------------------------------
 He     0   0   0     0.000000000000     0.00000000     0.00000000

---------------------------
INTERNAL COORDINATES (A.U.)
---------------------------
 He     0   0   0     0.000000000000     0.00000000     0.00000000

---------------------
BASIS SET INFORMATION
---------------------
There are 1 groups of distinct atoms

 Group   1 Type He  : 12s7p4d3f2g contracted to 8s7p4d3f2g pattern {51111111/1111111/1111/111/11}

Atom   0He   basis set group =>   1


           ************************************************************
           *        Program running with 4 parallel MPI-processes     *
           *              working on a common directory               *
           ************************************************************
------------------------------------------------------------------------------
                           ORCA GTO INTEGRAL CALCULATION
------------------------------------------------------------------------------

                         BASIS SET STATISTICS AND STARTUP INFO

 # of primitive gaussian shells          ...   28
 # of primitive gaussian functions       ...   92
 # of contracted shells                  ...   24
 # of contracted basis functions         ...   88
 Highest angular momentum                ...    4
 Maximum contraction depth               ...    5
 Integral package used                   ... LIBINT
 Integral threshhold            Thresh   ...  1.000e-12
 Primitive cut-off              TCut     ...  1.000e-14


------------------------------ INTEGRAL EVALUATION ----------------------------


 * One electron integrals 
 Pre-screening matrix                    ... done
 Shell pair data                         ... done (   0.000 sec)



           ************************************************************
           *        Program running with 4 parallel MPI-processes     *
           *              working on a common directory               *
           ************************************************************
-------------------------------------------------------------------------------
                                 ORCA SCF
-------------------------------------------------------------------------------

------------
SCF SETTINGS
------------
Hamiltonian:
 Density Functional     Method          .... DFT(GTOs)
 Exchange Functional    Exchange        .... PBE
   PBE kappa parameter   XKappa         ....  0.804000
   PBE mue parameter    XMuePBE         ....  0.219520
 Correlation Functional Correlation     .... PBE
   PBE beta parameter  CBetaPBE         ....  0.066725
 LDA part of GGA corr.  LDAOpt          .... PW91-LDA
 Gradients option       PostSCFGGA      .... off
   Density functional embedding theory  .... OFF
   NL short-range parameter             ....  6.400000


General Settings:
 Integral files         IntName         .... he_pbe
 Hartree-Fock type      HFTyp           .... UHF
 Total Charge           Charge          ....    0
 Multiplicity           Mult            ....    1
 Number of Electrons    NEL             ....    2
 Basis Dimension        Dim             ....   88
 Nuclear Repulsion      ENuc            ....      0.0000000000 Eh

Convergence Acceleration:
 DIIS                   CNVDIIS         .... on
   Start iteration      DIISMaxIt       ....    12
   Startup error        DIISStart       ....  0.200000
   # of expansion vecs  DIISMaxEq       ....     5
   Bias factor          DIISBfac        ....   1.050
   Max. coefficient     DIISMaxC        ....  10.000
 Newton-Raphson         CNVNR           .... off
 SOSCF                  CNVSOSCF        .... off
 Level Shifting         CNVShift        .... on
   Level shift para.    LevelShift      ....    0.2500
   Turn off err/grad.   ShiftErr        ....    0.0010
 Zerner damping         CNVZerner       .... off
 Static damping         CNVDamp         .... on
   Fraction old density DampFac         ....    0.7000
   Max. Damping (<1)    DampMax         ....    0.9800
   Min. Damping (>=0)   DampMin         ....    0.0000
   Turn off err/grad.   DampErr         ....    0.1000
 Fernandez-Rico         CNVRico         .... off

SCF Procedure:
 Maximum # iterations   MaxIter         ....   200
 SCF integral mode      SCFMode         .... Direct
   Integral package                     .... LIBINT
 Reset frequency        DirectResetFreq ....    20
 Integral Threshold     Thresh          ....  1.000e-12 Eh
 Primitive CutOff       TCut            ....  1.000e-14 Eh

Convergence Tolerance:
 Convergence Check Mode ConvCheckMode   .... Total+1el-Energy
 Convergence forced     ConvForced      .... 0
 Energy Change          TolE            ....  1.000e-09 Eh
 1-El. energy change                    ....  1.000e-06 Eh
 DIIS Error             TolErr          ....  1.000e-08


Diagonalization of the overlap matrix:
Smallest eigenvalue                        ... 3.894e-03
Time for diagonalization                   ...    0.001 sec
Threshold for overlap eigenvalues          ... 1.000e-08
Number of eigenvalues below threshold      ... 0
Time for construction of square roots      ...    0.005 sec
Total time needed                          ...    0.006 sec

-------------------
DFT GRID GENERATION
-------------------

General Integration Accuracy     IntAcc      ...  5.010
Radial Grid Type                 RadialGrid  ... Gauss-Chebyshev
Angular Grid (max. acc.)         AngularGrid ... Lebedev-434
Angular grid pruning method      GridPruning ... 3 (G Style)
Weight generation scheme         WeightScheme... Becke
Basis function cutoff            BFCut       ...    1.0000e-12
Integration weight cutoff        WCut        ...    1.0000e-14
Grids for H and He will be reduced by one unit

# of grid points (after initial pruning)     ...   6764 (   0.0 sec)
# of grid points (after weights+screening)   ...   6764 (   0.0 sec)
Grid point division into batches done        ...    0.0 sec
Reduced shell lists constructed in    0.0 sec

Total number of grid points                  ...     6764
Total number of batches                      ...      106
Average number of points per batch           ...       63
Average number of grid points per atom       ...     6764
Average number of shells per batch           ...    10.54 (43.90%)
Average number of basis functions per batch  ...    39.25 (44.60%)
Average number of large shells per batch     ...     8.86 (84.07%)
Average number of large basis fcns per batch ...    34.14 (86.99%)
Maximum spatial batch extension              ...  21.92, 16.88, 15.22 au
Average spatial batch extension              ...   3.00,  2.80,  2.61 au

Time for grid setup =    0.056 sec

------------------------------
INITIAL GUESS: MODEL POTENTIAL
------------------------------
Loading Hartree-Fock densities                     ... done
Calculating cut-offs                               ... done
Setting up the integral package                    ... done
Initializing the effective Hamiltonian             ... done
Starting the Coulomb interaction                   ... done (   0.0 sec)
Reading the grid                                   ... done
Mapping shells                                     ... done
Starting the XC term evaluation                    ... done (   0.0 sec)
  promolecular density results
     # of electrons  =      1.999920377
     EX              =     -1.013776107
     EC              =     -0.042081621
     EX+EC           =     -1.055857729
Transforming the Hamiltonian                       ... done (   0.0 sec)
Diagonalizing the Hamiltonian                      ... done (   0.0 sec)
Back transforming the eigenvectors                 ... done (   0.0 sec)
Now organizing SCF variables                       ... done
                      ------------------
                      INITIAL GUESS DONE (   0.2 sec)
                      ------------------
--------------
SCF ITERATIONS
--------------
ITER       Energy         Delta-E        Max-DP      RMS-DP      [F,P]     Damp
               ***  Starting incremental Fock matrix formation  ***
  0     -2.8928980331   0.000000000000 0.00047635  0.00000860  0.0122790 0.7000
  1     -2.8929114602  -0.000013427079 0.00031302  0.00000653  0.0077922 0.7000
                               ***Turning on DIIS***
  2     -2.8929192390  -0.000007778730 0.00056409  0.00001311  0.0045181 0.0000
  3     -2.8929324504  -0.000013211401 0.00020177  0.00000392  0.0020745 0.0000
  4     -2.8929335673  -0.000001116899 0.00004363  0.00000109  0.0002609 0.0000
  5     -2.8929336003  -0.000000033025 0.00000518  0.00000010  0.0000435 0.0000
                 **** Energy Check signals convergence ****

               *****************************************************
               *                     SUCCESS                       *
               *           SCF CONVERGED AFTER   6 CYCLES          *
               *****************************************************


----------------
TOTAL SCF ENERGY
----------------

Total Energy       :           -2.89293360 Eh             -78.72073 eV

Components:
Nuclear Repulsion  :            0.00000000 Eh               0.00000 eV
Electronic Energy  :           -2.89293360 Eh             -78.72073 eV
One Electron Energy:           -3.87350513 Eh            -105.40343 eV
Two Electron Energy:            0.98057153 Eh              26.68271 eV

Virial components:
Potential Energy   :           -5.74887503 Eh            -156.43484 eV
Kinetic Energy     :            2.85594142 Eh              77.71412 eV
Virial Ratio       :            2.01295271


DFT components:
N(Alpha)           :        1.000000003473 electrons
N(Beta)            :        1.000000003473 electrons
N(Total)           :        2.000000006945 electrons
E(X)               :       -1.005099641966 Eh       
E(C)               :       -0.041063408350 Eh       
E(XC)              :       -1.046163050316 Eh       
DFET-embed. en.    :        0.000000000000 Eh       

---------------
SCF CONVERGENCE
---------------

  Last Energy change         ...   -4.8154e-10  Tolerance :   1.0000e-09
  Last MAX-Density change    ...    8.1200e-08  Tolerance :   1.0000e-08
  Last RMS-Density change    ...    1.2692e-09  Tolerance :   1.0000e-09
  Last DIIS Error            ...    2.6029e-07  Tolerance :   1.0000e-08

             **** THE GBW FILE WAS UPDATED (he_pbe.gbw) ****
             **** DENSITY FILE WAS UPDATED (he_pbe.scfp.tmp) ****
             **** ENERGY FILE WAS UPDATED (he_pbe.en.tmp) ****
----------------------
UHF SPIN CONTAMINATION
----------------------

Warning: in a DFT calculation there is little theoretical justification to 
         calculate <S**2> as in Hartree-Fock theory. We will do it anyways
         but you should keep in mind that the values have only limited relevance

Expectation value of <S**2>     :    -0.000000
Ideal value S*(S+1) for S=0.0   :     0.000000
Deviation                       :    -0.000000

----------------
ORBITAL ENERGIES
----------------
                 SPIN UP ORBITALS
  NO   OCC          E(Eh)            E(eV) 
   0   1.0000      -0.579291       -15.7633 
   1   0.0000       0.033773         0.9190 
   2   0.0000       0.138829         3.7777 
   3   0.0000       0.138829         3.7777 
   4   0.0000       0.138829         3.7777 
   5   0.0000       0.274949         7.4818 
   6   0.0000       0.423398        11.5213 
   7   0.0000       0.423398        11.5213 
   8   0.0000       0.423398        11.5213 
   9   0.0000       0.423398        11.5213 
  10   0.0000       0.423398        11.5213 
  11   0.0000       0.566000        15.4016 
  12   0.0000       0.566000        15.4016 
  13   0.0000       0.566000        15.4016 
  14   0.0000       0.784002        21.3338 
  15   0.0000       0.784002        21.3338 
  16   0.0000       0.784002        21.3338 
  17   0.0000       0.784002        21.3338 
  18   0.0000       0.784002        21.3338 
  19   0.0000       0.784002        21.3338 
  20   0.0000       0.784002        21.3338 
  21   0.0000       1.064395        28.9637 
  22   0.0000       1.202201        32.7136 
  23   0.0000       1.202201        32.7136 
  24   0.0000       1.202201        32.7136 
  25   0.0000       1.202201        32.7136 
  26   0.0000       1.202201        32.7136 
  27   0.0000       1.202201        32.7136 
  28   0.0000       1.202201        32.7136 
  29   0.0000       1.202201        32.7136 
  30   0.0000       1.202201        32.7136 
  31   0.0000       1.639491        44.6128 
  32   0.0000       1.639491        44.6128 
  33   0.0000       1.639491        44.6128 
  34   0.0000       1.658916        45.1414 
  35   0.0000       1.658916        45.1414 
  36   0.0000       1.658916        45.1414 
  37   0.0000       1.658916        45.1414 
  38   0.0000       1.658916        45.1414 
  39   0.0000       3.318487        90.3006 
  40   0.0000       4.305743       117.1652 
  41   0.0000       4.305743       117.1652 
  42   0.0000       4.305743       117.1652 
  43   0.0000       4.879667       132.7825 
  44   0.0000       4.879667       132.7825 
  45   0.0000       4.879667       132.7825 
  46   0.0000       4.879667       132.7825 
  47   0.0000       4.879667       132.7825 
  48   0.0000       5.950854       161.9310 
  49   0.0000       5.950854       161.9310 
  50   0.0000       5.950854       161.9310 
  51   0.0000       5.950854       161.9310 
  52   0.0000       5.950854       161.9310 
  53   0.0000       5.950854       161.9310 
  54   0.0000       5.950854       161.9310 
  55   0.0000       9.540014       259.5970 
  56   0.0000      10.746154       292.4177 
  57   0.0000      10.746154       292.4177 
  58   0.0000      10.746154       292.4177 
  59   0.0000      14.896444       405.3528 
  60   0.0000      14.896444       405.3528 
  61   0.0000      14.896444       405.3528 
  62   0.0000      14.896444       405.3528 
  63   0.0000      14.896444       405.3528 
  64   0.0000      20.056068       545.7534 
  65   0.0000      20.056068       545.7534 
  66   0.0000      20.056068       545.7534 
  67   0.0000      20.056068       545.7534 
  68   0.0000      20.056068       545.7534 
  69   0.0000      20.056068       545.7534 
  70   0.0000      20.056068       545.7534 
  71   0.0000      24.236268       659.5024 
  72   0.0000      24.236268       659.5024 
  73   0.0000      24.236268       659.5024 
  74   0.0000      24.236268       659.5024 
  75   0.0000      24.236268       659.5024 
  76   0.0000      24.236268       659.5024 
  77   0.0000      24.236268       659.5024 
  78   0.0000      24.236268       659.5024 
  79   0.0000      24.236268       659.5024 
  80   0.0000      27.365863       744.6630 
  81   0.0000      29.985799       815.9551 
  82   0.0000      29.985799       815.9551 
  83   0.0000      29.985799       815.9551 
  84   0.0000     105.796407      2878.8666 
  85   0.0000     118.388272      3221.5087 
  86   0.0000     118.388272      3221.5087 
  87   0.0000     118.388272      3221.5087 

                 SPIN DOWN ORBITALS
  NO   OCC          E(Eh)            E(eV) 
   0   1.0000      -0.579291       -15.7633 
   1   0.0000       0.033773         0.9190 
   2   0.0000       0.138829         3.7777 
   3   0.0000       0.138829         3.7777 
   4   0.0000       0.138829         3.7777 
   5   0.0000       0.274949         7.4818 
   6   0.0000       0.423398        11.5213 
   7   0.0000       0.423398        11.5213 
   8   0.0000       0.423398        11.5213 
   9   0.0000       0.423398        11.5213 
  10   0.0000       0.423398        11.5213 
  11   0.0000       0.566000        15.4016 
  12   0.0000       0.566000        15.4016 
  13   0.0000       0.566000        15.4016 
  14   0.0000       0.784002        21.3338 
  15   0.0000       0.784002        21.3338 
  16   0.0000       0.784002        21.3338 
  17   0.0000       0.784002        21.3338 
  18   0.0000       0.784002        21.3338 
  19   0.0000       0.784002        21.3338 
  20   0.0000       0.784002        21.3338 
  21   0.0000       1.064395        28.9637 
  22   0.0000       1.202201        32.7136 
  23   0.0000       1.202201        32.7136 
  24   0.0000       1.202201        32.7136 
  25   0.0000       1.202201        32.7136 
  26   0.0000       1.202201        32.7136 
  27   0.0000       1.202201        32.7136 
  28   0.0000       1.202201        32.7136 
  29   0.0000       1.202201        32.7136 
  30   0.0000       1.202201        32.7136 
  31   0.0000       1.639491        44.6128 
  32   0.0000       1.639491        44.6128 
  33   0.0000       1.639491        44.6128 
  34   0.0000       1.658916        45.1414 
  35   0.0000       1.658916        45.1414 
  36   0.0000       1.658916        45.1414 
  37   0.0000       1.658916        45.1414 
  38   0.0000       1.658916        45.1414 
  39   0.0000       3.318487        90.3006 
  40   0.0000       4.305743       117.1652 
  41   0.0000       4.305743       117.1652 
  42   0.0000       4.305743       117.1652 
  43   0.0000       4.879667       132.7825 
  44   0.0000       4.879667       132.7825 
  45   0.0000       4.879667       132.7825 
  46   0.0000       4.879667       132.7825 
  47   0.0000       4.879667       132.7825 
  48   0.0000       5.950854       161.9310 
  49   0.0000       5.950854       161.9310 
  50   0.0000       5.950854       161.9310 
  51   0.0000       5.950854       161.9310 
  52   0.0000       5.950854       161.9310 
  53   0.0000       5.950854       161.9310 
  54   0.0000       5.950854       161.9310 
  55   0.0000       9.540014       259.5970 
  56   0.0000      10.746154       292.4177 
  57   0.0000      10.746154       292.4177 
  58   0.0000      10.746154       292.4177 
  59   0.0000      14.896444       405.3528 
  60   0.0000      14.896444       405.3528 
  61   0.0000      14.896444       405.3528 
  62   0.0000      14.896444       405.3528 
  63   0.0000      14.896444       405.3528 
  64   0.0000      20.056068       545.7534 
  65   0.0000      20.056068       545.7534 
  66   0.0000      20.056068       545.7534 
  67   0.0000      20.056068       545.7534 
  68   0.0000      20.056068       545.7534 
  69   0.0000      20.056068       545.7534 
  70   0.0000      20.056068       545.7534 
  71   0.0000      24.236268       659.5024 
  72   0.0000      24.236268       659.5024 
  73   0.0000      24.236268       659.5024 
  74   0.0000      24.236268       659.5024 
  75   0.0000      24.236268       659.5024 
  76   0.0000      24.236268       659.5024 
  77   0.0000      24.236268       659.5024 
  78   0.0000      24.236268       659.5024 
  79   0.0000      24.236268       659.5024 
  80   0.0000      27.365863       744.6630 
  81   0.0000      29.985799       815.9551 
  82   0.0000      29.985799       815.9551 
  83   0.0000      29.985799       815.9551 
  84   0.0000     105.796407      2878.8666 
  85   0.0000     118.388272      3221.5087 
  86   0.0000     118.388272      3221.5087 
  87   0.0000     118.388272      3221.5087 

                    ********************************
                    * MULLIKEN POPULATION ANALYSIS *
                    ********************************

--------------------------------------------
MULLIKEN ATOMIC CHARGES AND SPIN POPULATIONS
--------------------------------------------
   0 He:   -0.000000   -0.000000
Sum of atomic charges         :   -0.0000000
Sum of atomic spin populations:   -0.0000000

-----------------------------------------------------
MULLIKEN REDUCED ORBITAL CHARGES AND SPIN POPULATIONS
-----------------------------------------------------
CHARGE
  0 Hes       :     2.000000  s :     2.000000
      pz      :     0.000000  p :     0.000000
      px      :     0.000000
      py      :     0.000000
      dz2     :     0.000000  d :     0.000000
      dxz     :     0.000000
      dyz     :     0.000000
      dx2y2   :     0.000000
      dxy     :     0.000000
      f0      :     0.000000  f :     0.000000
      f+1     :     0.000000
      f-1     :     0.000000
      f+2     :     0.000000
      f-2     :     0.000000
      f+3     :     0.000000
      f-3     :     0.000000
      g0      :     0.000000  g :     0.000000
      g+1     :     0.000000
      g-1     :     0.000000
      g+2     :     0.000000
      g-2     :     0.000000
      g+3     :     0.000000
      g-3     :     0.000000
      g+4     :     0.000000
      g-4     :     0.000000

SPIN
  0 Hes       :    -0.000000  s :    -0.000000
      pz      :     0.000000  p :     0.000000
      px      :    -0.000000
      py      :     0.000000
      dz2     :    -0.000000  d :     0.000000
      dxz     :     0.000000
      dyz     :     0.000000
      dx2y2   :    -0.000000
      dxy     :    -0.000000
      f0      :    -0.000000  f :    -0.000000
      f+1     :    -0.000000
      f-1     :    -0.000000
      f+2     :    -0.000000
      f-2     :     0.000000
      f+3     :    -0.000000
      f-3     :    -0.000000
      g0      :    -0.000000  g :    -0.000000
      g+1     :     0.000000
      g-1     :     0.000000
      g+2     :    -0.000000
      g-2     :    -0.000000
      g+3     :    -0.000000
      g-3     :    -0.000000
      g+4     :     0.000000
      g-4     :    -0.000000


                     *******************************
                     * LOEWDIN POPULATION ANALYSIS *
                     *******************************

-------------------------------------------
LOEWDIN ATOMIC CHARGES AND SPIN POPULATIONS
-------------------------------------------
   0 He:   -0.000000   -0.000000

----------------------------------------------------
LOEWDIN REDUCED ORBITAL CHARGES AND SPIN POPULATIONS
----------------------------------------------------
CHARGE
  0 Hes       :     2.000000  s :     2.000000
      pz      :     0.000000  p :     0.000000
      px      :     0.000000
      py      :     0.000000
      dz2     :     0.000000  d :     0.000000
      dxz     :     0.000000
      dyz     :     0.000000
      dx2y2   :     0.000000
      dxy     :     0.000000
      f0      :     0.000000  f :     0.000000
      f+1     :     0.000000
      f-1     :     0.000000
      f+2     :     0.000000
      f-2     :     0.000000
      f+3     :     0.000000
      f-3     :     0.000000
      g0      :     0.000000  g :     0.000000
      g+1     :     0.000000
      g-1     :     0.000000
      g+2     :     0.000000
      g-2     :     0.000000
      g+3     :     0.000000
      g-3     :     0.000000
      g+4     :     0.000000
      g-4     :     0.000000

SPIN
  0 Hes       :    -0.000000  s :    -0.000000
      pz      :     0.000000  p :     0.000000
      px      :    -0.000000
      py      :     0.000000
      dz2     :    -0.000000  d :     0.000000
      dxz     :     0.000000
      dyz     :     0.000000
      dx2y2   :    -0.000000
      dxy     :    -0.000000
      f0      :    -0.000000  f :    -0.000000
      f+1     :    -0.000000
      f-1     :    -0.000000
      f+2     :    -0.000000
      f-2     :     0.000000
      f+3     :    -0.000000
      f-3     :    -0.000000
      g0      :    -0.000000  g :    -0.000000
      g+1     :     0.000000
      g-1     :     0.000000
      g+2     :    -0.000000
      g-2     :    -0.000000
      g+3     :    -0.000000
      g-3     :    -0.000000
      g+4     :     0.000000
      g-4     :    -0.000000


                      *****************************
                      * MAYER POPULATION ANALYSIS *
                      *****************************

  NA   - Mulliken gross atomic population
  ZA   - Total nuclear charge
  QA   - Mulliken gross atomic charge
  VA   - Mayer's total valence
  BVA  - Mayer's bonded valence
  FA   - Mayer's free valence

  ATOM       NA         ZA         QA         VA         BVA        FA
  0 He     2.0000     2.0000    -0.0000    -0.0000     0.0000    -0.0000

  Mayer bond orders larger than 0.1


-------
TIMINGS
-------

Total SCF time: 0 days 0 hours 0 min 2 sec 

Total time                  ....       2.345 sec
Sum of individual times     ....       1.999 sec  ( 85.2%)

Fock matrix formation       ....       1.716 sec  ( 73.2%)
  XC integration            ....       0.490 sec  ( 28.6% of F)
    Basis function eval.    ....       0.023 sec  (  4.6% of XC)
    Density eval.           ....       0.037 sec  (  7.6% of XC)
    XC-Functional eval.     ....       0.031 sec  (  6.2% of XC)
    XC-Potential eval.      ....       0.105 sec  ( 21.4% of XC)
Diagonalization             ....       0.027 sec  (  1.1%)
Density matrix formation    ....       0.001 sec  (  0.0%)
Population analysis         ....       0.048 sec  (  2.0%)
Initial guess               ....       0.135 sec  (  5.8%)
Orbital Transformation      ....       0.000 sec  (  0.0%)
Orbital Orthonormalization  ....       0.000 sec  (  0.0%)
DIIS solution               ....       0.016 sec  (  0.7%)
Grid generation             ....       0.056 sec  (  2.4%)

-------------------------   --------------------
FINAL SINGLE POINT ENERGY        -2.892933600766
-------------------------   --------------------


                            ***************************************
                            *     ORCA property calculations      *
                            ***************************************

                                    ---------------------
                                    Active property flags
                                    ---------------------
   (+) Dipole Moment
   (+) Polarizability


------------------------------------------------------------------------------
                       ORCA ELECTRIC PROPERTIES CALCULATION
------------------------------------------------------------------------------

Dipole Moment Calculation                       ... on
Quadrupole Moment Calculation                   ... off
Polarizability Calculation                      ... Analytic (CP-SCF)
GBWName                                         ... he_pbe.gbw
Electron density file                           ... he_pbe.scfp.tmp
The origin for moment calculation is the CENTER OF MASS  = ( 0.000000,  0.000000  0.000000)

-------------
DIPOLE MOMENT
-------------
                                X             Y             Z
Electronic contribution:      0.00000      -0.00000       0.00000
Nuclear contribution   :      0.00000       0.00000       0.00000
                        -----------------------------------------
Total Dipole Moment    :      0.00000      -0.00000       0.00000
                        -----------------------------------------
Magnitude (a.u.)       :      0.00000
Magnitude (Debye)      :      0.00000



--------------------
Rotational spectrum 
--------------------
 
Rotational constants in cm-1:     0.000000     0.000000     0.000000 
Rotational constants in MHz :     0.000000     0.000000     0.000000 

 Dipole components along the rotational axes: 
x,y,z [a.u.] :     0.000000    -0.000000     0.000000 
x,y,z [Debye]:     0.000000    -0.000000     0.000000 

 
Transforming and storing MO dipole integrals   ... done

                ... starting polarizability calculation

Opening the Dipole integral file               ... (he_pbe.dmo.tmp) done
Reading Dipole-MO integrals                    ... done
Solving CP-SCF equations                       ... 

           ************************************************************
           *        Program running with 4 parallel MPI-processes     *
           *              working on a common directory               *
           ************************************************************

------------------------------------------------------------------------------
                           ORCA CP-SCF CALCULATION
------------------------------------------------------------------------------

Input orbitals are from        ... he_pbe.gbw
Input Perturbation             ... he_pbe.cpv.tmp
Wavefunction output            ... he_pbe.cpu.tmp
Perturbation mode              ... Real perturbation (singlet)
Solver                         ... POPLE
Max. number of iterations      ... 200
Convergence tolerance          ... 1.000e-06
Integral handling              ... Direct
Number of perturbations        ... 3
Number of operators            ... 2
Orbital ranges used for CP-SCF:
 Operator 0:  Orbitals   0...  0  to   1... 87
 Operator 1:  Orbitals   0...  0  to   1... 87
DFT calculation                         ... on
Exchange functional (SCF)               ... PBE
Exchange functional (CP-SCF)            ... PBE
   PBE kappa parameter  XKappa (SCF)    ...  0.804000
   PBE kappa parameter  XKappa (CP-SCF) ...  0.804000
   PBE mue parameter   XMuePBE (SCF)    ...  0.219520
   PBE mue parameter   XMuePBE (CP-SCF) ...  0.219520
Correlation functional (SCF)            ... PBE
Correlation functional (CP-SCF)         ... PBE
   PBE beta parameter CBetaPBE (SCF)    ...  0.066725
   PBE beta parameter CBetaPBE (CP-SCF) ...  0.066725
 LDA part of GGA corr.  LDAOpt (SCF)    ... PW91-LDA
 LDA part of GGA corr.  LDAOpt (CP-SCF) ... PW91-LDA
Variables per vector in CP-SCF ... 174
Number of vectors sought       ... 3
Recalculating density on grid  ... done
Calculating the xc-kernel      ... done
     CP-SCF ITERATION   0: 
     CP-SCF ITERATION   1:      0.000000355901
done
Reading CP-SCF coefficients                    ... done
Doing the polarizability tensor   ... done
Cleaning up                                    ... done

-------------------------
THE POLARIZABILITY TENSOR
-------------------------

The raw cartesian tensor (atomic units):
    1.58087     -0.00000      0.00000  
   -0.00000      1.58087     -0.00000  
    0.00000     -0.00000      1.58087  
diagonalized tensor: 
    1.58087      1.58087      1.58087  

   -0.51882      0.80998      0.27343  
    0.66046      0.58285     -0.47336  
    0.54278      0.06500      0.83735  

Isotropic polarizability :   1.58087


Timings for individual modules:

Sum of individual times         ...        5.001 sec (=   0.083 min)
GTO integral calculation        ...        0.659 sec (=   0.011 min)  13.2 %
SCF iterations                  ...        2.694 sec (=   0.045 min)  53.9 %
Solution of CP-SCF eqns.        ...        1.647 sec (=   0.027 min)  32.9 %
                             ****ORCA TERMINATED NORMALLY****
TOTAL RUN TIME: 0 days 0 hours 0 minutes 5 seconds 608 msec
