
                                 *****************
                                 * O   R   C   A *
                                 *****************

           --- An Ab Initio, DFT and Semiempirical electronic structure package ---

                  #######################################################
                  #                        -***-                        #
                  #          Department of theory and spectroscopy      #
                  #               Directorship: Frank Neese             #
                  #        Max Planck Institute fuer Kohlenforschung    #
                  #                Kaiser Wilhelm Platz 1               #
                  #                 D-45470 Muelheim/Ruhr               #
                  #                      Germany                        #
                  #                                                     #
                  #                  All rights reserved                #
                  #                        -***-                        #
                  #######################################################


                         Program Version 4.1.2  - RELEASE  -


 With contributions from (in alphabetic order):
   Daniel Aravena         : Magnetic Properties
   Michael Atanasov       : Ab Initio Ligand Field Theory
   Alexander A. Auer      : GIAO ZORA
   Ute Becker             : Parallelization
   Giovanni Bistoni       : ED, Open-shell LED
   Martin Brehm           : Molecular dynamics
   Dmytro Bykov           : SCF Hessian
   Vijay G. Chilkuri      : MRCI spin determinant printing
   Dipayan Datta          : RHF DLPNO-CCSD density
   Achintya Kumar Dutta   : EOM-CC, STEOM-CC
   Dmitry Ganyushin       : Spin-Orbit,Spin-Spin,Magnetic field MRCI
   Miquel Garcia          : C-PCM Hessian
   Yang Guo               : DLPNO-NEVPT2, CIM, IAO-localization
   Andreas Hansen         : Spin unrestricted coupled pair/coupled cluster methods
   Benjamin Helmich-Paris : CASSCF linear response (MC-RPA)
   Lee Huntington         : MR-EOM, pCC
   Robert Izsak           : Overlap fitted RIJCOSX, COSX-SCS-MP3, EOM
   Christian Kollmar      : KDIIS, OOCD, Brueckner-CCSD(T), CCSD density
   Simone Kossmann        : Meta GGA functionals, TD-DFT gradient, OOMP2, MP2 Hessian
   Martin Krupicka        : AUTO-CI
   Lucas Lang             : DCDCAS
   Dagmar Lenk            : GEPOL surface, SMD
   Dimitrios Liakos       : Extrapolation schemes; parallel MDCI
   Dimitrios Manganas     : ROCIS; embedding schemes
   Dimitrios Pantazis     : SARC Basis sets
   Taras Petrenko         : DFT Hessian,TD-DFT gradient, ASA, ECA, R-Raman, ABS, FL, XAS/XES, NRVS
   Peter Pinski           : DLPNO-MP2, DLPNO-MP2 Gradient
   Christoph Reimann      : Effective Core Potentials
   Marius Retegan         : Local ZFS, SOC
   Christoph Riplinger    : Optimizer, TS searches, QM/MM, DLPNO-CCSD(T), (RO)-DLPNO pert. Triples
   Tobias Risthaus        : Range-separated hybrids, TD-DFT gradient, RPA, STAB
   Michael Roemelt        : Restricted open shell CIS
   Masaaki Saitow         : Open-shell DLPNO
   Barbara Sandhoefer     : DKH picture change effects
   Avijit Sen             : IP-ROCIS
   Kantharuban Sivalingam : CASSCF convergence, NEVPT2, FIC-MRCI
   Bernardo de Souza      : ESD, SOC TD-DFT
   Georgi Stoychev        : AutoAux, RI-MP2 NMR
   Willem Van den Heuvel  : Paramagnetic NMR
   Boris Wezisla          : Elementary symmetry handling
   Frank Wennmohs         : Technical directorship


 We gratefully acknowledge several colleagues who have allowed us to
 interface, adapt or use parts of their codes:
   Stefan Grimme, W. Hujo, H. Kruse,             : VdW corrections, initial TS optimization,
                  C. Bannwarth                     DFT functionals, gCP, sTDA/sTD-DF
   Ed Valeev                                     : LibInt (2-el integral package), F12 methods
   Garnet Chan, S. Sharma, J. Yang, R. Olivares  : DMRG
   Ulf Ekstrom                                   : XCFun DFT Library
   Mihaly Kallay                                 : mrcc  (arbitrary order and MRCC methods)
   Andreas Klamt, Michael Diedenhofen            : otool_cosmo (COSMO solvation model)
   Jiri Pittner, Ondrej Demel                    : Mk-CCSD
   Frank Weinhold                                : gennbo (NPA and NBO analysis)
   Christopher J. Cramer and Donald G. Truhlar   : smd solvation model
   Lars Goerigk                                  : TD-DFT with DH, B97 family of functionals
   V. Asgeirsson, H. Jonsson                     : NEB implementation
   FAccTs GmbH                                   : IRC, NEB, NEB-TS, Multilevel


 Your calculation uses the libint2 library for the computation of 2-el integrals
 For citations please refer to: http://libint.valeyev.net

 This ORCA versions uses:
   CBLAS   interface :  Fast vector & matrix operations
   LAPACKE interface :  Fast linear algebra routines
   SCALAPACK package :  Parallel linear algebra routines


----- Orbital basis set information -----
Your calculation utilizes the basis: aug-pc-4
   H, C-F              : F. Jensen, J. Chem. Phys. 115, 9113 (2001).
                         F. Jensen, J. Chem. Phys. 116, 7372 (2002).
                         F. Jensen, J. Chem. Phys. 117, 9234 (2002).
   Si-Cl               : F. Jensen, T. Helgaker, J. Chem. Phys. 121, 3463 (2004).
   He-B, Ne-Mg, Al, Ar : F. Jensen, J. Phys. Chem. A 111, 11198 (2007).
   K, Ca, Ga-Kr        : F. Jensen, J. Chem. Phys. 136, 094110 (2012).
   Sc-Zn               : F. Jensen, J. Chem. Phys. 138, 014107 (2013).

================================================================================
                                        WARNINGS
                       Please study these warnings very carefully!
================================================================================


INFO   : the flag for use of LIBINT has been found!

================================================================================
                                       INPUT FILE
================================================================================
NAME = hf_pbe.inp
|  1> !uks pbe nori aug-pc-4 grid5 nofinalgrid verytightscf
|  2> 
|  3> %maxcore 1500
|  4> 
|  5> %pal nprocs 4 end
|  6> 
|  7> %scf
|  8> 	maxiter 200
|  9> end
| 10> %elprop
| 11> 	dipole true
| 12> 	 polar 1
| 13> 	 maxiter 200
| 14> end
| 15> 
| 16> * xyz 0 1
| 17> F 0.0000 0.0000 0.0000
| 18> H 0.0000 0.0000 0.9168
| 19> *
| 20> 
| 21>                          ****END OF INPUT****
================================================================================

                       ****************************
                       * Single Point Calculation *
                       ****************************

---------------------------------
CARTESIAN COORDINATES (ANGSTROEM)
---------------------------------
  F      0.000000    0.000000    0.000000
  H      0.000000    0.000000    0.916800

----------------------------
CARTESIAN COORDINATES (A.U.)
----------------------------
  NO LB      ZA    FRAG     MASS         X           Y           Z
   0 F     9.0000    0    18.998    0.000000    0.000000    0.000000
   1 H     1.0000    0     1.008    0.000000    0.000000    1.732501

--------------------------------
INTERNAL COORDINATES (ANGSTROEM)
--------------------------------
 F      0   0   0     0.000000000000     0.00000000     0.00000000
 H      1   0   0     0.916800000000     0.00000000     0.00000000

---------------------------
INTERNAL COORDINATES (A.U.)
---------------------------
 F      0   0   0     0.000000000000     0.00000000     0.00000000
 H      1   0   0     1.732500919579     0.00000000     0.00000000

---------------------
BASIS SET INFORMATION
---------------------
There are 2 groups of distinct atoms

 Group   1 Type F   : 27s12p7d4f3g2h contracted to 9s8p7d4f3g2h pattern {1191111111/51111111/1111111/1111/111/11}
 Group   2 Type H   : 12s7p4d3f2g contracted to 8s7p4d3f2g pattern {51111111/1111111/1111/111/11}

Atom   0F    basis set group =>   1
Atom   1H    basis set group =>   2


           ************************************************************
           *        Program running with 4 parallel MPI-processes     *
           *              working on a common directory               *
           ************************************************************
------------------------------------------------------------------------------
                           ORCA GTO INTEGRAL CALCULATION
------------------------------------------------------------------------------

                         BASIS SET STATISTICS AND STARTUP INFO

 # of primitive gaussian shells          ...   83
 # of primitive gaussian functions       ...  267
 # of contracted shells                  ...   57
 # of contracted basis functions         ...  233
 Highest angular momentum                ...    5
 Maximum contraction depth               ...   11
 Integral package used                   ... LIBINT
 Integral threshhold            Thresh   ...  1.000e-12
 Primitive cut-off              TCut     ...  1.000e-14


------------------------------ INTEGRAL EVALUATION ----------------------------


 * One electron integrals 
 Pre-screening matrix                    ... done
 Shell pair data                         ... done (   0.000 sec)



           ************************************************************
           *        Program running with 4 parallel MPI-processes     *
           *              working on a common directory               *
           ************************************************************
-------------------------------------------------------------------------------
                                 ORCA SCF
-------------------------------------------------------------------------------

------------
SCF SETTINGS
------------
Hamiltonian:
 Density Functional     Method          .... DFT(GTOs)
 Exchange Functional    Exchange        .... PBE
   PBE kappa parameter   XKappa         ....  0.804000
   PBE mue parameter    XMuePBE         ....  0.219520
 Correlation Functional Correlation     .... PBE
   PBE beta parameter  CBetaPBE         ....  0.066725
 LDA part of GGA corr.  LDAOpt          .... PW91-LDA
 Gradients option       PostSCFGGA      .... off
   Density functional embedding theory  .... OFF
   NL short-range parameter             ....  6.400000


General Settings:
 Integral files         IntName         .... hf_pbe
 Hartree-Fock type      HFTyp           .... UHF
 Total Charge           Charge          ....    0
 Multiplicity           Mult            ....    1
 Number of Electrons    NEL             ....   10
 Basis Dimension        Dim             ....  233
 Nuclear Repulsion      ENuc            ....      5.1948024375 Eh

Convergence Acceleration:
 DIIS                   CNVDIIS         .... on
   Start iteration      DIISMaxIt       ....    12
   Startup error        DIISStart       ....  0.200000
   # of expansion vecs  DIISMaxEq       ....     5
   Bias factor          DIISBfac        ....   1.050
   Max. coefficient     DIISMaxC        ....  10.000
 Newton-Raphson         CNVNR           .... off
 SOSCF                  CNVSOSCF        .... off
 Level Shifting         CNVShift        .... on
   Level shift para.    LevelShift      ....    0.2500
   Turn off err/grad.   ShiftErr        ....    0.0010
 Zerner damping         CNVZerner       .... off
 Static damping         CNVDamp         .... on
   Fraction old density DampFac         ....    0.7000
   Max. Damping (<1)    DampMax         ....    0.9800
   Min. Damping (>=0)   DampMin         ....    0.0000
   Turn off err/grad.   DampErr         ....    0.1000
 Fernandez-Rico         CNVRico         .... off

SCF Procedure:
 Maximum # iterations   MaxIter         ....   200
 SCF integral mode      SCFMode         .... Direct
   Integral package                     .... LIBINT
 Reset frequency        DirectResetFreq ....    20
 Integral Threshold     Thresh          ....  1.000e-12 Eh
 Primitive CutOff       TCut            ....  1.000e-14 Eh

Convergence Tolerance:
 Convergence Check Mode ConvCheckMode   .... Total+1el-Energy
 Convergence forced     ConvForced      .... 0
 Energy Change          TolE            ....  1.000e-09 Eh
 1-El. energy change                    ....  1.000e-06 Eh
 DIIS Error             TolErr          ....  1.000e-08


Diagonalization of the overlap matrix:
Smallest eigenvalue                        ... 1.120e-05
Time for diagonalization                   ...    0.009 sec
Threshold for overlap eigenvalues          ... 1.000e-08
Number of eigenvalues below threshold      ... 0
Time for construction of square roots      ...    0.020 sec
Total time needed                          ...    0.029 sec

-------------------
DFT GRID GENERATION
-------------------

General Integration Accuracy     IntAcc      ...  5.010
Radial Grid Type                 RadialGrid  ... Gauss-Chebyshev
Angular Grid (max. acc.)         AngularGrid ... Lebedev-434
Angular grid pruning method      GridPruning ... 3 (G Style)
Weight generation scheme         WeightScheme... Becke
Basis function cutoff            BFCut       ...    1.0000e-12
Integration weight cutoff        WCut        ...    1.0000e-14
Grids for H and He will be reduced by one unit

# of grid points (after initial pruning)     ...  17510 (   0.0 sec)
# of grid points (after weights+screening)   ...  17457 (   0.0 sec)
nearest neighbour list constructed           ...    0.0 sec
Grid point re-assignment to atoms done       ...    0.0 sec
Grid point division into batches done        ...    0.1 sec
Reduced shell lists constructed in    0.2 sec

Total number of grid points                  ...    17457
Total number of batches                      ...      273
Average number of points per batch           ...       63
Average number of grid points per atom       ...     8728
Average number of shells per batch           ...    35.27 (61.88%)
Average number of basis functions per batch  ...   151.30 (64.94%)
Average number of large shells per batch     ...    30.67 (86.96%)
Average number of large basis fcns per batch ...   132.56 (87.61%)
Maximum spatial batch extension              ...  16.29, 16.29, 15.15 au
Average spatial batch extension              ...   1.48,  1.47,  1.21 au

Time for grid setup =    0.189 sec

------------------------------
INITIAL GUESS: MODEL POTENTIAL
------------------------------
Loading Hartree-Fock densities                     ... done
Calculating cut-offs                               ... done
Setting up the integral package                    ... done
Initializing the effective Hamiltonian             ... done
Starting the Coulomb interaction                   ... done (   0.0 sec)
Reading the grid                                   ... done
Mapping shells                                     ... done
Starting the XC term evaluation                    ... done (   0.1 sec)
  promolecular density results
     # of electrons  =      9.999511817
     EX              =    -10.277596686
     EC              =     -0.330556009
     EX+EC           =    -10.608152695
Transforming the Hamiltonian                       ... done (   0.0 sec)
Diagonalizing the Hamiltonian                      ... done (   0.0 sec)
Back transforming the eigenvectors                 ... done (   0.0 sec)
Now organizing SCF variables                       ... done
                      ------------------
                      INITIAL GUESS DONE (   0.4 sec)
                      ------------------
--------------
SCF ITERATIONS
--------------
ITER       Energy         Delta-E        Max-DP      RMS-DP      [F,P]     Damp
               ***  Starting incremental Fock matrix formation  ***
  0   -100.3685560530   0.000000000000 0.00782052  0.00014954  0.2067118 0.7000
  1   -100.3860090700  -0.017453016999 0.00455034  0.00008314  0.0713405 0.7000
                               ***Turning on DIIS***
  2   -100.3906414653  -0.004632395369 0.00479480  0.00008565  0.0134662 0.0000
  3   -100.4014625964  -0.010821131034 0.00247741  0.00004366  0.0344123 0.0000
  4   -100.4024706232  -0.001008026828 0.00053458  0.00001125  0.0051846 0.0000
  5   -100.4025072351  -0.000036611943 0.00018109  0.00000288  0.0004920 0.0000
  6   -100.4025086228  -0.000001387679 0.00003704  0.00000060  0.0001517 0.0000
  7   -100.4025086393  -0.000000016440 0.00000230  0.00000004  0.0000176 0.0000
  8   -100.4025086394  -0.000000000162 0.00000014  0.00000000  0.0000007 0.0000
  9   -100.4025086394  -0.000000000000 0.00000008  0.00000000  0.0000008 0.0000
                 **** Energy Check signals convergence ****

               *****************************************************
               *                     SUCCESS                       *
               *           SCF CONVERGED AFTER  10 CYCLES          *
               *****************************************************


----------------
TOTAL SCF ENERGY
----------------

Total Energy       :         -100.40250864 Eh           -2732.09116 eV

Components:
Nuclear Repulsion  :            5.19480244 Eh             141.35776 eV
Electronic Energy  :         -105.59731108 Eh           -2873.44892 eV
One Electron Energy:         -150.42798452 Eh           -4093.35356 eV
Two Electron Energy:           44.83067345 Eh            1219.90464 eV

Virial components:
Potential Energy   :         -200.54338289 Eh           -5457.06288 eV
Kinetic Energy     :          100.14087425 Eh            2724.97172 eV
Virial Ratio       :            2.00261266


DFT components:
N(Alpha)           :        5.000000248814 electrons
N(Beta)            :        5.000000248814 electrons
N(Total)           :       10.000000497628 electrons
E(X)               :      -10.384309820321 Eh       
E(C)               :       -0.334816943835 Eh       
E(XC)              :      -10.719126764156 Eh       
DFET-embed. en.    :        0.000000000000 Eh       

---------------
SCF CONVERGENCE
---------------

  Last Energy change         ...   -7.2475e-13  Tolerance :   1.0000e-09
  Last MAX-Density change    ...    8.7543e-08  Tolerance :   1.0000e-08
  Last RMS-Density change    ...    1.3379e-09  Tolerance :   1.0000e-09
  Last DIIS Error            ...    6.7962e-08  Tolerance :   1.0000e-08

             **** THE GBW FILE WAS UPDATED (hf_pbe.gbw) ****
             **** DENSITY FILE WAS UPDATED (hf_pbe.scfp.tmp) ****
             **** ENERGY FILE WAS UPDATED (hf_pbe.en.tmp) ****
----------------------
UHF SPIN CONTAMINATION
----------------------

Warning: in a DFT calculation there is little theoretical justification to 
         calculate <S**2> as in Hartree-Fock theory. We will do it anyways
         but you should keep in mind that the values have only limited relevance

Expectation value of <S**2>     :     0.000000
Ideal value S*(S+1) for S=0.0   :     0.000000
Deviation                       :     0.000000

----------------
ORBITAL ENERGIES
----------------
                 SPIN UP ORBITALS
  NO   OCC          E(Eh)            E(eV) 
   0   1.0000     -24.252751      -659.9509 
   1   1.0000      -1.104793       -30.0629 
   2   1.0000      -0.495835       -13.4924 
   3   1.0000      -0.354688        -9.6516 
   4   1.0000      -0.354688        -9.6516 
   5   0.0000      -0.035363        -0.9623 
   6   0.0000       0.035863         0.9759 
   7   0.0000       0.042007         1.1431 
   8   0.0000       0.042007         1.1431 
   9   0.0000       0.043001         1.1701 
  10   0.0000       0.095273         2.5925 
  11   0.0000       0.102412         2.7868 
  12   0.0000       0.102412         2.7868 
  13   0.0000       0.141524         3.8511 
  14   0.0000       0.141524         3.8511 
  15   0.0000       0.152429         4.1478 
  16   0.0000       0.183736         4.9997 
  17   0.0000       0.183736         4.9997 
  18   0.0000       0.185435         5.0459 
  19   0.0000       0.240172         6.5354 
  20   0.0000       0.265014         7.2114 
  21   0.0000       0.270079         7.3492 
  22   0.0000       0.270079         7.3492 
  23   0.0000       0.288308         7.8453 
  24   0.0000       0.288308         7.8453 
  25   0.0000       0.289024         7.8647 
  26   0.0000       0.289024         7.8647 
  27   0.0000       0.289158         7.8684 
  28   0.0000       0.289158         7.8684 
  29   0.0000       0.367596        10.0028 
  30   0.0000       0.381911        10.3923 
  31   0.0000       0.381911        10.3923 
  32   0.0000       0.383386        10.4325 
  33   0.0000       0.383386        10.4325 
  34   0.0000       0.385087        10.4788 
  35   0.0000       0.477617        12.9966 
  36   0.0000       0.477618        12.9966 
  37   0.0000       0.485880        13.2215 
  38   0.0000       0.485880        13.2215 
  39   0.0000       0.492105        13.3909 
  40   0.0000       0.492105        13.3909 
  41   0.0000       0.507086        13.7985 
  42   0.0000       0.537310        14.6209 
  43   0.0000       0.537310        14.6209 
  44   0.0000       0.548094        14.9144 
  45   0.0000       0.588660        16.0182 
  46   0.0000       0.588660        16.0182 
  47   0.0000       0.631922        17.1955 
  48   0.0000       0.649803        17.6820 
  49   0.0000       0.649803        17.6820 
  50   0.0000       0.653482        17.7822 
  51   0.0000       0.653482        17.7822 
  52   0.0000       0.712038        19.3755 
  53   0.0000       0.712038        19.3755 
  54   0.0000       0.722179        19.6515 
  55   0.0000       0.816051        22.2059 
  56   0.0000       0.824724        22.4419 
  57   0.0000       0.824724        22.4419 
  58   0.0000       0.845928        23.0189 
  59   0.0000       0.845928        23.0189 
  60   0.0000       0.895638        24.3715 
  61   0.0000       0.895638        24.3715 
  62   0.0000       0.908893        24.7322 
  63   0.0000       0.908893        24.7322 
  64   0.0000       0.912291        24.8247 
  65   0.0000       0.936071        25.4718 
  66   0.0000       0.936071        25.4718 
  67   0.0000       0.948494        25.8098 
  68   0.0000       0.948494        25.8098 
  69   0.0000       1.047223        28.4964 
  70   0.0000       1.155455        31.4415 
  71   0.0000       1.155456        31.4415 
  72   0.0000       1.176893        32.0249 
  73   0.0000       1.176893        32.0249 
  74   0.0000       1.189826        32.3768 
  75   0.0000       1.241961        33.7955 
  76   0.0000       1.241963        33.7955 
  77   0.0000       1.248167        33.9644 
  78   0.0000       1.248167        33.9644 
  79   0.0000       1.258873        34.2557 
  80   0.0000       1.267589        34.4928 
  81   0.0000       1.267590        34.4929 
  82   0.0000       1.269517        34.5453 
  83   0.0000       1.269517        34.5453 
  84   0.0000       1.441447        39.2238 
  85   0.0000       1.441447        39.2238 
  86   0.0000       1.443388        39.2766 
  87   0.0000       1.443388        39.2766 
  88   0.0000       1.562756        42.5247 
  89   0.0000       1.766396        48.0661 
  90   0.0000       1.808589        49.2142 
  91   0.0000       1.808589        49.2142 
  92   0.0000       1.950322        53.0709 
  93   0.0000       2.136478        58.1365 
  94   0.0000       2.178489        59.2797 
  95   0.0000       2.178489        59.2797 
  96   0.0000       2.184071        59.4316 
  97   0.0000       2.184071        59.4316 
  98   0.0000       2.318509        63.0898 
  99   0.0000       2.318509        63.0898 
 100   0.0000       2.421737        65.8988 
 101   0.0000       2.596120        70.6440 
 102   0.0000       2.596120        70.6440 
 103   0.0000       2.715686        73.8976 
 104   0.0000       2.715690        73.8977 
 105   0.0000       2.996062        81.5270 
 106   0.0000       3.129802        85.1662 
 107   0.0000       3.129802        85.1662 
 108   0.0000       3.218879        87.5902 
 109   0.0000       3.218879        87.5902 
 110   0.0000       3.350277        91.1657 
 111   0.0000       3.350277        91.1657 
 112   0.0000       3.357017        91.3491 
 113   0.0000       3.655381        99.4680 
 114   0.0000       3.839923       104.4896 
 115   0.0000       3.839923       104.4896 
 116   0.0000       3.911778       106.4449 
 117   0.0000       3.911778       106.4449 
 118   0.0000       4.095192       111.4358 
 119   0.0000       4.457257       121.2881 
 120   0.0000       4.457257       121.2881 
 121   0.0000       4.725306       128.5821 
 122   0.0000       5.172110       140.7403 
 123   0.0000       5.172110       140.7403 
 124   0.0000       5.184620       141.0807 
 125   0.0000       5.184620       141.0807 
 126   0.0000       5.403019       147.0236 
 127   0.0000       5.403019       147.0236 
 128   0.0000       5.557371       151.2237 
 129   0.0000       5.617384       152.8568 
 130   0.0000       6.033911       164.1911 
 131   0.0000       6.113019       166.3437 
 132   0.0000       6.113019       166.3437 
 133   0.0000       6.130595       166.8220 
 134   0.0000       6.130595       166.8220 
 135   0.0000       6.426694       174.8792 
 136   0.0000       6.426695       174.8793 
 137   0.0000       6.865044       186.8073 
 138   0.0000       6.967690       189.6005 
 139   0.0000       6.967690       189.6005 
 140   0.0000       7.128574       193.9784 
 141   0.0000       7.128582       193.9786 
 142   0.0000       7.393271       201.1811 
 143   0.0000       7.393271       201.1811 
 144   0.0000       7.637016       207.8138 
 145   0.0000       8.191478       222.9015 
 146   0.0000       8.191482       222.9015 
 147   0.0000       8.292447       225.6490 
 148   0.0000       8.292447       225.6490 
 149   0.0000       8.575254       233.3445 
 150   0.0000       8.575254       233.3445 
 151   0.0000       8.590876       233.7696 
 152   0.0000       9.013660       245.2742 
 153   0.0000       9.013661       245.2742 
 154   0.0000      10.330190       281.0988 
 155   0.0000      10.673472       290.4399 
 156   0.0000      10.673472       290.4399 
 157   0.0000      11.389280       309.9181 
 158   0.0000      11.577762       315.0469 
 159   0.0000      11.972436       325.7865 
 160   0.0000      11.972436       325.7865 
 161   0.0000      12.006938       326.7254 
 162   0.0000      12.006940       326.7254 
 163   0.0000      12.249528       333.3266 
 164   0.0000      12.249529       333.3266 
 165   0.0000      12.369018       336.5781 
 166   0.0000      12.369018       336.5781 
 167   0.0000      12.637507       343.8840 
 168   0.0000      12.637507       343.8840 
 169   0.0000      12.697028       345.5037 
 170   0.0000      12.697028       345.5037 
 171   0.0000      13.064803       355.5114 
 172   0.0000      13.064803       355.5114 
 173   0.0000      13.545541       368.5929 
 174   0.0000      13.635188       371.0323 
 175   0.0000      13.635188       371.0323 
 176   0.0000      14.142548       384.8383 
 177   0.0000      14.374452       391.1487 
 178   0.0000      14.374452       391.1487 
 179   0.0000      14.683215       399.5506 
 180   0.0000      14.683218       399.5507 
 181   0.0000      14.687779       399.6748 
 182   0.0000      14.979391       407.6099 
 183   0.0000      14.979391       407.6099 
 184   0.0000      15.498061       421.7237 
 185   0.0000      15.498061       421.7237 
 186   0.0000      15.513121       422.1335 
 187   0.0000      15.513122       422.1335 
 188   0.0000      16.073657       437.3864 
 189   0.0000      16.750480       455.8037 
 190   0.0000      16.750488       455.8039 
 191   0.0000      17.013891       462.9715 
 192   0.0000      17.882598       486.6102 
 193   0.0000      17.882598       486.6102 
 194   0.0000      18.275629       497.3051 
 195   0.0000      18.275629       497.3051 
 196   0.0000      18.593354       505.9509 
 197   0.0000      19.405556       528.0520 
 198   0.0000      19.405556       528.0520 
 199   0.0000      20.124686       547.6206 
 200   0.0000      20.124771       547.6229 
 201   0.0000      20.313599       552.7611 
 202   0.0000      20.313599       552.7611 
 203   0.0000      20.335228       553.3497 
 204   0.0000      20.335230       553.3497 
 205   0.0000      20.923530       569.3582 
 206   0.0000      20.923540       569.3585 
 207   0.0000      21.436616       583.3200 
 208   0.0000      22.779562       619.8634 
 209   0.0000      22.779562       619.8634 
 210   0.0000      22.970533       625.0600 
 211   0.0000      24.173437       657.7927 
 212   0.0000      24.173437       657.7927 
 213   0.0000      28.755238       782.4698 
 214   0.0000      30.318641       825.0122 
 215   0.0000      30.318653       825.0125 
 216   0.0000      30.913033       841.1864 
 217   0.0000      30.913033       841.1864 
 218   0.0000      34.485245       938.3912 
 219   0.0000      40.661558      1106.4572 
 220   0.0000      41.687468      1134.3737 
 221   0.0000      41.687468      1134.3737 
 222   0.0000      42.175668      1147.6583 
 223   0.0000      45.446444      1236.6606 
 224   0.0000      91.035052      2477.1897 
 225   0.0000      91.035052      2477.1897 
 226   0.0000      91.259031      2483.2845 
 227   0.0000      91.259065      2483.2854 
 228   0.0000      91.664844      2494.3272 
 229   0.0000      91.664844      2494.3272 
 230   0.0000      93.102464      2533.4468 
 231   0.0000      95.263024      2592.2387 
 232   0.0000     202.616583      5513.4775 

                 SPIN DOWN ORBITALS
  NO   OCC          E(Eh)            E(eV) 
   0   1.0000     -24.252751      -659.9509 
   1   1.0000      -1.104793       -30.0629 
   2   1.0000      -0.495835       -13.4924 
   3   1.0000      -0.354688        -9.6516 
   4   1.0000      -0.354688        -9.6516 
   5   0.0000      -0.035363        -0.9623 
   6   0.0000       0.035863         0.9759 
   7   0.0000       0.042007         1.1431 
   8   0.0000       0.042007         1.1431 
   9   0.0000       0.043001         1.1701 
  10   0.0000       0.095273         2.5925 
  11   0.0000       0.102412         2.7868 
  12   0.0000       0.102412         2.7868 
  13   0.0000       0.141524         3.8511 
  14   0.0000       0.141524         3.8511 
  15   0.0000       0.152429         4.1478 
  16   0.0000       0.183736         4.9997 
  17   0.0000       0.183736         4.9997 
  18   0.0000       0.185435         5.0459 
  19   0.0000       0.240172         6.5354 
  20   0.0000       0.265014         7.2114 
  21   0.0000       0.270079         7.3492 
  22   0.0000       0.270079         7.3492 
  23   0.0000       0.288308         7.8453 
  24   0.0000       0.288308         7.8453 
  25   0.0000       0.289024         7.8647 
  26   0.0000       0.289024         7.8647 
  27   0.0000       0.289158         7.8684 
  28   0.0000       0.289158         7.8684 
  29   0.0000       0.367596        10.0028 
  30   0.0000       0.381911        10.3923 
  31   0.0000       0.381911        10.3923 
  32   0.0000       0.383386        10.4325 
  33   0.0000       0.383386        10.4325 
  34   0.0000       0.385087        10.4788 
  35   0.0000       0.477617        12.9966 
  36   0.0000       0.477618        12.9966 
  37   0.0000       0.485880        13.2215 
  38   0.0000       0.485880        13.2215 
  39   0.0000       0.492105        13.3909 
  40   0.0000       0.492105        13.3909 
  41   0.0000       0.507086        13.7985 
  42   0.0000       0.537310        14.6209 
  43   0.0000       0.537310        14.6209 
  44   0.0000       0.548094        14.9144 
  45   0.0000       0.588660        16.0182 
  46   0.0000       0.588660        16.0182 
  47   0.0000       0.631922        17.1955 
  48   0.0000       0.649803        17.6820 
  49   0.0000       0.649803        17.6820 
  50   0.0000       0.653482        17.7822 
  51   0.0000       0.653482        17.7822 
  52   0.0000       0.712038        19.3755 
  53   0.0000       0.712038        19.3755 
  54   0.0000       0.722179        19.6515 
  55   0.0000       0.816051        22.2059 
  56   0.0000       0.824724        22.4419 
  57   0.0000       0.824724        22.4419 
  58   0.0000       0.845928        23.0189 
  59   0.0000       0.845928        23.0189 
  60   0.0000       0.895638        24.3715 
  61   0.0000       0.895638        24.3715 
  62   0.0000       0.908893        24.7322 
  63   0.0000       0.908893        24.7322 
  64   0.0000       0.912291        24.8247 
  65   0.0000       0.936071        25.4718 
  66   0.0000       0.936071        25.4718 
  67   0.0000       0.948494        25.8098 
  68   0.0000       0.948494        25.8098 
  69   0.0000       1.047223        28.4964 
  70   0.0000       1.155455        31.4415 
  71   0.0000       1.155456        31.4415 
  72   0.0000       1.176893        32.0249 
  73   0.0000       1.176893        32.0249 
  74   0.0000       1.189826        32.3768 
  75   0.0000       1.241961        33.7955 
  76   0.0000       1.241963        33.7955 
  77   0.0000       1.248167        33.9644 
  78   0.0000       1.248167        33.9644 
  79   0.0000       1.258873        34.2557 
  80   0.0000       1.267589        34.4928 
  81   0.0000       1.267590        34.4929 
  82   0.0000       1.269517        34.5453 
  83   0.0000       1.269517        34.5453 
  84   0.0000       1.441447        39.2238 
  85   0.0000       1.441447        39.2238 
  86   0.0000       1.443388        39.2766 
  87   0.0000       1.443388        39.2766 
  88   0.0000       1.562756        42.5247 
  89   0.0000       1.766396        48.0661 
  90   0.0000       1.808589        49.2142 
  91   0.0000       1.808589        49.2142 
  92   0.0000       1.950322        53.0709 
  93   0.0000       2.136478        58.1365 
  94   0.0000       2.178489        59.2797 
  95   0.0000       2.178489        59.2797 
  96   0.0000       2.184071        59.4316 
  97   0.0000       2.184071        59.4316 
  98   0.0000       2.318509        63.0898 
  99   0.0000       2.318509        63.0898 
 100   0.0000       2.421737        65.8988 
 101   0.0000       2.596120        70.6440 
 102   0.0000       2.596120        70.6440 
 103   0.0000       2.715686        73.8976 
 104   0.0000       2.715690        73.8977 
 105   0.0000       2.996062        81.5270 
 106   0.0000       3.129802        85.1662 
 107   0.0000       3.129802        85.1662 
 108   0.0000       3.218879        87.5902 
 109   0.0000       3.218879        87.5902 
 110   0.0000       3.350277        91.1657 
 111   0.0000       3.350277        91.1657 
 112   0.0000       3.357017        91.3491 
 113   0.0000       3.655381        99.4680 
 114   0.0000       3.839923       104.4896 
 115   0.0000       3.839923       104.4896 
 116   0.0000       3.911778       106.4449 
 117   0.0000       3.911778       106.4449 
 118   0.0000       4.095192       111.4358 
 119   0.0000       4.457257       121.2881 
 120   0.0000       4.457257       121.2881 
 121   0.0000       4.725306       128.5821 
 122   0.0000       5.172110       140.7403 
 123   0.0000       5.172110       140.7403 
 124   0.0000       5.184620       141.0807 
 125   0.0000       5.184620       141.0807 
 126   0.0000       5.403019       147.0236 
 127   0.0000       5.403019       147.0236 
 128   0.0000       5.557371       151.2237 
 129   0.0000       5.617384       152.8568 
 130   0.0000       6.033911       164.1911 
 131   0.0000       6.113019       166.3437 
 132   0.0000       6.113019       166.3437 
 133   0.0000       6.130595       166.8220 
 134   0.0000       6.130595       166.8220 
 135   0.0000       6.426694       174.8792 
 136   0.0000       6.426695       174.8793 
 137   0.0000       6.865044       186.8073 
 138   0.0000       6.967690       189.6005 
 139   0.0000       6.967690       189.6005 
 140   0.0000       7.128574       193.9784 
 141   0.0000       7.128582       193.9786 
 142   0.0000       7.393271       201.1811 
 143   0.0000       7.393271       201.1811 
 144   0.0000       7.637016       207.8138 
 145   0.0000       8.191478       222.9015 
 146   0.0000       8.191482       222.9015 
 147   0.0000       8.292447       225.6490 
 148   0.0000       8.292447       225.6490 
 149   0.0000       8.575254       233.3445 
 150   0.0000       8.575254       233.3445 
 151   0.0000       8.590876       233.7696 
 152   0.0000       9.013660       245.2742 
 153   0.0000       9.013661       245.2742 
 154   0.0000      10.330190       281.0988 
 155   0.0000      10.673472       290.4399 
 156   0.0000      10.673472       290.4399 
 157   0.0000      11.389280       309.9181 
 158   0.0000      11.577762       315.0469 
 159   0.0000      11.972436       325.7865 
 160   0.0000      11.972436       325.7865 
 161   0.0000      12.006938       326.7254 
 162   0.0000      12.006940       326.7254 
 163   0.0000      12.249528       333.3266 
 164   0.0000      12.249529       333.3266 
 165   0.0000      12.369018       336.5781 
 166   0.0000      12.369018       336.5781 
 167   0.0000      12.637507       343.8840 
 168   0.0000      12.637507       343.8840 
 169   0.0000      12.697028       345.5037 
 170   0.0000      12.697028       345.5037 
 171   0.0000      13.064803       355.5114 
 172   0.0000      13.064803       355.5114 
 173   0.0000      13.545541       368.5929 
 174   0.0000      13.635188       371.0323 
 175   0.0000      13.635188       371.0323 
 176   0.0000      14.142548       384.8383 
 177   0.0000      14.374452       391.1487 
 178   0.0000      14.374452       391.1487 
 179   0.0000      14.683215       399.5506 
 180   0.0000      14.683218       399.5507 
 181   0.0000      14.687779       399.6748 
 182   0.0000      14.979391       407.6099 
 183   0.0000      14.979391       407.6099 
 184   0.0000      15.498061       421.7237 
 185   0.0000      15.498061       421.7237 
 186   0.0000      15.513121       422.1335 
 187   0.0000      15.513122       422.1335 
 188   0.0000      16.073657       437.3864 
 189   0.0000      16.750480       455.8037 
 190   0.0000      16.750488       455.8039 
 191   0.0000      17.013891       462.9715 
 192   0.0000      17.882598       486.6102 
 193   0.0000      17.882598       486.6102 
 194   0.0000      18.275629       497.3051 
 195   0.0000      18.275629       497.3051 
 196   0.0000      18.593354       505.9509 
 197   0.0000      19.405556       528.0520 
 198   0.0000      19.405556       528.0520 
 199   0.0000      20.124686       547.6206 
 200   0.0000      20.124771       547.6229 
 201   0.0000      20.313599       552.7611 
 202   0.0000      20.313599       552.7611 
 203   0.0000      20.335228       553.3497 
 204   0.0000      20.335230       553.3497 
 205   0.0000      20.923530       569.3582 
 206   0.0000      20.923540       569.3585 
 207   0.0000      21.436616       583.3200 
 208   0.0000      22.779562       619.8634 
 209   0.0000      22.779562       619.8634 
 210   0.0000      22.970533       625.0600 
 211   0.0000      24.173437       657.7927 
 212   0.0000      24.173437       657.7927 
 213   0.0000      28.755238       782.4698 
 214   0.0000      30.318641       825.0122 
 215   0.0000      30.318653       825.0125 
 216   0.0000      30.913033       841.1864 
 217   0.0000      30.913033       841.1864 
 218   0.0000      34.485245       938.3912 
 219   0.0000      40.661558      1106.4572 
 220   0.0000      41.687468      1134.3737 
 221   0.0000      41.687468      1134.3737 
 222   0.0000      42.175668      1147.6583 
 223   0.0000      45.446444      1236.6606 
 224   0.0000      91.035052      2477.1897 
 225   0.0000      91.035052      2477.1897 
 226   0.0000      91.259031      2483.2845 
 227   0.0000      91.259065      2483.2854 
 228   0.0000      91.664844      2494.3272 
 229   0.0000      91.664844      2494.3272 
 230   0.0000      93.102464      2533.4468 
 231   0.0000      95.263024      2592.2387 
 232   0.0000     202.616583      5513.4775 

                    ********************************
                    * MULLIKEN POPULATION ANALYSIS *
                    ********************************

--------------------------------------------
MULLIKEN ATOMIC CHARGES AND SPIN POPULATIONS
--------------------------------------------
   0 F :   -0.273571    0.000000
   1 H :    0.273571   -0.000000
Sum of atomic charges         :    0.0000000
Sum of atomic spin populations:    0.0000000

-----------------------------------------------------
MULLIKEN REDUCED ORBITAL CHARGES AND SPIN POPULATIONS
-----------------------------------------------------
CHARGE
  0 F s       :     3.920758  s :     3.920758
      pz      :     1.454490  p :     5.344890
      px      :     1.945200
      py      :     1.945200
      dz2     :     0.004551  d :     0.007446
      dxz     :     0.001448
      dyz     :     0.001448
      dx2y2   :     0.000000
      dxy     :     0.000000
      f0      :     0.000303  f :     0.000456
      f+1     :     0.000077
      f-1     :     0.000077
      f+2     :     0.000000
      f-2     :    -0.000000
      f+3     :     0.000000
      f-3     :     0.000000
      g0      :     0.000021  g :     0.000018
      g+1     :    -0.000001
      g-1     :    -0.000001
      g+2     :     0.000000
      g-2     :    -0.000000
      g+3     :     0.000000
      g-3     :     0.000000
      g+4     :     0.000000
      g-4     :    -0.000000
      h0      :     0.000003  h :     0.000002
      h+1     :    -0.000001
      h-1     :    -0.000001
      h+2     :     0.000000
      h-2     :    -0.000000
      h+3     :     0.000000
      h-3     :     0.000000
      h+4     :     0.000000
      h-4     :    -0.000000
      h+5     :     0.000000
      h-5     :     0.000000
  1 H s       :     0.585007  s :     0.585007
      pz      :     0.032037  p :     0.126596
      px      :     0.047279
      py      :     0.047279
      dz2     :     0.002762  d :     0.013911
      dxz     :     0.005575
      dyz     :     0.005575
      dx2y2   :     0.000000
      dxy     :     0.000000
      f0      :     0.000078  f :     0.000974
      f+1     :     0.000448
      f-1     :     0.000448
      f+2     :     0.000000
      f-2     :     0.000000
      f+3     :     0.000000
      f-3     :     0.000000
      g0      :    -0.000009  g :    -0.000059
      g+1     :    -0.000025
      g-1     :    -0.000025
      g+2     :    -0.000000
      g-2     :    -0.000000
      g+3     :    -0.000000
      g-3     :    -0.000000
      g+4     :    -0.000000
      g-4     :     0.000000

SPIN
  0 F s       :     0.000000  s :     0.000000
      pz      :    -0.000000  p :    -0.000000
      px      :     0.000000
      py      :     0.000000
      dz2     :     0.000000  d :     0.000000
      dxz     :     0.000000
      dyz     :    -0.000000
      dx2y2   :     0.000000
      dxy     :     0.000000
      f0      :     0.000000  f :     0.000000
      f+1     :     0.000000
      f-1     :    -0.000000
      f+2     :    -0.000000
      f-2     :     0.000000
      f+3     :     0.000000
      f-3     :    -0.000000
      g0      :     0.000000  g :     0.000000
      g+1     :    -0.000000
      g-1     :     0.000000
      g+2     :    -0.000000
      g-2     :    -0.000000
      g+3     :    -0.000000
      g-3     :     0.000000
      g+4     :    -0.000000
      g-4     :    -0.000000
      h0      :    -0.000000  h :    -0.000000
      h+1     :    -0.000000
      h-1     :     0.000000
      h+2     :     0.000000
      h-2     :    -0.000000
      h+3     :     0.000000
      h-3     :     0.000000
      h+4     :    -0.000000
      h-4     :     0.000000
      h+5     :     0.000000
      h-5     :    -0.000000
  1 H s       :     0.000000  s :     0.000000
      pz      :    -0.000000  p :    -0.000000
      px      :    -0.000000
      py      :    -0.000000
      dz2     :    -0.000000  d :    -0.000000
      dxz     :    -0.000000
      dyz     :    -0.000000
      dx2y2   :     0.000000
      dxy     :     0.000000
      f0      :     0.000000  f :    -0.000000
      f+1     :     0.000000
      f-1     :    -0.000000
      f+2     :    -0.000000
      f-2     :    -0.000000
      f+3     :    -0.000000
      f-3     :    -0.000000
      g0      :     0.000000  g :     0.000000
      g+1     :     0.000000
      g-1     :    -0.000000
      g+2     :     0.000000
      g-2     :    -0.000000
      g+3     :     0.000000
      g-3     :    -0.000000
      g+4     :     0.000000
      g-4     :     0.000000


                     *******************************
                     * LOEWDIN POPULATION ANALYSIS *
                     *******************************

-------------------------------------------
LOEWDIN ATOMIC CHARGES AND SPIN POPULATIONS
-------------------------------------------
   0 F :    0.963387    0.000000
   1 H :   -0.963387   -0.000000

----------------------------------------------------
LOEWDIN REDUCED ORBITAL CHARGES AND SPIN POPULATIONS
----------------------------------------------------
CHARGE
  0 F s       :     3.310749  s :     3.310749
      pz      :     1.481623  p :     4.692377
      px      :     1.605377
      py      :     1.605377
      dz2     :     0.020223  d :     0.025973
      dxz     :     0.002875
      dyz     :     0.002875
      dx2y2   :     0.000000
      dxy     :     0.000000
      f0      :     0.003924  f :     0.005221
      f+1     :     0.000649
      f-1     :     0.000649
      f+2     :     0.000000
      f-2     :     0.000000
      f+3     :     0.000000
      f-3     :     0.000000
      g0      :     0.000906  g :     0.001643
      g+1     :     0.000368
      g-1     :     0.000368
      g+2     :     0.000000
      g-2     :     0.000000
      g+3     :     0.000000
      g-3     :     0.000000
      g+4     :     0.000000
      g-4     :     0.000000
      h0      :     0.000374  h :     0.000651
      h+1     :     0.000139
      h-1     :     0.000139
      h+2     :     0.000000
      h-2     :     0.000000
      h+3     :     0.000000
      h-3     :     0.000000
      h+4     :     0.000000
      h-4     :     0.000000
      h+5     :     0.000000
      h-5     :     0.000000
  1 H s       :     0.634686  s :     0.634686
      pz      :     0.334623  p :     0.692132
      px      :     0.178754
      py      :     0.178754
      dz2     :     0.177874  d :     0.487979
      dxz     :     0.155053
      dyz     :     0.155053
      dx2y2   :     0.000000
      dxy     :     0.000000
      f0      :     0.032150  f :     0.139830
      f+1     :     0.053840
      f-1     :     0.053840
      f+2     :     0.000000
      f-2     :     0.000000
      f+3     :     0.000000
      f-3     :     0.000000
      g0      :     0.002867  g :     0.008759
      g+1     :     0.002946
      g-1     :     0.002946
      g+2     :     0.000000
      g-2     :     0.000000
      g+3     :     0.000000
      g-3     :     0.000000
      g+4     :     0.000000
      g-4     :     0.000000

SPIN
  0 F s       :     0.000000  s :     0.000000
      pz      :    -0.000000  p :     0.000000
      px      :     0.000000
      py      :     0.000000
      dz2     :    -0.000000  d :    -0.000000
      dxz     :     0.000000
      dyz     :    -0.000000
      dx2y2   :    -0.000000
      dxy     :     0.000000
      f0      :    -0.000000  f :    -0.000000
      f+1     :     0.000000
      f-1     :     0.000000
      f+2     :    -0.000000
      f-2     :    -0.000000
      f+3     :     0.000000
      f-3     :    -0.000000
      g0      :     0.000000  g :     0.000000
      g+1     :    -0.000000
      g-1     :     0.000000
      g+2     :    -0.000000
      g-2     :    -0.000000
      g+3     :    -0.000000
      g-3     :     0.000000
      g+4     :    -0.000000
      g-4     :     0.000000
      h0      :     0.000000  h :     0.000000
      h+1     :     0.000000
      h-1     :     0.000000
      h+2     :     0.000000
      h-2     :    -0.000000
      h+3     :     0.000000
      h-3     :     0.000000
      h+4     :    -0.000000
      h-4     :    -0.000000
      h+5     :     0.000000
      h-5     :    -0.000000
  1 H s       :     0.000000  s :     0.000000
      pz      :    -0.000000  p :    -0.000000
      px      :    -0.000000
      py      :     0.000000
      dz2     :     0.000000  d :     0.000000
      dxz     :    -0.000000
      dyz     :    -0.000000
      dx2y2   :     0.000000
      dxy     :     0.000000
      f0      :     0.000000  f :     0.000000
      f+1     :     0.000000
      f-1     :     0.000000
      f+2     :    -0.000000
      f-2     :    -0.000000
      f+3     :    -0.000000
      f-3     :    -0.000000
      g0      :    -0.000000  g :    -0.000000
      g+1     :    -0.000000
      g-1     :     0.000000
      g+2     :    -0.000000
      g-2     :    -0.000000
      g+3     :    -0.000000
      g-3     :    -0.000000
      g+4     :     0.000000
      g-4     :     0.000000


                      *****************************
                      * MAYER POPULATION ANALYSIS *
                      *****************************

  NA   - Mulliken gross atomic population
  ZA   - Total nuclear charge
  QA   - Mulliken gross atomic charge
  VA   - Mayer's total valence
  BVA  - Mayer's bonded valence
  FA   - Mayer's free valence

  ATOM       NA         ZA         QA         VA         BVA        FA
  0 F      9.2736     9.0000    -0.2736     1.0427     1.0427     0.0000
  1 H      0.7264     1.0000     0.2736     1.0427     1.0427    -0.0000

  Mayer bond orders larger than 0.1
B(  0-F ,  1-H ) :   1.0427 

-------
TIMINGS
-------

Total SCF time: 0 days 0 hours 1 min 21 sec 

Total time                  ....      81.680 sec
Sum of individual times     ....      80.773 sec  ( 98.9%)

Fock matrix formation       ....      79.754 sec  ( 97.6%)
  XC integration            ....       3.301 sec  (  4.1% of F)
    Basis function eval.    ....       0.270 sec  (  8.2% of XC)
    Density eval.           ....       0.625 sec  ( 18.9% of XC)
    XC-Functional eval.     ....       0.063 sec  (  1.9% of XC)
    XC-Potential eval.      ....       2.054 sec  ( 62.2% of XC)
Diagonalization             ....       0.313 sec  (  0.4%)
Density matrix formation    ....       0.007 sec  (  0.0%)
Population analysis         ....       0.046 sec  (  0.1%)
Initial guess               ....       0.261 sec  (  0.3%)
Orbital Transformation      ....       0.000 sec  (  0.0%)
Orbital Orthonormalization  ....       0.000 sec  (  0.0%)
DIIS solution               ....       0.202 sec  (  0.2%)
Grid generation             ....       0.189 sec  (  0.2%)

-------------------------   --------------------
FINAL SINGLE POINT ENERGY      -100.402508639431
-------------------------   --------------------


                            ***************************************
                            *     ORCA property calculations      *
                            ***************************************

                                    ---------------------
                                    Active property flags
                                    ---------------------
   (+) Dipole Moment
   (+) Polarizability


------------------------------------------------------------------------------
                       ORCA ELECTRIC PROPERTIES CALCULATION
------------------------------------------------------------------------------

Dipole Moment Calculation                       ... on
Quadrupole Moment Calculation                   ... off
Polarizability Calculation                      ... Analytic (CP-SCF)
GBWName                                         ... hf_pbe.gbw
Electron density file                           ... hf_pbe.scfp.tmp
The origin for moment calculation is the CENTER OF MASS  = ( 0.000000,  0.000000  0.087292)

-------------
DIPOLE MOMENT
-------------
                                X             Y             Z
Electronic contribution:     -0.00000      -0.00000      -0.17283
Nuclear contribution   :      0.00000       0.00000       0.85958
                        -----------------------------------------
Total Dipole Moment    :     -0.00000      -0.00000       0.68675
                        -----------------------------------------
Magnitude (a.u.)       :      0.68675
Magnitude (Debye)      :      1.74559



--------------------
Rotational spectrum 
--------------------
 
Rotational constants in cm-1:     0.000000    20.952678    20.952678 
Rotational constants in MHz :     0.000000 628145.486789 628145.486789 

 Dipole components along the rotational axes: 
x,y,z [a.u.] :     0.686752    -0.000000    -0.000000 
x,y,z [Debye]:     1.745586    -0.000000    -0.000000 

 
Transforming and storing MO dipole integrals   ... done

                ... starting polarizability calculation

Opening the Dipole integral file               ... (hf_pbe.dmo.tmp) done
Reading Dipole-MO integrals                    ... done
Solving CP-SCF equations                       ... 

           ************************************************************
           *        Program running with 4 parallel MPI-processes     *
           *              working on a common directory               *
           ************************************************************

------------------------------------------------------------------------------
                           ORCA CP-SCF CALCULATION
------------------------------------------------------------------------------

Input orbitals are from        ... hf_pbe.gbw
Input Perturbation             ... hf_pbe.cpv.tmp
Wavefunction output            ... hf_pbe.cpu.tmp
Perturbation mode              ... Real perturbation (singlet)
Solver                         ... POPLE
Max. number of iterations      ... 200
Convergence tolerance          ... 1.000e-06
Integral handling              ... Direct
Number of perturbations        ... 3
Number of operators            ... 2
Orbital ranges used for CP-SCF:
 Operator 0:  Orbitals   0...  4  to   5...232
 Operator 1:  Orbitals   0...  4  to   5...232
DFT calculation                         ... on
Exchange functional (SCF)               ... PBE
Exchange functional (CP-SCF)            ... PBE
   PBE kappa parameter  XKappa (SCF)    ...  0.804000
   PBE kappa parameter  XKappa (CP-SCF) ...  0.804000
   PBE mue parameter   XMuePBE (SCF)    ...  0.219520
   PBE mue parameter   XMuePBE (CP-SCF) ...  0.219520
Correlation functional (SCF)            ... PBE
Correlation functional (CP-SCF)         ... PBE
   PBE beta parameter CBetaPBE (SCF)    ...  0.066725
   PBE beta parameter CBetaPBE (CP-SCF) ...  0.066725
 LDA part of GGA corr.  LDAOpt (SCF)    ... PW91-LDA
 LDA part of GGA corr.  LDAOpt (CP-SCF) ... PW91-LDA
Variables per vector in CP-SCF ... 2280
Number of vectors sought       ... 3
Recalculating density on grid  ... done
Calculating the xc-kernel      ... done
     CP-SCF ITERATION   0: 
     CP-SCF ITERATION   1:      0.035506216989
     CP-SCF ITERATION   2:      0.000444358851
     CP-SCF ITERATION   3:      0.000001217438
     CP-SCF ITERATION   4:      0.000000327711
done
Reading CP-SCF coefficients                    ... done
Doing the polarizability tensor   ... done
Cleaning up                                    ... done

-------------------------
THE POLARIZABILITY TENSOR
-------------------------

The raw cartesian tensor (atomic units):
    5.93636     -0.00000     -0.00000  
   -0.00000      5.93636     -0.00000  
   -0.00000     -0.00000      6.88620  
diagonalized tensor: 
    5.93636      5.93636      6.88620  

   -0.85862      0.51262     -0.00000  
   -0.51262     -0.85862     -0.00000  
   -0.00000     -0.00000      1.00000  

Isotropic polarizability :   6.25297


Timings for individual modules:

Sum of individual times         ...      146.093 sec (=   2.435 min)
GTO integral calculation        ...        0.954 sec (=   0.016 min)   0.7 %
SCF iterations                  ...       81.989 sec (=   1.366 min)  56.1 %
Solution of CP-SCF eqns.        ...       63.151 sec (=   1.053 min)  43.2 %
                             ****ORCA TERMINATED NORMALLY****
TOTAL RUN TIME: 0 days 0 hours 2 minutes 26 seconds 805 msec
