
                                 *****************
                                 * O   R   C   A *
                                 *****************

           --- An Ab Initio, DFT and Semiempirical electronic structure package ---

                  #######################################################
                  #                        -***-                        #
                  #          Department of theory and spectroscopy      #
                  #               Directorship: Frank Neese             #
                  #        Max Planck Institute fuer Kohlenforschung    #
                  #                Kaiser Wilhelm Platz 1               #
                  #                 D-45470 Muelheim/Ruhr               #
                  #                      Germany                        #
                  #                                                     #
                  #                  All rights reserved                #
                  #                        -***-                        #
                  #######################################################


                         Program Version 4.1.2  - RELEASE  -


 With contributions from (in alphabetic order):
   Daniel Aravena         : Magnetic Properties
   Michael Atanasov       : Ab Initio Ligand Field Theory
   Alexander A. Auer      : GIAO ZORA
   Ute Becker             : Parallelization
   Giovanni Bistoni       : ED, Open-shell LED
   Martin Brehm           : Molecular dynamics
   Dmytro Bykov           : SCF Hessian
   Vijay G. Chilkuri      : MRCI spin determinant printing
   Dipayan Datta          : RHF DLPNO-CCSD density
   Achintya Kumar Dutta   : EOM-CC, STEOM-CC
   Dmitry Ganyushin       : Spin-Orbit,Spin-Spin,Magnetic field MRCI
   Miquel Garcia          : C-PCM Hessian
   Yang Guo               : DLPNO-NEVPT2, CIM, IAO-localization
   Andreas Hansen         : Spin unrestricted coupled pair/coupled cluster methods
   Benjamin Helmich-Paris : CASSCF linear response (MC-RPA)
   Lee Huntington         : MR-EOM, pCC
   Robert Izsak           : Overlap fitted RIJCOSX, COSX-SCS-MP3, EOM
   Christian Kollmar      : KDIIS, OOCD, Brueckner-CCSD(T), CCSD density
   Simone Kossmann        : Meta GGA functionals, TD-DFT gradient, OOMP2, MP2 Hessian
   Martin Krupicka        : AUTO-CI
   Lucas Lang             : DCDCAS
   Dagmar Lenk            : GEPOL surface, SMD
   Dimitrios Liakos       : Extrapolation schemes; parallel MDCI
   Dimitrios Manganas     : ROCIS; embedding schemes
   Dimitrios Pantazis     : SARC Basis sets
   Taras Petrenko         : DFT Hessian,TD-DFT gradient, ASA, ECA, R-Raman, ABS, FL, XAS/XES, NRVS
   Peter Pinski           : DLPNO-MP2, DLPNO-MP2 Gradient
   Christoph Reimann      : Effective Core Potentials
   Marius Retegan         : Local ZFS, SOC
   Christoph Riplinger    : Optimizer, TS searches, QM/MM, DLPNO-CCSD(T), (RO)-DLPNO pert. Triples
   Tobias Risthaus        : Range-separated hybrids, TD-DFT gradient, RPA, STAB
   Michael Roemelt        : Restricted open shell CIS
   Masaaki Saitow         : Open-shell DLPNO
   Barbara Sandhoefer     : DKH picture change effects
   Avijit Sen             : IP-ROCIS
   Kantharuban Sivalingam : CASSCF convergence, NEVPT2, FIC-MRCI
   Bernardo de Souza      : ESD, SOC TD-DFT
   Georgi Stoychev        : AutoAux, RI-MP2 NMR
   Willem Van den Heuvel  : Paramagnetic NMR
   Boris Wezisla          : Elementary symmetry handling
   Frank Wennmohs         : Technical directorship


 We gratefully acknowledge several colleagues who have allowed us to
 interface, adapt or use parts of their codes:
   Stefan Grimme, W. Hujo, H. Kruse,             : VdW corrections, initial TS optimization,
                  C. Bannwarth                     DFT functionals, gCP, sTDA/sTD-DF
   Ed Valeev                                     : LibInt (2-el integral package), F12 methods
   Garnet Chan, S. Sharma, J. Yang, R. Olivares  : DMRG
   Ulf Ekstrom                                   : XCFun DFT Library
   Mihaly Kallay                                 : mrcc  (arbitrary order and MRCC methods)
   Andreas Klamt, Michael Diedenhofen            : otool_cosmo (COSMO solvation model)
   Jiri Pittner, Ondrej Demel                    : Mk-CCSD
   Frank Weinhold                                : gennbo (NPA and NBO analysis)
   Christopher J. Cramer and Donald G. Truhlar   : smd solvation model
   Lars Goerigk                                  : TD-DFT with DH, B97 family of functionals
   V. Asgeirsson, H. Jonsson                     : NEB implementation
   FAccTs GmbH                                   : IRC, NEB, NEB-TS, Multilevel


 Your calculation uses the libint2 library for the computation of 2-el integrals
 For citations please refer to: http://libint.valeyev.net

 This ORCA versions uses:
   CBLAS   interface :  Fast vector & matrix operations
   LAPACKE interface :  Fast linear algebra routines
   SCALAPACK package :  Parallel linear algebra routines


----- Orbital basis set information -----
Your calculation utilizes the basis: aug-pc-4
   H, C-F              : F. Jensen, J. Chem. Phys. 115, 9113 (2001).
                         F. Jensen, J. Chem. Phys. 116, 7372 (2002).
                         F. Jensen, J. Chem. Phys. 117, 9234 (2002).
   Si-Cl               : F. Jensen, T. Helgaker, J. Chem. Phys. 121, 3463 (2004).
   He-B, Ne-Mg, Al, Ar : F. Jensen, J. Phys. Chem. A 111, 11198 (2007).
   K, Ca, Ga-Kr        : F. Jensen, J. Chem. Phys. 136, 094110 (2012).
   Sc-Zn               : F. Jensen, J. Chem. Phys. 138, 014107 (2013).

================================================================================
                                        WARNINGS
                       Please study these warnings very carefully!
================================================================================


INFO   : the flag for use of LIBINT has been found!

================================================================================
                                       INPUT FILE
================================================================================
NAME = hnc_pbe.inp
|  1> !uks pbe nori aug-pc-4 grid5 nofinalgrid verytightscf
|  2> 
|  3> %maxcore 1500
|  4> 
|  5> %pal nprocs 4 end
|  6> 
|  7> %scf
|  8> 	maxiter 200
|  9> end
| 10> %elprop
| 11> 	dipole true
| 12> 	 polar 1
| 13> 	 maxiter 200
| 14> end
| 15> 
| 16> * xyz 0 1
| 17> C 0.0000 0.0000 -0.7405
| 18> N 0.0000 0.0000 0.4321
| 19> H 0.0000 0.0000 1.4183
| 20> *
| 21> 
| 22>                          ****END OF INPUT****
================================================================================

                       ****************************
                       * Single Point Calculation *
                       ****************************

---------------------------------
CARTESIAN COORDINATES (ANGSTROEM)
---------------------------------
  C      0.000000    0.000000   -0.740500
  N      0.000000    0.000000    0.432100
  H      0.000000    0.000000    1.418300

----------------------------
CARTESIAN COORDINATES (A.U.)
----------------------------
  NO LB      ZA    FRAG     MASS         X           Y           Z
   0 C     6.0000    0    12.011    0.000000    0.000000   -1.399342
   1 N     7.0000    0    14.007    0.000000    0.000000    0.816551
   2 H     1.0000    0     1.008    0.000000    0.000000    2.680199

--------------------------------
INTERNAL COORDINATES (ANGSTROEM)
--------------------------------
 C      0   0   0     0.000000000000     0.00000000     0.00000000
 N      1   0   0     1.172600000000     0.00000000     0.00000000
 H      2   1   0     0.986200000000   179.99999879     0.00000000

---------------------------
INTERNAL COORDINATES (A.U.)
---------------------------
 C      0   0   0     0.000000000000     0.00000000     0.00000000
 N      1   0   0     2.215892864636     0.00000000     0.00000000
 H      2   1   0     1.863647913273   179.99999879     0.00000000

---------------------
BASIS SET INFORMATION
---------------------
There are 3 groups of distinct atoms

 Group   1 Type C   : 28s12p7d4f3g2h contracted to 9s8p7d4f3g2h pattern {11101111111/51111111/1111111/1111/111/11}
 Group   2 Type N   : 27s12p7d4f3g2h contracted to 9s8p7d4f3g2h pattern {1191111111/51111111/1111111/1111/111/11}
 Group   3 Type H   : 12s7p4d3f2g contracted to 8s7p4d3f2g pattern {51111111/1111111/1111/111/11}

Atom   0C    basis set group =>   1
Atom   1N    basis set group =>   2
Atom   2H    basis set group =>   3


           ************************************************************
           *        Program running with 4 parallel MPI-processes     *
           *              working on a common directory               *
           ************************************************************
------------------------------------------------------------------------------
                           ORCA GTO INTEGRAL CALCULATION
------------------------------------------------------------------------------

                         BASIS SET STATISTICS AND STARTUP INFO

 # of primitive gaussian shells          ...  139
 # of primitive gaussian functions       ...  443
 # of contracted shells                  ...   90
 # of contracted basis functions         ...  378
 Highest angular momentum                ...    5
 Maximum contraction depth               ...   11
 Integral package used                   ... LIBINT
 Integral threshhold            Thresh   ...  1.000e-12
 Primitive cut-off              TCut     ...  1.000e-14


------------------------------ INTEGRAL EVALUATION ----------------------------


 * One electron integrals 
 Pre-screening matrix                    ... done
 Shell pair data                         ... done (   0.001 sec)



           ************************************************************
           *        Program running with 4 parallel MPI-processes     *
           *              working on a common directory               *
           ************************************************************
-------------------------------------------------------------------------------
                                 ORCA SCF
-------------------------------------------------------------------------------

------------
SCF SETTINGS
------------
Hamiltonian:
 Density Functional     Method          .... DFT(GTOs)
 Exchange Functional    Exchange        .... PBE
   PBE kappa parameter   XKappa         ....  0.804000
   PBE mue parameter    XMuePBE         ....  0.219520
 Correlation Functional Correlation     .... PBE
   PBE beta parameter  CBetaPBE         ....  0.066725
 LDA part of GGA corr.  LDAOpt          .... PW91-LDA
 Gradients option       PostSCFGGA      .... off
   Density functional embedding theory  .... OFF
   NL short-range parameter             ....  6.400000


General Settings:
 Integral files         IntName         .... hnc_pbe
 Hartree-Fock type      HFTyp           .... UHF
 Total Charge           Charge          ....    0
 Multiplicity           Mult            ....    1
 Number of Electrons    NEL             ....   14
 Basis Dimension        Dim             ....  378
 Nuclear Repulsion      ENuc            ....     24.1808130051 Eh

Convergence Acceleration:
 DIIS                   CNVDIIS         .... on
   Start iteration      DIISMaxIt       ....    12
   Startup error        DIISStart       ....  0.200000
   # of expansion vecs  DIISMaxEq       ....     5
   Bias factor          DIISBfac        ....   1.050
   Max. coefficient     DIISMaxC        ....  10.000
 Newton-Raphson         CNVNR           .... off
 SOSCF                  CNVSOSCF        .... off
 Level Shifting         CNVShift        .... on
   Level shift para.    LevelShift      ....    0.2500
   Turn off err/grad.   ShiftErr        ....    0.0010
 Zerner damping         CNVZerner       .... off
 Static damping         CNVDamp         .... on
   Fraction old density DampFac         ....    0.7000
   Max. Damping (<1)    DampMax         ....    0.9800
   Min. Damping (>=0)   DampMin         ....    0.0000
   Turn off err/grad.   DampErr         ....    0.1000
 Fernandez-Rico         CNVRico         .... off

SCF Procedure:
 Maximum # iterations   MaxIter         ....   200
 SCF integral mode      SCFMode         .... Direct
   Integral package                     .... LIBINT
 Reset frequency        DirectResetFreq ....    20
 Integral Threshold     Thresh          ....  1.000e-12 Eh
 Primitive CutOff       TCut            ....  1.000e-14 Eh

Convergence Tolerance:
 Convergence Check Mode ConvCheckMode   .... Total+1el-Energy
 Convergence forced     ConvForced      .... 0
 Energy Change          TolE            ....  1.000e-09 Eh
 1-El. energy change                    ....  1.000e-06 Eh
 DIIS Error             TolErr          ....  1.000e-08


Diagonalization of the overlap matrix:
Smallest eigenvalue                        ... 2.401e-07
Time for diagonalization                   ...    0.026 sec
Threshold for overlap eigenvalues          ... 1.000e-08
Number of eigenvalues below threshold      ... 0
Time for construction of square roots      ...    0.040 sec
Total time needed                          ...    0.066 sec

-------------------
DFT GRID GENERATION
-------------------

General Integration Accuracy     IntAcc      ...  5.010
Radial Grid Type                 RadialGrid  ... Gauss-Chebyshev
Angular Grid (max. acc.)         AngularGrid ... Lebedev-434
Angular grid pruning method      GridPruning ... 3 (G Style)
Weight generation scheme         WeightScheme... Becke
Basis function cutoff            BFCut       ...    1.0000e-12
Integration weight cutoff        WCut        ...    1.0000e-14
Grids for H and He will be reduced by one unit

# of grid points (after initial pruning)     ...  27980 (   0.0 sec)
# of grid points (after weights+screening)   ...  27645 (   0.0 sec)
nearest neighbour list constructed           ...    0.0 sec
Grid point re-assignment to atoms done       ...    0.0 sec
Grid point division into batches done        ...    0.2 sec
Reduced shell lists constructed in    0.3 sec

Total number of grid points                  ...    27645
Total number of batches                      ...      433
Average number of points per batch           ...       63
Average number of grid points per atom       ...     9215
Average number of shells per batch           ...    56.41 (62.68%)
Average number of basis functions per batch  ...   245.92 (65.06%)
Average number of large shells per batch     ...    48.44 (85.87%)
Average number of large basis fcns per batch ...   213.07 (86.64%)
Maximum spatial batch extension              ...  19.91, 19.91, 16.25 au
Average spatial batch extension              ...   1.34,  1.33,  1.14 au

Time for grid setup =    0.315 sec

------------------------------
INITIAL GUESS: MODEL POTENTIAL
------------------------------
Loading Hartree-Fock densities                     ... done
Calculating cut-offs                               ... done
Setting up the integral package                    ... done
Initializing the effective Hamiltonian             ... done
Starting the Coulomb interaction                   ... done (   0.0 sec)
Reading the grid                                   ... done
Mapping shells                                     ... done
Starting the XC term evaluation                    ... done (   0.5 sec)
  promolecular density results
     # of electrons  =     13.999508403
     EX              =    -11.851210555
     EC              =     -0.433374953
     EX+EC           =    -12.284585508
Transforming the Hamiltonian                       ... done (   0.0 sec)
Diagonalizing the Hamiltonian                      ... done (   0.0 sec)
Back transforming the eigenvectors                 ... done (   0.0 sec)
Now organizing SCF variables                       ... done
                      ------------------
                      INITIAL GUESS DONE (   1.5 sec)
                      ------------------
--------------
SCF ITERATIONS
--------------
ITER       Energy         Delta-E        Max-DP      RMS-DP      [F,P]     Damp
               ***  Starting incremental Fock matrix formation  ***
  0    -93.2742446576   0.000000000000 0.01669946  0.00016736  0.2031977 0.7000
  1    -93.3018547014  -0.027610043760 0.01290666  0.00011880  0.0798706 0.7000
                               ***Turning on DIIS***
  2    -93.3111823405  -0.009327639093 0.02966403  0.00022348  0.0321382 0.0000
  3    -93.3271095299  -0.015927189392 0.00690267  0.00007502  0.0410028 0.0000
  4    -93.3302887520  -0.003179222194 0.00207977  0.00002155  0.0195536 0.0000
  5    -93.3308609454  -0.000572193325 0.00116627  0.00001012  0.0031994 0.0000
  6    -93.3308831142  -0.000022168857 0.00103269  0.00000693  0.0005416 0.0000
  7    -93.3308847281  -0.000001613850 0.00012454  0.00000101  0.0000929 0.0000
  8    -93.3308847444  -0.000000016303 0.00001872  0.00000012  0.0000122 0.0000
  9    -93.3308847445  -0.000000000069 0.00000638  0.00000005  0.0000097 0.0000
 10    -93.3308847446  -0.000000000128 0.00000952  0.00000007  0.0000010 0.0000
                 **** Energy Check signals convergence ****

               *****************************************************
               *                     SUCCESS                       *
               *           SCF CONVERGED AFTER  11 CYCLES          *
               *****************************************************


----------------
TOTAL SCF ENERGY
----------------

Total Energy       :          -93.33088474 Eh           -2539.66249 eV

Components:
Nuclear Repulsion  :           24.18081301 Eh             657.99337 eV
Electronic Energy  :         -117.51169775 Eh           -3197.65586 eV
One Electron Energy:         -173.20138590 Eh           -4713.04932 eV
Two Electron Energy:           55.68968815 Eh            1515.39346 eV

Virial components:
Potential Energy   :         -186.34238834 Eh           -5070.63417 eV
Kinetic Energy     :           93.01150360 Eh            2530.97169 eV
Virial Ratio       :            2.00343378


DFT components:
N(Alpha)           :        6.999999587379 electrons
N(Beta)            :        6.999999587379 electrons
N(Total)           :       13.999999174757 electrons
E(X)               :      -12.041786856515 Eh       
E(C)               :       -0.439667556255 Eh       
E(XC)              :      -12.481454412770 Eh       
DFET-embed. en.    :        0.000000000000 Eh       

---------------
SCF CONVERGENCE
---------------

  Last Energy change         ...   -3.0838e-12  Tolerance :   1.0000e-09
  Last MAX-Density change    ...    2.4771e-05  Tolerance :   1.0000e-08
  Last RMS-Density change    ...    2.8929e-07  Tolerance :   1.0000e-09
  Last DIIS Error            ...    5.4384e-07  Tolerance :   1.0000e-08

             **** THE GBW FILE WAS UPDATED (hnc_pbe.gbw) ****
             **** DENSITY FILE WAS UPDATED (hnc_pbe.scfp.tmp) ****
             **** ENERGY FILE WAS UPDATED (hnc_pbe.en.tmp) ****
----------------------
UHF SPIN CONTAMINATION
----------------------

Warning: in a DFT calculation there is little theoretical justification to 
         calculate <S**2> as in Hartree-Fock theory. We will do it anyways
         but you should keep in mind that the values have only limited relevance

Expectation value of <S**2>     :    -0.000000
Ideal value S*(S+1) for S=0.0   :     0.000000
Deviation                       :    -0.000000

----------------
ORBITAL ENERGIES
----------------
                 SPIN UP ORBITALS
  NO   OCC          E(Eh)            E(eV) 
   0   1.0000     -14.030788      -381.7971 
   1   1.0000      -9.943137      -270.5665 
   2   1.0000      -0.874647       -23.8004 
   3   1.0000      -0.619349       -16.8533 
   4   1.0000      -0.347488        -9.4556 
   5   1.0000      -0.347488        -9.4556 
   6   1.0000      -0.280326        -7.6280 
   7   0.0000      -0.036611        -0.9962 
   8   0.0000      -0.036611        -0.9962 
   9   0.0000      -0.023745        -0.6461 
  10   0.0000       0.011921         0.3244 
  11   0.0000       0.017894         0.4869 
  12   0.0000       0.017894         0.4869 
  13   0.0000       0.031632         0.8607 
  14   0.0000       0.036153         0.9838 
  15   0.0000       0.047216         1.2848 
  16   0.0000       0.047216         1.2848 
  17   0.0000       0.071558         1.9472 
  18   0.0000       0.082603         2.2477 
  19   0.0000       0.082603         2.2477 
  20   0.0000       0.085285         2.3207 
  21   0.0000       0.086229         2.3464 
  22   0.0000       0.086229         2.3464 
  23   0.0000       0.116635         3.1738 
  24   0.0000       0.116635         3.1738 
  25   0.0000       0.119449         3.2504 
  26   0.0000       0.120724         3.2851 
  27   0.0000       0.139763         3.8031 
  28   0.0000       0.139763         3.8031 
  29   0.0000       0.166702         4.5362 
  30   0.0000       0.168060         4.5732 
  31   0.0000       0.168060         4.5732 
  32   0.0000       0.171420         4.6646 
  33   0.0000       0.190059         5.1718 
  34   0.0000       0.190059         5.1718 
  35   0.0000       0.219305         5.9676 
  36   0.0000       0.219305         5.9676 
  37   0.0000       0.221998         6.0409 
  38   0.0000       0.221998         6.0409 
  39   0.0000       0.224403         6.1063 
  40   0.0000       0.240785         6.5521 
  41   0.0000       0.240786         6.5521 
  42   0.0000       0.241156         6.5622 
  43   0.0000       0.241156         6.5622 
  44   0.0000       0.263843         7.1795 
  45   0.0000       0.263843         7.1795 
  46   0.0000       0.268260         7.2997 
  47   0.0000       0.281705         7.6656 
  48   0.0000       0.304057         8.2738 
  49   0.0000       0.304293         8.2802 
  50   0.0000       0.304293         8.2802 
  51   0.0000       0.305392         8.3101 
  52   0.0000       0.305392         8.3101 
  53   0.0000       0.328147         8.9293 
  54   0.0000       0.346307         9.4235 
  55   0.0000       0.346308         9.4235 
  56   0.0000       0.369357        10.0507 
  57   0.0000       0.372259        10.1297 
  58   0.0000       0.372259        10.1297 
  59   0.0000       0.378732        10.3058 
  60   0.0000       0.378733        10.3058 
  61   0.0000       0.419746        11.4219 
  62   0.0000       0.419746        11.4219 
  63   0.0000       0.425552        11.5799 
  64   0.0000       0.425552        11.5799 
  65   0.0000       0.453848        12.3498 
  66   0.0000       0.453848        12.3498 
  67   0.0000       0.456399        12.4192 
  68   0.0000       0.456399        12.4192 
  69   0.0000       0.456677        12.4268 
  70   0.0000       0.469506        12.7759 
  71   0.0000       0.469506        12.7759 
  72   0.0000       0.484542        13.1851 
  73   0.0000       0.484542        13.1851 
  74   0.0000       0.486790        13.2462 
  75   0.0000       0.486790        13.2462 
  76   0.0000       0.491448        13.3730 
  77   0.0000       0.500658        13.6236 
  78   0.0000       0.504870        13.7382 
  79   0.0000       0.504870        13.7382 
  80   0.0000       0.523694        14.2504 
  81   0.0000       0.523694        14.2504 
  82   0.0000       0.537432        14.6243 
  83   0.0000       0.537432        14.6243 
  84   0.0000       0.555910        15.1271 
  85   0.0000       0.574651        15.6371 
  86   0.0000       0.574651        15.6371 
  87   0.0000       0.577120        15.7042 
  88   0.0000       0.587758        15.9937 
  89   0.0000       0.587758        15.9937 
  90   0.0000       0.596114        16.2211 
  91   0.0000       0.602364        16.3912 
  92   0.0000       0.602364        16.3912 
  93   0.0000       0.637452        17.3460 
  94   0.0000       0.637452        17.3460 
  95   0.0000       0.644061        17.5258 
  96   0.0000       0.644064        17.5259 
  97   0.0000       0.704180        19.1617 
  98   0.0000       0.704180        19.1617 
  99   0.0000       0.720656        19.6101 
 100   0.0000       0.744199        20.2507 
 101   0.0000       0.744200        20.2507 
 102   0.0000       0.751412        20.4470 
 103   0.0000       0.751412        20.4470 
 104   0.0000       0.753693        20.5090 
 105   0.0000       0.783313        21.3150 
 106   0.0000       0.783315        21.3151 
 107   0.0000       0.783640        21.3239 
 108   0.0000       0.793715        21.5981 
 109   0.0000       0.793715        21.5981 
 110   0.0000       0.795015        21.6334 
 111   0.0000       0.795016        21.6335 
 112   0.0000       0.804469        21.8907 
 113   0.0000       0.804469        21.8907 
 114   0.0000       0.831627        22.6297 
 115   0.0000       0.831628        22.6297 
 116   0.0000       0.838827        22.8256 
 117   0.0000       0.838860        22.8265 
 118   0.0000       0.838861        22.8266 
 119   0.0000       0.868227        23.6257 
 120   0.0000       0.868227        23.6257 
 121   0.0000       0.908439        24.7199 
 122   0.0000       0.908439        24.7199 
 123   0.0000       0.913172        24.8487 
 124   0.0000       0.943159        25.6647 
 125   0.0000       0.955120        25.9901 
 126   0.0000       0.955120        25.9901 
 127   0.0000       0.964573        26.2474 
 128   0.0000       0.964573        26.2474 
 129   0.0000       0.979452        26.6523 
 130   0.0000       0.979452        26.6523 
 131   0.0000       0.995172        27.0800 
 132   0.0000       0.995173        27.0800 
 133   0.0000       1.018510        27.7151 
 134   0.0000       1.018512        27.7151 
 135   0.0000       1.033744        28.1296 
 136   0.0000       1.034098        28.1392 
 137   0.0000       1.034098        28.1392 
 138   0.0000       1.112809        30.2811 
 139   0.0000       1.139701        31.0128 
 140   0.0000       1.139701        31.0128 
 141   0.0000       1.185532        32.2600 
 142   0.0000       1.254293        34.1310 
 143   0.0000       1.351730        36.7824 
 144   0.0000       1.351730        36.7824 
 145   0.0000       1.404928        38.2300 
 146   0.0000       1.404928        38.2300 
 147   0.0000       1.461114        39.7589 
 148   0.0000       1.517070        41.2816 
 149   0.0000       1.517071        41.2816 
 150   0.0000       1.555502        42.3274 
 151   0.0000       1.555502        42.3274 
 152   0.0000       1.577607        42.9289 
 153   0.0000       1.577607        42.9289 
 154   0.0000       1.580163        42.9984 
 155   0.0000       1.616758        43.9942 
 156   0.0000       1.644086        44.7379 
 157   0.0000       1.644086        44.7379 
 158   0.0000       1.755952        47.7819 
 159   0.0000       1.755952        47.7819 
 160   0.0000       1.818683        49.4889 
 161   0.0000       1.883204        51.2446 
 162   0.0000       1.883204        51.2446 
 163   0.0000       1.898115        51.6503 
 164   0.0000       1.898117        51.6504 
 165   0.0000       1.953404        53.1548 
 166   0.0000       1.968628        53.5691 
 167   0.0000       1.968628        53.5691 
 168   0.0000       2.083355        56.6910 
 169   0.0000       2.083355        56.6910 
 170   0.0000       2.249227        61.2046 
 171   0.0000       2.301454        62.6257 
 172   0.0000       2.301454        62.6257 
 173   0.0000       2.315728        63.0142 
 174   0.0000       2.392563        65.1050 
 175   0.0000       2.392564        65.1050 
 176   0.0000       2.501480        68.0687 
 177   0.0000       2.595293        70.6215 
 178   0.0000       2.595293        70.6215 
 179   0.0000       2.724205        74.1294 
 180   0.0000       2.829620        76.9979 
 181   0.0000       2.829620        76.9979 
 182   0.0000       2.845501        77.4300 
 183   0.0000       2.954338        80.3916 
 184   0.0000       3.054647        83.1212 
 185   0.0000       3.054648        83.1212 
 186   0.0000       3.057996        83.2123 
 187   0.0000       3.057996        83.2123 
 188   0.0000       3.307151        89.9922 
 189   0.0000       3.307152        89.9922 
 190   0.0000       3.394346        92.3648 
 191   0.0000       3.498995        95.2125 
 192   0.0000       3.498995        95.2125 
 193   0.0000       3.580904        97.4414 
 194   0.0000       3.628111        98.7259 
 195   0.0000       3.628111        98.7259 
 196   0.0000       3.629330        98.7591 
 197   0.0000       3.629330        98.7591 
 198   0.0000       3.700294       100.6901 
 199   0.0000       3.787098       103.0522 
 200   0.0000       3.787098       103.0522 
 201   0.0000       4.019830       109.3851 
 202   0.0000       4.019830       109.3851 
 203   0.0000       4.068414       110.7072 
 204   0.0000       4.068415       110.7072 
 205   0.0000       4.123662       112.2105 
 206   0.0000       4.123663       112.2106 
 207   0.0000       4.177642       113.6794 
 208   0.0000       4.303738       117.1107 
 209   0.0000       4.303738       117.1107 
 210   0.0000       4.339831       118.0928 
 211   0.0000       4.339831       118.0928 
 212   0.0000       4.433015       120.6285 
 213   0.0000       4.433016       120.6285 
 214   0.0000       4.522651       123.0676 
 215   0.0000       4.522651       123.0676 
 216   0.0000       4.539453       123.5248 
 217   0.0000       4.672326       127.1405 
 218   0.0000       4.672326       127.1405 
 219   0.0000       4.716218       128.3348 
 220   0.0000       4.716218       128.3348 
 221   0.0000       4.776931       129.9869 
 222   0.0000       4.876647       132.7003 
 223   0.0000       4.876648       132.7003 
 224   0.0000       4.998360       136.0123 
 225   0.0000       4.998362       136.0123 
 226   0.0000       5.141904       139.9183 
 227   0.0000       5.141904       139.9183 
 228   0.0000       5.142730       139.9408 
 229   0.0000       5.256966       143.0493 
 230   0.0000       5.567745       151.5061 
 231   0.0000       5.567745       151.5061 
 232   0.0000       5.706085       155.2705 
 233   0.0000       5.771413       157.0481 
 234   0.0000       5.771414       157.0482 
 235   0.0000       5.803954       157.9336 
 236   0.0000       5.803954       157.9336 
 237   0.0000       5.994306       163.1134 
 238   0.0000       6.187411       168.3680 
 239   0.0000       6.187411       168.3680 
 240   0.0000       6.251099       170.1011 
 241   0.0000       6.446072       175.4065 
 242   0.0000       6.457855       175.7272 
 243   0.0000       6.457855       175.7272 
 244   0.0000       6.617972       180.0842 
 245   0.0000       6.617972       180.0842 
 246   0.0000       6.774427       184.3415 
 247   0.0000       6.774429       184.3416 
 248   0.0000       7.089799       192.9232 
 249   0.0000       7.424296       202.0254 
 250   0.0000       7.447249       202.6500 
 251   0.0000       7.447249       202.6500 
 252   0.0000       7.501519       204.1267 
 253   0.0000       7.501519       204.1267 
 254   0.0000       8.349877       227.2117 
 255   0.0000       8.579652       233.4642 
 256   0.0000       8.579652       233.4642 
 257   0.0000       8.745430       237.9753 
 258   0.0000       8.745430       237.9753 
 259   0.0000       8.915341       242.5988 
 260   0.0000       8.945650       243.4235 
 261   0.0000       8.945651       243.4235 
 262   0.0000       9.397928       255.7306 
 263   0.0000       9.397928       255.7306 
 264   0.0000       9.818643       267.1789 
 265   0.0000      10.246181       278.8128 
 266   0.0000      10.246184       278.8128 
 267   0.0000      10.320052       280.8229 
 268   0.0000      10.320052       280.8229 
 269   0.0000      10.413128       283.3556 
 270   0.0000      10.432280       283.8768 
 271   0.0000      10.432280       283.8768 
 272   0.0000      10.447198       284.2827 
 273   0.0000      10.447198       284.2827 
 274   0.0000      10.507134       285.9137 
 275   0.0000      10.507135       285.9137 
 276   0.0000      10.761681       292.8402 
 277   0.0000      10.761681       292.8402 
 278   0.0000      10.887144       296.2542 
 279   0.0000      10.932215       297.4807 
 280   0.0000      10.932215       297.4807 
 281   0.0000      11.130072       302.8647 
 282   0.0000      11.130072       302.8647 
 283   0.0000      11.272836       306.7495 
 284   0.0000      11.272837       306.7495 
 285   0.0000      11.354053       308.9595 
 286   0.0000      11.354053       308.9595 
 287   0.0000      11.471020       312.1423 
 288   0.0000      11.570165       314.8402 
 289   0.0000      11.570165       314.8402 
 290   0.0000      11.639320       316.7220 
 291   0.0000      11.639321       316.7220 
 292   0.0000      11.696793       318.2859 
 293   0.0000      11.696794       318.2859 
 294   0.0000      11.802004       321.1489 
 295   0.0000      11.802010       321.1490 
 296   0.0000      11.813479       321.4611 
 297   0.0000      11.858494       322.6860 
 298   0.0000      11.858494       322.6860 
 299   0.0000      11.967172       325.6433 
 300   0.0000      11.967172       325.6433 
 301   0.0000      12.153258       330.7070 
 302   0.0000      12.153258       330.7070 
 303   0.0000      12.208471       332.2094 
 304   0.0000      12.208471       332.2094 
 305   0.0000      12.258741       333.5773 
 306   0.0000      12.384089       336.9882 
 307   0.0000      12.384090       336.9882 
 308   0.0000      12.983482       353.2985 
 309   0.0000      13.013636       354.1190 
 310   0.0000      13.013636       354.1190 
 311   0.0000      13.082566       355.9947 
 312   0.0000      13.082566       355.9947 
 313   0.0000      13.256423       360.7256 
 314   0.0000      13.256424       360.7256 
 315   0.0000      13.473185       366.6240 
 316   0.0000      13.963710       379.9719 
 317   0.0000      14.063538       382.6883 
 318   0.0000      14.063538       382.6883 
 319   0.0000      14.225226       387.0881 
 320   0.0000      14.225229       387.0882 
 321   0.0000      14.539874       395.6501 
 322   0.0000      14.539874       395.6501 
 323   0.0000      14.580609       396.7585 
 324   0.0000      14.580609       396.7585 
 325   0.0000      14.762880       401.7184 
 326   0.0000      15.421296       419.6348 
 327   0.0000      15.421301       419.6349 
 328   0.0000      15.726733       427.9462 
 329   0.0000      15.726734       427.9462 
 330   0.0000      16.175545       440.1590 
 331   0.0000      16.175545       440.1590 
 332   0.0000      16.207012       441.0152 
 333   0.0000      16.327704       444.2994 
 334   0.0000      16.671779       453.6622 
 335   0.0000      16.671798       453.6627 
 336   0.0000      16.750081       455.7929 
 337   0.0000      16.917562       460.3503 
 338   0.0000      16.917569       460.3505 
 339   0.0000      17.471583       475.4259 
 340   0.0000      17.471583       475.4259 
 341   0.0000      17.898464       487.0420 
 342   0.0000      17.898464       487.0420 
 343   0.0000      18.152463       493.9536 
 344   0.0000      18.152463       493.9536 
 345   0.0000      19.047099       518.2979 
 346   0.0000      19.462430       529.5996 
 347   0.0000      19.462430       529.5996 
 348   0.0000      19.805774       538.9425 
 349   0.0000      19.805780       538.9427 
 350   0.0000      20.472538       557.0861 
 351   0.0000      20.796067       565.8898 
 352   0.0000      22.178070       603.4960 
 353   0.0000      22.178070       603.4960 
 354   0.0000      22.851747       621.8276 
 355   0.0000      23.765611       646.6952 
 356   0.0000      23.765611       646.6952 
 357   0.0000      25.409462       691.4266 
 358   0.0000      26.328057       716.4229 
 359   0.0000      26.328057       716.4229 
 360   0.0000      26.545538       722.3408 
 361   0.0000      29.754150       809.6516 
 362   0.0000      31.913342       868.4062 
 363   0.0000      31.913362       868.4067 
 364   0.0000      33.057089       899.5291 
 365   0.0000      33.057089       899.5291 
 366   0.0000      34.548128       940.1024 
 367   0.0000      41.736199      1135.6997 
 368   0.0000      47.707564      1298.1888 
 369   0.0000      47.707588      1298.1895 
 370   0.0000      48.565846      1321.5439 
 371   0.0000      48.565846      1321.5439 
 372   0.0000      51.009459      1388.0379 
 373   0.0000      74.700477      2032.7033 
 374   0.0000      91.071318      2478.1765 
 375   0.0000      91.071318      2478.1765 
 376   0.0000      93.079103      2532.8111 
 377   0.0000     106.702360      2903.5188 

                 SPIN DOWN ORBITALS
  NO   OCC          E(Eh)            E(eV) 
   0   1.0000     -14.030788      -381.7971 
   1   1.0000      -9.943137      -270.5665 
   2   1.0000      -0.874647       -23.8004 
   3   1.0000      -0.619349       -16.8533 
   4   1.0000      -0.347488        -9.4556 
   5   1.0000      -0.347488        -9.4556 
   6   1.0000      -0.280326        -7.6280 
   7   0.0000      -0.036611        -0.9962 
   8   0.0000      -0.036611        -0.9962 
   9   0.0000      -0.023745        -0.6461 
  10   0.0000       0.011921         0.3244 
  11   0.0000       0.017894         0.4869 
  12   0.0000       0.017894         0.4869 
  13   0.0000       0.031632         0.8607 
  14   0.0000       0.036153         0.9838 
  15   0.0000       0.047216         1.2848 
  16   0.0000       0.047216         1.2848 
  17   0.0000       0.071558         1.9472 
  18   0.0000       0.082603         2.2477 
  19   0.0000       0.082603         2.2477 
  20   0.0000       0.085285         2.3207 
  21   0.0000       0.086229         2.3464 
  22   0.0000       0.086229         2.3464 
  23   0.0000       0.116635         3.1738 
  24   0.0000       0.116635         3.1738 
  25   0.0000       0.119449         3.2504 
  26   0.0000       0.120724         3.2851 
  27   0.0000       0.139763         3.8031 
  28   0.0000       0.139763         3.8031 
  29   0.0000       0.166702         4.5362 
  30   0.0000       0.168060         4.5732 
  31   0.0000       0.168060         4.5732 
  32   0.0000       0.171420         4.6646 
  33   0.0000       0.190059         5.1718 
  34   0.0000       0.190059         5.1718 
  35   0.0000       0.219305         5.9676 
  36   0.0000       0.219305         5.9676 
  37   0.0000       0.221998         6.0409 
  38   0.0000       0.221998         6.0409 
  39   0.0000       0.224403         6.1063 
  40   0.0000       0.240785         6.5521 
  41   0.0000       0.240786         6.5521 
  42   0.0000       0.241156         6.5622 
  43   0.0000       0.241156         6.5622 
  44   0.0000       0.263843         7.1795 
  45   0.0000       0.263843         7.1795 
  46   0.0000       0.268260         7.2997 
  47   0.0000       0.281705         7.6656 
  48   0.0000       0.304057         8.2738 
  49   0.0000       0.304293         8.2802 
  50   0.0000       0.304293         8.2802 
  51   0.0000       0.305392         8.3101 
  52   0.0000       0.305392         8.3101 
  53   0.0000       0.328147         8.9293 
  54   0.0000       0.346307         9.4235 
  55   0.0000       0.346308         9.4235 
  56   0.0000       0.369357        10.0507 
  57   0.0000       0.372259        10.1297 
  58   0.0000       0.372259        10.1297 
  59   0.0000       0.378732        10.3058 
  60   0.0000       0.378733        10.3058 
  61   0.0000       0.419746        11.4219 
  62   0.0000       0.419746        11.4219 
  63   0.0000       0.425552        11.5799 
  64   0.0000       0.425552        11.5799 
  65   0.0000       0.453848        12.3498 
  66   0.0000       0.453848        12.3498 
  67   0.0000       0.456399        12.4192 
  68   0.0000       0.456399        12.4192 
  69   0.0000       0.456677        12.4268 
  70   0.0000       0.469506        12.7759 
  71   0.0000       0.469506        12.7759 
  72   0.0000       0.484542        13.1851 
  73   0.0000       0.484542        13.1851 
  74   0.0000       0.486790        13.2462 
  75   0.0000       0.486790        13.2462 
  76   0.0000       0.491448        13.3730 
  77   0.0000       0.500658        13.6236 
  78   0.0000       0.504870        13.7382 
  79   0.0000       0.504870        13.7382 
  80   0.0000       0.523694        14.2504 
  81   0.0000       0.523694        14.2504 
  82   0.0000       0.537432        14.6243 
  83   0.0000       0.537432        14.6243 
  84   0.0000       0.555910        15.1271 
  85   0.0000       0.574651        15.6371 
  86   0.0000       0.574651        15.6371 
  87   0.0000       0.577120        15.7042 
  88   0.0000       0.587758        15.9937 
  89   0.0000       0.587758        15.9937 
  90   0.0000       0.596114        16.2211 
  91   0.0000       0.602364        16.3912 
  92   0.0000       0.602364        16.3912 
  93   0.0000       0.637452        17.3460 
  94   0.0000       0.637452        17.3460 
  95   0.0000       0.644061        17.5258 
  96   0.0000       0.644064        17.5259 
  97   0.0000       0.704180        19.1617 
  98   0.0000       0.704180        19.1617 
  99   0.0000       0.720656        19.6101 
 100   0.0000       0.744199        20.2507 
 101   0.0000       0.744200        20.2507 
 102   0.0000       0.751412        20.4470 
 103   0.0000       0.751412        20.4470 
 104   0.0000       0.753693        20.5090 
 105   0.0000       0.783313        21.3150 
 106   0.0000       0.783315        21.3151 
 107   0.0000       0.783640        21.3239 
 108   0.0000       0.793715        21.5981 
 109   0.0000       0.793715        21.5981 
 110   0.0000       0.795015        21.6334 
 111   0.0000       0.795016        21.6335 
 112   0.0000       0.804469        21.8907 
 113   0.0000       0.804469        21.8907 
 114   0.0000       0.831627        22.6297 
 115   0.0000       0.831628        22.6297 
 116   0.0000       0.838827        22.8256 
 117   0.0000       0.838860        22.8265 
 118   0.0000       0.838861        22.8266 
 119   0.0000       0.868227        23.6257 
 120   0.0000       0.868227        23.6257 
 121   0.0000       0.908439        24.7199 
 122   0.0000       0.908439        24.7199 
 123   0.0000       0.913172        24.8487 
 124   0.0000       0.943159        25.6647 
 125   0.0000       0.955120        25.9901 
 126   0.0000       0.955120        25.9901 
 127   0.0000       0.964573        26.2474 
 128   0.0000       0.964573        26.2474 
 129   0.0000       0.979452        26.6523 
 130   0.0000       0.979452        26.6523 
 131   0.0000       0.995172        27.0800 
 132   0.0000       0.995173        27.0800 
 133   0.0000       1.018510        27.7151 
 134   0.0000       1.018512        27.7151 
 135   0.0000       1.033744        28.1296 
 136   0.0000       1.034098        28.1392 
 137   0.0000       1.034098        28.1392 
 138   0.0000       1.112809        30.2811 
 139   0.0000       1.139701        31.0128 
 140   0.0000       1.139701        31.0128 
 141   0.0000       1.185532        32.2600 
 142   0.0000       1.254293        34.1310 
 143   0.0000       1.351730        36.7824 
 144   0.0000       1.351730        36.7824 
 145   0.0000       1.404928        38.2300 
 146   0.0000       1.404928        38.2300 
 147   0.0000       1.461114        39.7589 
 148   0.0000       1.517070        41.2816 
 149   0.0000       1.517071        41.2816 
 150   0.0000       1.555502        42.3274 
 151   0.0000       1.555502        42.3274 
 152   0.0000       1.577607        42.9289 
 153   0.0000       1.577607        42.9289 
 154   0.0000       1.580163        42.9984 
 155   0.0000       1.616758        43.9942 
 156   0.0000       1.644086        44.7379 
 157   0.0000       1.644086        44.7379 
 158   0.0000       1.755952        47.7819 
 159   0.0000       1.755952        47.7819 
 160   0.0000       1.818683        49.4889 
 161   0.0000       1.883204        51.2446 
 162   0.0000       1.883204        51.2446 
 163   0.0000       1.898115        51.6503 
 164   0.0000       1.898117        51.6504 
 165   0.0000       1.953404        53.1548 
 166   0.0000       1.968628        53.5691 
 167   0.0000       1.968628        53.5691 
 168   0.0000       2.083355        56.6910 
 169   0.0000       2.083355        56.6910 
 170   0.0000       2.249227        61.2046 
 171   0.0000       2.301454        62.6257 
 172   0.0000       2.301454        62.6257 
 173   0.0000       2.315728        63.0142 
 174   0.0000       2.392563        65.1050 
 175   0.0000       2.392564        65.1050 
 176   0.0000       2.501480        68.0687 
 177   0.0000       2.595293        70.6215 
 178   0.0000       2.595293        70.6215 
 179   0.0000       2.724205        74.1294 
 180   0.0000       2.829620        76.9979 
 181   0.0000       2.829620        76.9979 
 182   0.0000       2.845501        77.4300 
 183   0.0000       2.954338        80.3916 
 184   0.0000       3.054647        83.1212 
 185   0.0000       3.054648        83.1212 
 186   0.0000       3.057996        83.2123 
 187   0.0000       3.057996        83.2123 
 188   0.0000       3.307151        89.9922 
 189   0.0000       3.307152        89.9922 
 190   0.0000       3.394346        92.3648 
 191   0.0000       3.498995        95.2125 
 192   0.0000       3.498995        95.2125 
 193   0.0000       3.580904        97.4414 
 194   0.0000       3.628111        98.7259 
 195   0.0000       3.628111        98.7259 
 196   0.0000       3.629330        98.7591 
 197   0.0000       3.629330        98.7591 
 198   0.0000       3.700294       100.6901 
 199   0.0000       3.787098       103.0522 
 200   0.0000       3.787098       103.0522 
 201   0.0000       4.019830       109.3851 
 202   0.0000       4.019830       109.3851 
 203   0.0000       4.068414       110.7072 
 204   0.0000       4.068415       110.7072 
 205   0.0000       4.123662       112.2105 
 206   0.0000       4.123663       112.2106 
 207   0.0000       4.177642       113.6794 
 208   0.0000       4.303738       117.1107 
 209   0.0000       4.303738       117.1107 
 210   0.0000       4.339831       118.0928 
 211   0.0000       4.339831       118.0928 
 212   0.0000       4.433015       120.6285 
 213   0.0000       4.433016       120.6285 
 214   0.0000       4.522651       123.0676 
 215   0.0000       4.522651       123.0676 
 216   0.0000       4.539453       123.5248 
 217   0.0000       4.672326       127.1405 
 218   0.0000       4.672326       127.1405 
 219   0.0000       4.716218       128.3348 
 220   0.0000       4.716218       128.3348 
 221   0.0000       4.776931       129.9869 
 222   0.0000       4.876647       132.7003 
 223   0.0000       4.876648       132.7003 
 224   0.0000       4.998360       136.0123 
 225   0.0000       4.998362       136.0123 
 226   0.0000       5.141904       139.9183 
 227   0.0000       5.141904       139.9183 
 228   0.0000       5.142730       139.9408 
 229   0.0000       5.256966       143.0493 
 230   0.0000       5.567745       151.5061 
 231   0.0000       5.567745       151.5061 
 232   0.0000       5.706085       155.2705 
 233   0.0000       5.771413       157.0481 
 234   0.0000       5.771414       157.0482 
 235   0.0000       5.803954       157.9336 
 236   0.0000       5.803954       157.9336 
 237   0.0000       5.994306       163.1134 
 238   0.0000       6.187411       168.3680 
 239   0.0000       6.187411       168.3680 
 240   0.0000       6.251099       170.1011 
 241   0.0000       6.446072       175.4065 
 242   0.0000       6.457855       175.7272 
 243   0.0000       6.457855       175.7272 
 244   0.0000       6.617972       180.0842 
 245   0.0000       6.617972       180.0842 
 246   0.0000       6.774427       184.3415 
 247   0.0000       6.774429       184.3416 
 248   0.0000       7.089799       192.9232 
 249   0.0000       7.424296       202.0254 
 250   0.0000       7.447249       202.6500 
 251   0.0000       7.447249       202.6500 
 252   0.0000       7.501519       204.1267 
 253   0.0000       7.501519       204.1267 
 254   0.0000       8.349877       227.2117 
 255   0.0000       8.579652       233.4642 
 256   0.0000       8.579652       233.4642 
 257   0.0000       8.745430       237.9753 
 258   0.0000       8.745430       237.9753 
 259   0.0000       8.915341       242.5988 
 260   0.0000       8.945650       243.4235 
 261   0.0000       8.945651       243.4235 
 262   0.0000       9.397928       255.7306 
 263   0.0000       9.397928       255.7306 
 264   0.0000       9.818643       267.1789 
 265   0.0000      10.246181       278.8128 
 266   0.0000      10.246184       278.8128 
 267   0.0000      10.320052       280.8229 
 268   0.0000      10.320052       280.8229 
 269   0.0000      10.413128       283.3556 
 270   0.0000      10.432280       283.8768 
 271   0.0000      10.432280       283.8768 
 272   0.0000      10.447198       284.2827 
 273   0.0000      10.447198       284.2827 
 274   0.0000      10.507134       285.9137 
 275   0.0000      10.507135       285.9137 
 276   0.0000      10.761681       292.8402 
 277   0.0000      10.761681       292.8402 
 278   0.0000      10.887144       296.2542 
 279   0.0000      10.932215       297.4807 
 280   0.0000      10.932215       297.4807 
 281   0.0000      11.130072       302.8647 
 282   0.0000      11.130072       302.8647 
 283   0.0000      11.272836       306.7495 
 284   0.0000      11.272837       306.7495 
 285   0.0000      11.354053       308.9595 
 286   0.0000      11.354053       308.9595 
 287   0.0000      11.471020       312.1423 
 288   0.0000      11.570165       314.8402 
 289   0.0000      11.570165       314.8402 
 290   0.0000      11.639320       316.7220 
 291   0.0000      11.639321       316.7220 
 292   0.0000      11.696793       318.2859 
 293   0.0000      11.696794       318.2859 
 294   0.0000      11.802004       321.1489 
 295   0.0000      11.802010       321.1490 
 296   0.0000      11.813479       321.4611 
 297   0.0000      11.858494       322.6860 
 298   0.0000      11.858494       322.6860 
 299   0.0000      11.967172       325.6433 
 300   0.0000      11.967172       325.6433 
 301   0.0000      12.153258       330.7070 
 302   0.0000      12.153258       330.7070 
 303   0.0000      12.208471       332.2094 
 304   0.0000      12.208471       332.2094 
 305   0.0000      12.258741       333.5773 
 306   0.0000      12.384089       336.9882 
 307   0.0000      12.384090       336.9882 
 308   0.0000      12.983482       353.2985 
 309   0.0000      13.013636       354.1190 
 310   0.0000      13.013636       354.1190 
 311   0.0000      13.082566       355.9947 
 312   0.0000      13.082566       355.9947 
 313   0.0000      13.256423       360.7256 
 314   0.0000      13.256424       360.7256 
 315   0.0000      13.473185       366.6240 
 316   0.0000      13.963710       379.9719 
 317   0.0000      14.063538       382.6883 
 318   0.0000      14.063538       382.6883 
 319   0.0000      14.225226       387.0881 
 320   0.0000      14.225229       387.0882 
 321   0.0000      14.539874       395.6501 
 322   0.0000      14.539874       395.6501 
 323   0.0000      14.580609       396.7585 
 324   0.0000      14.580609       396.7585 
 325   0.0000      14.762880       401.7184 
 326   0.0000      15.421296       419.6348 
 327   0.0000      15.421301       419.6349 
 328   0.0000      15.726733       427.9462 
 329   0.0000      15.726734       427.9462 
 330   0.0000      16.175545       440.1590 
 331   0.0000      16.175545       440.1590 
 332   0.0000      16.207012       441.0152 
 333   0.0000      16.327704       444.2994 
 334   0.0000      16.671779       453.6622 
 335   0.0000      16.671798       453.6627 
 336   0.0000      16.750081       455.7929 
 337   0.0000      16.917562       460.3503 
 338   0.0000      16.917569       460.3505 
 339   0.0000      17.471583       475.4259 
 340   0.0000      17.471583       475.4259 
 341   0.0000      17.898464       487.0420 
 342   0.0000      17.898464       487.0420 
 343   0.0000      18.152463       493.9536 
 344   0.0000      18.152463       493.9536 
 345   0.0000      19.047099       518.2979 
 346   0.0000      19.462430       529.5996 
 347   0.0000      19.462430       529.5996 
 348   0.0000      19.805774       538.9425 
 349   0.0000      19.805780       538.9427 
 350   0.0000      20.472538       557.0861 
 351   0.0000      20.796067       565.8898 
 352   0.0000      22.178070       603.4960 
 353   0.0000      22.178070       603.4960 
 354   0.0000      22.851747       621.8276 
 355   0.0000      23.765611       646.6952 
 356   0.0000      23.765611       646.6952 
 357   0.0000      25.409462       691.4266 
 358   0.0000      26.328057       716.4229 
 359   0.0000      26.328057       716.4229 
 360   0.0000      26.545538       722.3408 
 361   0.0000      29.754150       809.6516 
 362   0.0000      31.913342       868.4062 
 363   0.0000      31.913362       868.4067 
 364   0.0000      33.057089       899.5291 
 365   0.0000      33.057089       899.5291 
 366   0.0000      34.548128       940.1024 
 367   0.0000      41.736199      1135.6997 
 368   0.0000      47.707564      1298.1888 
 369   0.0000      47.707588      1298.1895 
 370   0.0000      48.565846      1321.5439 
 371   0.0000      48.565846      1321.5439 
 372   0.0000      51.009459      1388.0379 
 373   0.0000      74.700477      2032.7033 
 374   0.0000      91.071318      2478.1765 
 375   0.0000      91.071318      2478.1765 
 376   0.0000      93.079103      2532.8111 
 377   0.0000     106.702360      2903.5188 

                    ********************************
                    * MULLIKEN POPULATION ANALYSIS *
                    ********************************

--------------------------------------------
MULLIKEN ATOMIC CHARGES AND SPIN POPULATIONS
--------------------------------------------
   0 C :   -0.167600    0.000000
   1 N :   -0.082580   -0.000000
   2 H :    0.250180    0.000000
Sum of atomic charges         :   -0.0000000
Sum of atomic spin populations:    0.0000000

-----------------------------------------------------
MULLIKEN REDUCED ORBITAL CHARGES AND SPIN POPULATIONS
-----------------------------------------------------
CHARGE
  0 C s       :     3.582964  s :     3.582964
      pz      :     1.226766  p :     2.475363
      px      :     0.624299
      py      :     0.624299
      dz2     :     0.030561  d :     0.097571
      dxz     :     0.033505
      dyz     :     0.033505
      dx2y2   :     0.000000
      dxy     :     0.000000
      f0      :     0.002825  f :     0.010274
      f+1     :     0.003725
      f-1     :     0.003725
      f+2     :     0.000000
      f-2     :     0.000000
      f+3     :     0.000000
      f-3     :     0.000000
      g0      :     0.000386  g :     0.001372
      g+1     :     0.000493
      g-1     :     0.000493
      g+2     :    -0.000000
      g-2     :     0.000000
      g+3     :     0.000000
      g-3     :     0.000000
      g+4     :     0.000000
      g-4     :     0.000000
      h0      :     0.000033  h :     0.000056
      h+1     :     0.000012
      h-1     :     0.000012
      h+2     :    -0.000000
      h-2     :    -0.000000
      h+3     :     0.000000
      h-3     :     0.000000
      h+4     :     0.000000
      h-4     :    -0.000000
      h+5     :     0.000000
      h-5     :     0.000000
  1 N s       :     3.464286  s :     3.464286
      pz      :     0.920330  p :     3.569268
      px      :     1.324469
      py      :     1.324469
      dz2     :     0.047238  d :     0.048173
      dxz     :     0.000467
      dyz     :     0.000467
      dx2y2   :    -0.000000
      dxy     :     0.000000
      f0      :    -0.000567  f :     0.001616
      f+1     :     0.001092
      f-1     :     0.001092
      f+2     :     0.000000
      f-2     :    -0.000000
      f+3     :     0.000000
      f-3     :     0.000000
      g0      :    -0.000312  g :    -0.000705
      g+1     :    -0.000197
      g-1     :    -0.000197
      g+2     :     0.000000
      g-2     :    -0.000000
      g+3     :     0.000000
      g-3     :     0.000000
      g+4     :     0.000000
      g-4     :    -0.000000
      h0      :    -0.000053  h :    -0.000057
      h+1     :    -0.000002
      h-1     :    -0.000002
      h+2     :     0.000000
      h-2     :    -0.000000
      h+3     :    -0.000000
      h-3     :    -0.000000
      h+4     :     0.000000
      h-4     :    -0.000000
      h+5     :     0.000000
      h-5     :     0.000000
  2 H s       :     0.708307  s :     0.708307
      pz      :     0.020325  p :     0.053829
      px      :     0.016752
      py      :     0.016752
      dz2     :    -0.001136  d :    -0.005830
      dxz     :    -0.002347
      dyz     :    -0.002347
      dx2y2   :     0.000000
      dxy     :     0.000000
      f0      :    -0.001583  f :    -0.005430
      f+1     :    -0.001923
      f-1     :    -0.001923
      f+2     :    -0.000000
      f-2     :     0.000000
      f+3     :    -0.000000
      f-3     :    -0.000000
      g0      :    -0.000369  g :    -0.001055
      g+1     :    -0.000343
      g-1     :    -0.000343
      g+2     :     0.000000
      g-2     :    -0.000000
      g+3     :     0.000000
      g-3     :     0.000000
      g+4     :    -0.000000
      g-4     :     0.000000

SPIN
  0 C s       :     0.000000  s :     0.000000
      pz      :     0.000000  p :     0.000000
      px      :    -0.000000
      py      :    -0.000000
      dz2     :     0.000000  d :     0.000000
      dxz     :    -0.000000
      dyz     :    -0.000000
      dx2y2   :    -0.000000
      dxy     :    -0.000000
      f0      :    -0.000000  f :    -0.000000
      f+1     :     0.000000
      f-1     :    -0.000000
      f+2     :     0.000000
      f-2     :     0.000000
      f+3     :     0.000000
      f-3     :    -0.000000
      g0      :    -0.000000  g :    -0.000000
      g+1     :     0.000000
      g-1     :    -0.000000
      g+2     :     0.000000
      g-2     :    -0.000000
      g+3     :    -0.000000
      g-3     :     0.000000
      g+4     :    -0.000000
      g-4     :     0.000000
      h0      :    -0.000000  h :    -0.000000
      h+1     :     0.000000
      h-1     :    -0.000000
      h+2     :    -0.000000
      h-2     :    -0.000000
      h+3     :     0.000000
      h-3     :     0.000000
      h+4     :     0.000000
      h-4     :    -0.000000
      h+5     :    -0.000000
      h-5     :     0.000000
  1 N s       :    -0.000000  s :    -0.000000
      pz      :    -0.000000  p :    -0.000000
      px      :    -0.000000
      py      :     0.000000
      dz2     :    -0.000000  d :    -0.000000
      dxz     :     0.000000
      dyz     :     0.000000
      dx2y2   :     0.000000
      dxy     :     0.000000
      f0      :    -0.000000  f :    -0.000000
      f+1     :    -0.000000
      f-1     :     0.000000
      f+2     :    -0.000000
      f-2     :     0.000000
      f+3     :     0.000000
      f-3     :    -0.000000
      g0      :    -0.000000  g :    -0.000000
      g+1     :     0.000000
      g-1     :     0.000000
      g+2     :    -0.000000
      g-2     :    -0.000000
      g+3     :     0.000000
      g-3     :    -0.000000
      g+4     :    -0.000000
      g-4     :    -0.000000
      h0      :     0.000000  h :     0.000000
      h+1     :    -0.000000
      h-1     :    -0.000000
      h+2     :    -0.000000
      h-2     :    -0.000000
      h+3     :    -0.000000
      h-3     :     0.000000
      h+4     :     0.000000
      h-4     :    -0.000000
      h+5     :    -0.000000
      h-5     :    -0.000000
  2 H s       :     0.000000  s :     0.000000
      pz      :     0.000000  p :     0.000000
      px      :     0.000000
      py      :     0.000000
      dz2     :    -0.000000  d :    -0.000000
      dxz     :     0.000000
      dyz     :     0.000000
      dx2y2   :    -0.000000
      dxy     :     0.000000
      f0      :    -0.000000  f :    -0.000000
      f+1     :     0.000000
      f-1     :     0.000000
      f+2     :    -0.000000
      f-2     :    -0.000000
      f+3     :    -0.000000
      f-3     :     0.000000
      g0      :    -0.000000  g :    -0.000000
      g+1     :     0.000000
      g-1     :     0.000000
      g+2     :    -0.000000
      g-2     :     0.000000
      g+3     :    -0.000000
      g-3     :     0.000000
      g+4     :     0.000000
      g-4     :     0.000000


                     *******************************
                     * LOEWDIN POPULATION ANALYSIS *
                     *******************************

-------------------------------------------
LOEWDIN ATOMIC CHARGES AND SPIN POPULATIONS
-------------------------------------------
   0 C :    0.175940    0.000000
   1 N :    0.571402   -0.000000
   2 H :   -0.747341   -0.000000

----------------------------------------------------
LOEWDIN REDUCED ORBITAL CHARGES AND SPIN POPULATIONS
----------------------------------------------------
CHARGE
  0 C s       :     2.998307  s :     2.998307
      pz      :     1.206054  p :     2.271236
      px      :     0.532591
      py      :     0.532591
      dz2     :     0.161796  d :     0.373714
      dxz     :     0.105959
      dyz     :     0.105959
      dx2y2   :     0.000000
      dxy     :     0.000000
      f0      :     0.044298  f :     0.132802
      f+1     :     0.044252
      f-1     :     0.044252
      f+2     :     0.000000
      f-2     :     0.000000
      f+3     :     0.000000
      f-3     :     0.000000
      g0      :     0.015207  g :     0.039981
      g+1     :     0.012387
      g-1     :     0.012387
      g+2     :     0.000000
      g-2     :     0.000000
      g+3     :     0.000000
      g-3     :     0.000000
      g+4     :     0.000000
      g-4     :     0.000000
      h0      :     0.004884  h :     0.008020
      h+1     :     0.001568
      h-1     :     0.001568
      h+2     :     0.000000
      h-2     :     0.000000
      h+3     :     0.000000
      h-3     :     0.000000
      h+4     :     0.000000
      h-4     :     0.000000
      h+5     :     0.000000
      h-5     :     0.000000
  1 N s       :     2.850464  s :     2.850464
      pz      :     1.282150  p :     3.205138
      px      :     0.961494
      py      :     0.961494
      dz2     :     0.189061  d :     0.262980
      dxz     :     0.036960
      dyz     :     0.036960
      dx2y2   :     0.000000
      dxy     :     0.000000
      f0      :     0.045309  f :     0.078911
      f+1     :     0.016801
      f-1     :     0.016801
      f+2     :     0.000000
      f-2     :     0.000000
      f+3     :     0.000000
      f-3     :     0.000000
      g0      :     0.016015  g :     0.024666
      g+1     :     0.004325
      g-1     :     0.004325
      g+2     :     0.000000
      g-2     :     0.000000
      g+3     :     0.000000
      g-3     :     0.000000
      g+4     :     0.000000
      g-4     :     0.000000
      h0      :     0.002771  h :     0.006440
      h+1     :     0.001835
      h-1     :     0.001835
      h+2     :     0.000000
      h-2     :     0.000000
      h+3     :     0.000000
      h-3     :     0.000000
      h+4     :     0.000000
      h-4     :     0.000000
      h+5     :     0.000000
      h-5     :     0.000000
  2 H s       :     0.705275  s :     0.705275
      pz      :     0.248431  p :     0.477074
      px      :     0.114322
      py      :     0.114322
      dz2     :     0.139104  d :     0.362670
      dxz     :     0.111783
      dyz     :     0.111783
      dx2y2   :     0.000000
      dxy     :     0.000000
      f0      :     0.061761  f :     0.144605
      f+1     :     0.041422
      f-1     :     0.041422
      f+2     :     0.000000
      f-2     :     0.000000
      f+3     :     0.000000
      f-3     :     0.000000
      g0      :     0.029113  g :     0.057717
      g+1     :     0.014302
      g-1     :     0.014302
      g+2     :     0.000000
      g-2     :     0.000000
      g+3     :     0.000000
      g-3     :     0.000000
      g+4     :     0.000000
      g-4     :     0.000000

SPIN
  0 C s       :     0.000000  s :     0.000000
      pz      :     0.000000  p :    -0.000000
      px      :    -0.000000
      py      :    -0.000000
      dz2     :     0.000000  d :     0.000000
      dxz     :    -0.000000
      dyz     :     0.000000
      dx2y2   :     0.000000
      dxy     :     0.000000
      f0      :     0.000000  f :     0.000000
      f+1     :     0.000000
      f-1     :    -0.000000
      f+2     :     0.000000
      f-2     :     0.000000
      f+3     :     0.000000
      f-3     :    -0.000000
      g0      :    -0.000000  g :    -0.000000
      g+1     :    -0.000000
      g-1     :     0.000000
      g+2     :     0.000000
      g-2     :    -0.000000
      g+3     :    -0.000000
      g-3     :     0.000000
      g+4     :     0.000000
      g-4     :     0.000000
      h0      :     0.000000  h :     0.000000
      h+1     :     0.000000
      h-1     :     0.000000
      h+2     :     0.000000
      h-2     :    -0.000000
      h+3     :     0.000000
      h-3     :     0.000000
      h+4     :    -0.000000
      h-4     :    -0.000000
      h+5     :    -0.000000
      h-5     :     0.000000
  1 N s       :    -0.000000  s :    -0.000000
      pz      :     0.000000  p :     0.000000
      px      :     0.000000
      py      :     0.000000
      dz2     :    -0.000000  d :    -0.000000
      dxz     :    -0.000000
      dyz     :    -0.000000
      dx2y2   :     0.000000
      dxy     :     0.000000
      f0      :    -0.000000  f :    -0.000000
      f+1     :    -0.000000
      f-1     :    -0.000000
      f+2     :     0.000000
      f-2     :    -0.000000
      f+3     :     0.000000
      f-3     :    -0.000000
      g0      :     0.000000  g :     0.000000
      g+1     :     0.000000
      g-1     :    -0.000000
      g+2     :     0.000000
      g-2     :    -0.000000
      g+3     :     0.000000
      g-3     :    -0.000000
      g+4     :    -0.000000
      g-4     :    -0.000000
      h0      :    -0.000000  h :    -0.000000
      h+1     :    -0.000000
      h-1     :    -0.000000
      h+2     :     0.000000
      h-2     :     0.000000
      h+3     :    -0.000000
      h-3     :     0.000000
      h+4     :     0.000000
      h-4     :     0.000000
      h+5     :    -0.000000
      h-5     :    -0.000000
  2 H s       :    -0.000000  s :    -0.000000
      pz      :     0.000000  p :     0.000000
      px      :     0.000000
      py      :     0.000000
      dz2     :     0.000000  d :     0.000000
      dxz     :     0.000000
      dyz     :     0.000000
      dx2y2   :     0.000000
      dxy     :     0.000000
      f0      :    -0.000000  f :    -0.000000
      f+1     :     0.000000
      f-1     :     0.000000
      f+2     :     0.000000
      f-2     :    -0.000000
      f+3     :     0.000000
      f-3     :    -0.000000
      g0      :    -0.000000  g :    -0.000000
      g+1     :    -0.000000
      g-1     :    -0.000000
      g+2     :    -0.000000
      g-2     :     0.000000
      g+3     :    -0.000000
      g-3     :     0.000000
      g+4     :    -0.000000
      g-4     :     0.000000


                      *****************************
                      * MAYER POPULATION ANALYSIS *
                      *****************************

  NA   - Mulliken gross atomic population
  ZA   - Total nuclear charge
  QA   - Mulliken gross atomic charge
  VA   - Mayer's total valence
  BVA  - Mayer's bonded valence
  FA   - Mayer's free valence

  ATOM       NA         ZA         QA         VA         BVA        FA
  0 C      6.1676     6.0000    -0.1676     3.0604     3.0604    -0.0000
  1 N      7.0826     7.0000    -0.0826     4.0565     4.0565    -0.0000
  2 H      0.7498     1.0000     0.2502     0.9443     0.9443    -0.0000

  Mayer bond orders larger than 0.1
B(  0-C ,  1-N ) :   3.0863 B(  1-N ,  2-H ) :   0.9702 

-------
TIMINGS
-------

Total SCF time: 0 days 0 hours 10 min 53 sec 

Total time                  ....     653.133 sec
Sum of individual times     ....     652.159 sec  ( 99.9%)

Fock matrix formation       ....     648.797 sec  ( 99.3%)
  XC integration            ....      12.348 sec  (  1.9% of F)
    Basis function eval.    ....       0.794 sec  (  6.4% of XC)
    Density eval.           ....       2.519 sec  ( 20.4% of XC)
    XC-Functional eval.     ....       0.124 sec  (  1.0% of XC)
    XC-Potential eval.      ....       8.487 sec  ( 68.7% of XC)
Diagonalization             ....       1.072 sec  (  0.2%)
Density matrix formation    ....       0.017 sec  (  0.0%)
Population analysis         ....       0.191 sec  (  0.0%)
Initial guess               ....       1.167 sec  (  0.2%)
Orbital Transformation      ....       0.000 sec  (  0.0%)
Orbital Orthonormalization  ....       0.000 sec  (  0.0%)
DIIS solution               ....       0.600 sec  (  0.1%)
Grid generation             ....       0.315 sec  (  0.0%)

-------------------------   --------------------
FINAL SINGLE POINT ENERGY       -93.330884744582
-------------------------   --------------------


                            ***************************************
                            *     ORCA property calculations      *
                            ***************************************

                                    ---------------------
                                    Active property flags
                                    ---------------------
   (+) Dipole Moment
   (+) Polarizability


------------------------------------------------------------------------------
                       ORCA ELECTRIC PROPERTIES CALCULATION
------------------------------------------------------------------------------

Dipole Moment Calculation                       ... on
Quadrupole Moment Calculation                   ... off
Polarizability Calculation                      ... Analytic (CP-SCF)
GBWName                                         ... hnc_pbe.gbw
Electron density file                           ... hnc_pbe.scfp.tmp
The origin for moment calculation is the CENTER OF MASS  = ( 0.000000,  0.000000 -0.098736)

-------------
DIPOLE MOMENT
-------------
                                X             Y             Z
Electronic contribution:      0.00000       0.00000      -0.17626
Nuclear contribution   :      0.00000       0.00000       1.38230
                        -----------------------------------------
Total Dipole Moment    :      0.00000       0.00000       1.20604
                        -----------------------------------------
Magnitude (a.u.)       :      1.20604
Magnitude (Debye)      :      3.06551



--------------------
Rotational spectrum 
--------------------
 
Rotational constants in cm-1:     0.000000     1.511184     1.511184 
Rotational constants in MHz :     0.000000 45304.158594 45304.158594 

 Dipole components along the rotational axes: 
x,y,z [a.u.] :     1.206041     0.000000     0.000000 
x,y,z [Debye]:     3.065513     0.000000     0.000000 

 
Transforming and storing MO dipole integrals   ... done

                ... starting polarizability calculation

Opening the Dipole integral file               ... (hnc_pbe.dmo.tmp) done
Reading Dipole-MO integrals                    ... done
Solving CP-SCF equations                       ... 

           ************************************************************
           *        Program running with 4 parallel MPI-processes     *
           *              working on a common directory               *
           ************************************************************

------------------------------------------------------------------------------
                           ORCA CP-SCF CALCULATION
------------------------------------------------------------------------------

Input orbitals are from        ... hnc_pbe.gbw
Input Perturbation             ... hnc_pbe.cpv.tmp
Wavefunction output            ... hnc_pbe.cpu.tmp
Perturbation mode              ... Real perturbation (singlet)
Solver                         ... POPLE
Max. number of iterations      ... 200
Convergence tolerance          ... 1.000e-06
Integral handling              ... Direct
Number of perturbations        ... 3
Number of operators            ... 2
Orbital ranges used for CP-SCF:
 Operator 0:  Orbitals   0...  6  to   7...377
 Operator 1:  Orbitals   0...  6  to   7...377
DFT calculation                         ... on
Exchange functional (SCF)               ... PBE
Exchange functional (CP-SCF)            ... PBE
   PBE kappa parameter  XKappa (SCF)    ...  0.804000
   PBE kappa parameter  XKappa (CP-SCF) ...  0.804000
   PBE mue parameter   XMuePBE (SCF)    ...  0.219520
   PBE mue parameter   XMuePBE (CP-SCF) ...  0.219520
Correlation functional (SCF)            ... PBE
Correlation functional (CP-SCF)         ... PBE
   PBE beta parameter CBetaPBE (SCF)    ...  0.066725
   PBE beta parameter CBetaPBE (CP-SCF) ...  0.066725
 LDA part of GGA corr.  LDAOpt (SCF)    ... PW91-LDA
 LDA part of GGA corr.  LDAOpt (CP-SCF) ... PW91-LDA
Variables per vector in CP-SCF ... 5194
Number of vectors sought       ... 3
Recalculating density on grid  ... done
Calculating the xc-kernel      ... done
     CP-SCF ITERATION   0: 
     CP-SCF ITERATION   1:      0.413953518150
     CP-SCF ITERATION   2:      0.018602117831
     CP-SCF ITERATION   3:      0.000114622614
     CP-SCF ITERATION   4:      0.000001395752
     CP-SCF ITERATION   5:      0.000000328958
done
Reading CP-SCF coefficients                    ... done
Doing the polarizability tensor   ... done
Cleaning up                                    ... done

-------------------------
THE POLARIZABILITY TENSOR
-------------------------

The raw cartesian tensor (atomic units):
   16.40253      0.00000      0.00000  
    0.00000     16.40253     -0.00000  
    0.00000     -0.00000     24.48159  
diagonalized tensor: 
   16.40253     16.40253     24.48159  

    0.65321      0.75717      0.00000  
   -0.75717      0.65321     -0.00000  
   -0.00000     -0.00000      1.00000  

Isotropic polarizability :  19.09555


Timings for individual modules:

Sum of individual times         ...     1154.841 sec (=  19.247 min)
GTO integral calculation        ...        1.742 sec (=   0.029 min)   0.2 %
SCF iterations                  ...      653.519 sec (=  10.892 min)  56.6 %
Solution of CP-SCF eqns.        ...      499.580 sec (=   8.326 min)  43.3 %
                             ****ORCA TERMINATED NORMALLY****
TOTAL RUN TIME: 0 days 0 hours 19 minutes 15 seconds 634 msec
