
                                 *****************
                                 * O   R   C   A *
                                 *****************

           --- An Ab Initio, DFT and Semiempirical electronic structure package ---

                  #######################################################
                  #                        -***-                        #
                  #          Department of theory and spectroscopy      #
                  #               Directorship: Frank Neese             #
                  #        Max Planck Institute fuer Kohlenforschung    #
                  #                Kaiser Wilhelm Platz 1               #
                  #                 D-45470 Muelheim/Ruhr               #
                  #                      Germany                        #
                  #                                                     #
                  #                  All rights reserved                #
                  #                        -***-                        #
                  #######################################################


                         Program Version 4.1.2  - RELEASE  -


 With contributions from (in alphabetic order):
   Daniel Aravena         : Magnetic Properties
   Michael Atanasov       : Ab Initio Ligand Field Theory
   Alexander A. Auer      : GIAO ZORA
   Ute Becker             : Parallelization
   Giovanni Bistoni       : ED, Open-shell LED
   Martin Brehm           : Molecular dynamics
   Dmytro Bykov           : SCF Hessian
   Vijay G. Chilkuri      : MRCI spin determinant printing
   Dipayan Datta          : RHF DLPNO-CCSD density
   Achintya Kumar Dutta   : EOM-CC, STEOM-CC
   Dmitry Ganyushin       : Spin-Orbit,Spin-Spin,Magnetic field MRCI
   Miquel Garcia          : C-PCM Hessian
   Yang Guo               : DLPNO-NEVPT2, CIM, IAO-localization
   Andreas Hansen         : Spin unrestricted coupled pair/coupled cluster methods
   Benjamin Helmich-Paris : CASSCF linear response (MC-RPA)
   Lee Huntington         : MR-EOM, pCC
   Robert Izsak           : Overlap fitted RIJCOSX, COSX-SCS-MP3, EOM
   Christian Kollmar      : KDIIS, OOCD, Brueckner-CCSD(T), CCSD density
   Simone Kossmann        : Meta GGA functionals, TD-DFT gradient, OOMP2, MP2 Hessian
   Martin Krupicka        : AUTO-CI
   Lucas Lang             : DCDCAS
   Dagmar Lenk            : GEPOL surface, SMD
   Dimitrios Liakos       : Extrapolation schemes; parallel MDCI
   Dimitrios Manganas     : ROCIS; embedding schemes
   Dimitrios Pantazis     : SARC Basis sets
   Taras Petrenko         : DFT Hessian,TD-DFT gradient, ASA, ECA, R-Raman, ABS, FL, XAS/XES, NRVS
   Peter Pinski           : DLPNO-MP2, DLPNO-MP2 Gradient
   Christoph Reimann      : Effective Core Potentials
   Marius Retegan         : Local ZFS, SOC
   Christoph Riplinger    : Optimizer, TS searches, QM/MM, DLPNO-CCSD(T), (RO)-DLPNO pert. Triples
   Tobias Risthaus        : Range-separated hybrids, TD-DFT gradient, RPA, STAB
   Michael Roemelt        : Restricted open shell CIS
   Masaaki Saitow         : Open-shell DLPNO
   Barbara Sandhoefer     : DKH picture change effects
   Avijit Sen             : IP-ROCIS
   Kantharuban Sivalingam : CASSCF convergence, NEVPT2, FIC-MRCI
   Bernardo de Souza      : ESD, SOC TD-DFT
   Georgi Stoychev        : AutoAux, RI-MP2 NMR
   Willem Van den Heuvel  : Paramagnetic NMR
   Boris Wezisla          : Elementary symmetry handling
   Frank Wennmohs         : Technical directorship


 We gratefully acknowledge several colleagues who have allowed us to
 interface, adapt or use parts of their codes:
   Stefan Grimme, W. Hujo, H. Kruse,             : VdW corrections, initial TS optimization,
                  C. Bannwarth                     DFT functionals, gCP, sTDA/sTD-DF
   Ed Valeev                                     : LibInt (2-el integral package), F12 methods
   Garnet Chan, S. Sharma, J. Yang, R. Olivares  : DMRG
   Ulf Ekstrom                                   : XCFun DFT Library
   Mihaly Kallay                                 : mrcc  (arbitrary order and MRCC methods)
   Andreas Klamt, Michael Diedenhofen            : otool_cosmo (COSMO solvation model)
   Jiri Pittner, Ondrej Demel                    : Mk-CCSD
   Frank Weinhold                                : gennbo (NPA and NBO analysis)
   Christopher J. Cramer and Donald G. Truhlar   : smd solvation model
   Lars Goerigk                                  : TD-DFT with DH, B97 family of functionals
   V. Asgeirsson, H. Jonsson                     : NEB implementation
   FAccTs GmbH                                   : IRC, NEB, NEB-TS, Multilevel


 Your calculation uses the libint2 library for the computation of 2-el integrals
 For citations please refer to: http://libint.valeyev.net

 This ORCA versions uses:
   CBLAS   interface :  Fast vector & matrix operations
   LAPACKE interface :  Fast linear algebra routines
   SCALAPACK package :  Parallel linear algebra routines


----- Orbital basis set information -----
Your calculation utilizes the basis: aug-pc-4
   H, C-F              : F. Jensen, J. Chem. Phys. 115, 9113 (2001).
                         F. Jensen, J. Chem. Phys. 116, 7372 (2002).
                         F. Jensen, J. Chem. Phys. 117, 9234 (2002).
   Si-Cl               : F. Jensen, T. Helgaker, J. Chem. Phys. 121, 3463 (2004).
   He-B, Ne-Mg, Al, Ar : F. Jensen, J. Phys. Chem. A 111, 11198 (2007).
   K, Ca, Ga-Kr        : F. Jensen, J. Chem. Phys. 136, 094110 (2012).
   Sc-Zn               : F. Jensen, J. Chem. Phys. 138, 014107 (2013).

================================================================================
                                        WARNINGS
                       Please study these warnings very carefully!
================================================================================


INFO   : the flag for use of LIBINT has been found!

================================================================================
                                       INPUT FILE
================================================================================
NAME = hno_pbe.inp
|  1> !uks pbe nori aug-pc-4 grid5 nofinalgrid verytightscf
|  2> 
|  3> %maxcore 1500
|  4> 
|  5> %pal nprocs 4 end
|  6> 
|  7> %scf
|  8> 	maxiter 200
|  9> end
| 10> %elprop
| 11> 	dipole true
| 12> 	 polar 1
| 13> 	 maxiter 200
| 14> end
| 15> 
| 16> * xyz 0 1
| 17> H 0.0000 -0.9718 0.9211
| 18> N 0.0000 0.0648 0.5834
| 19> O 0.0000 0.0648 -0.6256
| 20> *
| 21> 
| 22>                          ****END OF INPUT****
================================================================================

                       ****************************
                       * Single Point Calculation *
                       ****************************

---------------------------------
CARTESIAN COORDINATES (ANGSTROEM)
---------------------------------
  H      0.000000   -0.971800    0.921100
  N      0.000000    0.064800    0.583400
  O      0.000000    0.064800   -0.625600

----------------------------
CARTESIAN COORDINATES (A.U.)
----------------------------
  NO LB      ZA    FRAG     MASS         X           Y           Z
   0 H     1.0000    0     1.008    0.000000   -1.836436    1.740627
   1 N     7.0000    0    14.007    0.000000    0.122454    1.102466
   2 O     8.0000    0    15.999    0.000000    0.122454   -1.182213

--------------------------------
INTERNAL COORDINATES (ANGSTROEM)
--------------------------------
 H      0   0   0     0.000000000000     0.00000000     0.00000000
 N      1   0   0     1.090220551081     0.00000000     0.00000000
 O      2   1   0     1.209000000000   108.04439626     0.00000000

---------------------------
INTERNAL COORDINATES (A.U.)
---------------------------
 H      0   0   0     0.000000000000     0.00000000     0.00000000
 N      1   0   0     2.060218267116     0.00000000     0.00000000
 O      2   1   0     2.284678895911   108.04439626     0.00000000

---------------------
BASIS SET INFORMATION
---------------------
There are 3 groups of distinct atoms

 Group   1 Type H   : 12s7p4d3f2g contracted to 8s7p4d3f2g pattern {51111111/1111111/1111/111/11}
 Group   2 Type N   : 27s12p7d4f3g2h contracted to 9s8p7d4f3g2h pattern {1191111111/51111111/1111111/1111/111/11}
 Group   3 Type O   : 27s12p7d4f3g2h contracted to 9s8p7d4f3g2h pattern {1191111111/51111111/1111111/1111/111/11}

Atom   0H    basis set group =>   1
Atom   1N    basis set group =>   2
Atom   2O    basis set group =>   3


           ************************************************************
           *        Program running with 4 parallel MPI-processes     *
           *              working on a common directory               *
           ************************************************************
------------------------------------------------------------------------------
                           ORCA GTO INTEGRAL CALCULATION
------------------------------------------------------------------------------

                         BASIS SET STATISTICS AND STARTUP INFO

 # of primitive gaussian shells          ...  138
 # of primitive gaussian functions       ...  442
 # of contracted shells                  ...   90
 # of contracted basis functions         ...  378
 Highest angular momentum                ...    5
 Maximum contraction depth               ...   11
 Integral package used                   ... LIBINT
 Integral threshhold            Thresh   ...  1.000e-12
 Primitive cut-off              TCut     ...  1.000e-14


------------------------------ INTEGRAL EVALUATION ----------------------------


 * One electron integrals 
 Pre-screening matrix                    ... done
 Shell pair data                         ... done (   0.001 sec)



           ************************************************************
           *        Program running with 4 parallel MPI-processes     *
           *              working on a common directory               *
           ************************************************************
-------------------------------------------------------------------------------
                                 ORCA SCF
-------------------------------------------------------------------------------

------------
SCF SETTINGS
------------
Hamiltonian:
 Density Functional     Method          .... DFT(GTOs)
 Exchange Functional    Exchange        .... PBE
   PBE kappa parameter   XKappa         ....  0.804000
   PBE mue parameter    XMuePBE         ....  0.219520
 Correlation Functional Correlation     .... PBE
   PBE beta parameter  CBetaPBE         ....  0.066725
 LDA part of GGA corr.  LDAOpt          .... PW91-LDA
 Gradients option       PostSCFGGA      .... off
   Density functional embedding theory  .... OFF
   NL short-range parameter             ....  6.400000


General Settings:
 Integral files         IntName         .... hno_pbe
 Hartree-Fock type      HFTyp           .... UHF
 Total Charge           Charge          ....    0
 Multiplicity           Mult            ....    1
 Number of Electrons    NEL             ....   16
 Basis Dimension        Dim             ....  378
 Nuclear Repulsion      ENuc            ....     30.1824609529 Eh

Convergence Acceleration:
 DIIS                   CNVDIIS         .... on
   Start iteration      DIISMaxIt       ....    12
   Startup error        DIISStart       ....  0.200000
   # of expansion vecs  DIISMaxEq       ....     5
   Bias factor          DIISBfac        ....   1.050
   Max. coefficient     DIISMaxC        ....  10.000
 Newton-Raphson         CNVNR           .... off
 SOSCF                  CNVSOSCF        .... off
 Level Shifting         CNVShift        .... on
   Level shift para.    LevelShift      ....    0.2500
   Turn off err/grad.   ShiftErr        ....    0.0010
 Zerner damping         CNVZerner       .... off
 Static damping         CNVDamp         .... on
   Fraction old density DampFac         ....    0.7000
   Max. Damping (<1)    DampMax         ....    0.9800
   Min. Damping (>=0)   DampMin         ....    0.0000
   Turn off err/grad.   DampErr         ....    0.1000
 Fernandez-Rico         CNVRico         .... off

SCF Procedure:
 Maximum # iterations   MaxIter         ....   200
 SCF integral mode      SCFMode         .... Direct
   Integral package                     .... LIBINT
 Reset frequency        DirectResetFreq ....    20
 Integral Threshold     Thresh          ....  1.000e-12 Eh
 Primitive CutOff       TCut            ....  1.000e-14 Eh

Convergence Tolerance:
 Convergence Check Mode ConvCheckMode   .... Total+1el-Energy
 Convergence forced     ConvForced      .... 0
 Energy Change          TolE            ....  1.000e-09 Eh
 1-El. energy change                    ....  1.000e-06 Eh
 DIIS Error             TolErr          ....  1.000e-08


Diagonalization of the overlap matrix:
Smallest eigenvalue                        ... 1.790e-06
Time for diagonalization                   ...    0.029 sec
Threshold for overlap eigenvalues          ... 1.000e-08
Number of eigenvalues below threshold      ... 0
Time for construction of square roots      ...    0.026 sec
Total time needed                          ...    0.055 sec

-------------------
DFT GRID GENERATION
-------------------

General Integration Accuracy     IntAcc      ...  5.010
Radial Grid Type                 RadialGrid  ... Gauss-Chebyshev
Angular Grid (max. acc.)         AngularGrid ... Lebedev-434
Angular grid pruning method      GridPruning ... 3 (G Style)
Weight generation scheme         WeightScheme... Becke
Basis function cutoff            BFCut       ...    1.0000e-12
Integration weight cutoff        WCut        ...    1.0000e-14
Grids for H and He will be reduced by one unit

# of grid points (after initial pruning)     ...  28124 (   0.0 sec)
# of grid points (after weights+screening)   ...  27874 (   0.0 sec)
nearest neighbour list constructed           ...    0.0 sec
Grid point re-assignment to atoms done       ...    0.0 sec
Grid point division into batches done        ...    0.2 sec
Reduced shell lists constructed in    0.3 sec

Total number of grid points                  ...    27874
Total number of batches                      ...      437
Average number of points per batch           ...       63
Average number of grid points per atom       ...     9291
Average number of shells per batch           ...    63.14 (70.15%)
Average number of basis functions per batch  ...   274.65 (72.66%)
Average number of large shells per batch     ...    55.94 (88.60%)
Average number of large basis fcns per batch ...   243.85 (88.79%)
Maximum spatial batch extension              ...  14.64, 12.44, 14.56 au
Average spatial batch extension              ...   0.97,  0.88,  0.96 au

Time for grid setup =    0.324 sec

------------------------------
INITIAL GUESS: MODEL POTENTIAL
------------------------------
Loading Hartree-Fock densities                     ... done
Calculating cut-offs                               ... done
Setting up the integral package                    ... done
Initializing the effective Hamiltonian             ... done
Starting the Coulomb interaction                   ... done (   0.0 sec)
Reading the grid                                   ... done
Mapping shells                                     ... done
Starting the XC term evaluation                    ... done (   0.5 sec)
  promolecular density results
     # of electrons  =     15.999510576
     EX              =    -14.902745304
     EC              =     -0.522079707
     EX+EC           =    -15.424825011
Transforming the Hamiltonian                       ... done (   0.0 sec)
Diagonalizing the Hamiltonian                      ... done (   0.0 sec)
Back transforming the eigenvectors                 ... done (   0.0 sec)
Now organizing SCF variables                       ... done
                      ------------------
                      INITIAL GUESS DONE (   1.0 sec)
                      ------------------
--------------
SCF ITERATIONS
--------------
ITER       Energy         Delta-E        Max-DP      RMS-DP      [F,P]     Damp
               ***  Starting incremental Fock matrix formation  ***
  0   -130.3812853946   0.000000000000 0.00665523  0.00009102  0.1439600 0.7000
  1   -130.3946094784  -0.013324083726 0.00354213  0.00005917  0.0368416 0.7000
                               ***Turning on DIIS***
  2   -130.3980527898  -0.003443311431 0.00851919  0.00011792  0.0222741 0.0000
  3   -130.4060441267  -0.007991336871 0.00366943  0.00004088  0.0347939 0.0000
  4   -130.4072657929  -0.001221666203 0.00114078  0.00001581  0.0139059 0.0000
  5   -130.4074589688  -0.000193175919 0.00059223  0.00000698  0.0032824 0.0000
  6   -130.4074728902  -0.000013921383 0.00044633  0.00000571  0.0002814 0.0000
  7   -130.4074733612  -0.000000471026 0.00004762  0.00000057  0.0002188 0.0000
  8   -130.4074734398  -0.000000078627 0.00000566  0.00000008  0.0000291 0.0000
  9   -130.4074734407  -0.000000000869 0.00000152  0.00000002  0.0000211 0.0000
 10   -130.4074734410  -0.000000000304 0.00000096  0.00000001  0.0000087 0.0000
 11   -130.4074734411  -0.000000000064 0.00000098  0.00000001  0.0000012 0.0000
 12   -130.4074734411  -0.000000000004 0.00000106  0.00000001  0.0000002 0.0000
                 **** Energy Check signals convergence ****

               *****************************************************
               *                     SUCCESS                       *
               *           SCF CONVERGED AFTER  13 CYCLES          *
               *****************************************************


----------------
TOTAL SCF ENERGY
----------------

Total Energy       :         -130.40747344 Eh           -3548.56776 eV

Components:
Nuclear Repulsion  :           30.18246095 Eh             821.30652 eV
Electronic Energy  :         -160.58993439 Eh           -4369.87427 eV
One Electron Energy:         -237.56381078 Eh           -6464.43994 eV
Two Electron Energy:           76.97387638 Eh            2094.56566 eV

Virial components:
Potential Energy   :         -260.36007910 Eh           -7084.75793 eV
Kinetic Energy     :          129.95260566 Eh            3536.19018 eV
Virial Ratio       :            2.00350026


DFT components:
N(Alpha)           :        8.000000522874 electrons
N(Beta)            :        8.000000522874 electrons
N(Total)           :       16.000001045749 electrons
E(X)               :      -15.068739869555 Eh       
E(C)               :       -0.524321939318 Eh       
E(XC)              :      -15.593061808873 Eh       
DFET-embed. en.    :        0.000000000000 Eh       

---------------
SCF CONVERGENCE
---------------

  Last Energy change         ...    8.2423e-13  Tolerance :   1.0000e-09
  Last MAX-Density change    ...    6.3901e-06  Tolerance :   1.0000e-08
  Last RMS-Density change    ...    8.0857e-08  Tolerance :   1.0000e-09
  Last DIIS Error            ...    1.2030e-07  Tolerance :   1.0000e-08

             **** THE GBW FILE WAS UPDATED (hno_pbe.gbw) ****
             **** DENSITY FILE WAS UPDATED (hno_pbe.scfp.tmp) ****
             **** ENERGY FILE WAS UPDATED (hno_pbe.en.tmp) ****
----------------------
UHF SPIN CONTAMINATION
----------------------

Warning: in a DFT calculation there is little theoretical justification to 
         calculate <S**2> as in Hartree-Fock theory. We will do it anyways
         but you should keep in mind that the values have only limited relevance

Expectation value of <S**2>     :    -0.000000
Ideal value S*(S+1) for S=0.0   :     0.000000
Deviation                       :    -0.000000

----------------
ORBITAL ENERGIES
----------------
                 SPIN UP ORBITALS
  NO   OCC          E(Eh)            E(eV) 
   0   1.0000     -18.839344      -512.6446 
   1   1.0000     -14.116277      -384.1234 
   2   1.0000      -1.092401       -29.7258 
   3   1.0000      -0.659779       -17.9535 
   4   1.0000      -0.483457       -13.1555 
   5   1.0000      -0.434457       -11.8222 
   6   1.0000      -0.404048       -10.9947 
   7   1.0000      -0.205710        -5.5977 
   8   0.0000      -0.163439        -4.4474 
   9   0.0000      -0.026133        -0.7111 
  10   0.0000       0.014899         0.4054 
  11   0.0000       0.021273         0.5789 
  12   0.0000       0.023456         0.6383 
  13   0.0000       0.039304         1.0695 
  14   0.0000       0.054193         1.4747 
  15   0.0000       0.057246         1.5577 
  16   0.0000       0.061303         1.6681 
  17   0.0000       0.068755         1.8709 
  18   0.0000       0.081039         2.2052 
  19   0.0000       0.084987         2.3126 
  20   0.0000       0.112780         3.0689 
  21   0.0000       0.116788         3.1780 
  22   0.0000       0.125027         3.4022 
  23   0.0000       0.139006         3.7825 
  24   0.0000       0.158384         4.3098 
  25   0.0000       0.169612         4.6154 
  26   0.0000       0.172664         4.6984 
  27   0.0000       0.176410         4.8003 
  28   0.0000       0.179413         4.8821 
  29   0.0000       0.179741         4.8910 
  30   0.0000       0.184395         5.0176 
  31   0.0000       0.185852         5.0573 
  32   0.0000       0.191699         5.2164 
  33   0.0000       0.196988         5.3603 
  34   0.0000       0.220098         5.9892 
  35   0.0000       0.221780         6.0350 
  36   0.0000       0.237544         6.4639 
  37   0.0000       0.249456         6.7880 
  38   0.0000       0.251868         6.8537 
  39   0.0000       0.281676         7.6648 
  40   0.0000       0.286917         7.8074 
  41   0.0000       0.300170         8.1680 
  42   0.0000       0.302654         8.2356 
  43   0.0000       0.307868         8.3775 
  44   0.0000       0.318033         8.6541 
  45   0.0000       0.326957         8.8970 
  46   0.0000       0.335719         9.1354 
  47   0.0000       0.343984         9.3603 
  48   0.0000       0.355444         9.6721 
  49   0.0000       0.365425         9.9437 
  50   0.0000       0.369853        10.0642 
  51   0.0000       0.390789        10.6339 
  52   0.0000       0.404207        10.9990 
  53   0.0000       0.407867        11.0986 
  54   0.0000       0.413288        11.2461 
  55   0.0000       0.424860        11.5610 
  56   0.0000       0.430681        11.7194 
  57   0.0000       0.431192        11.7333 
  58   0.0000       0.436608        11.8807 
  59   0.0000       0.438690        11.9374 
  60   0.0000       0.439719        11.9654 
  61   0.0000       0.445440        12.1210 
  62   0.0000       0.446248        12.1430 
  63   0.0000       0.475689        12.9441 
  64   0.0000       0.482873        13.1396 
  65   0.0000       0.484542        13.1850 
  66   0.0000       0.516534        14.0556 
  67   0.0000       0.516584        14.0570 
  68   0.0000       0.521336        14.1863 
  69   0.0000       0.528532        14.3821 
  70   0.0000       0.533733        14.5236 
  71   0.0000       0.548970        14.9382 
  72   0.0000       0.565428        15.3861 
  73   0.0000       0.576142        15.6776 
  74   0.0000       0.578555        15.7433 
  75   0.0000       0.606766        16.5109 
  76   0.0000       0.613178        16.6854 
  77   0.0000       0.620927        16.8963 
  78   0.0000       0.632492        17.2110 
  79   0.0000       0.641330        17.4515 
  80   0.0000       0.659314        17.9409 
  81   0.0000       0.660511        17.9734 
  82   0.0000       0.674884        18.3645 
  83   0.0000       0.680976        18.5303 
  84   0.0000       0.683101        18.5881 
  85   0.0000       0.691451        18.8153 
  86   0.0000       0.705754        19.2045 
  87   0.0000       0.712946        19.4002 
  88   0.0000       0.722983        19.6734 
  89   0.0000       0.729255        19.8440 
  90   0.0000       0.751716        20.4552 
  91   0.0000       0.758693        20.6451 
  92   0.0000       0.764780        20.8107 
  93   0.0000       0.769581        20.9414 
  94   0.0000       0.795280        21.6407 
  95   0.0000       0.814851        22.1732 
  96   0.0000       0.817641        22.2491 
  97   0.0000       0.836495        22.7622 
  98   0.0000       0.837278        22.7835 
  99   0.0000       0.850238        23.1362 
 100   0.0000       0.854782        23.2598 
 101   0.0000       0.864753        23.5311 
 102   0.0000       0.865665        23.5560 
 103   0.0000       0.875346        23.8194 
 104   0.0000       0.892972        24.2990 
 105   0.0000       0.893329        24.3087 
 106   0.0000       0.899712        24.4824 
 107   0.0000       0.910134        24.7660 
 108   0.0000       0.914916        24.8961 
 109   0.0000       0.928766        25.2730 
 110   0.0000       0.930104        25.3094 
 111   0.0000       0.935138        25.4464 
 112   0.0000       0.942085        25.6354 
 113   0.0000       0.943325        25.6692 
 114   0.0000       0.955225        25.9930 
 115   0.0000       0.971891        26.4465 
 116   0.0000       0.975622        26.5480 
 117   0.0000       0.993451        27.0332 
 118   0.0000       1.019555        27.7435 
 119   0.0000       1.027884        27.9702 
 120   0.0000       1.032485        28.0953 
 121   0.0000       1.047438        28.5023 
 122   0.0000       1.062859        28.9219 
 123   0.0000       1.063735        28.9457 
 124   0.0000       1.077709        29.3259 
 125   0.0000       1.101079        29.9619 
 126   0.0000       1.166040        31.7296 
 127   0.0000       1.167699        31.7747 
 128   0.0000       1.175032        31.9742 
 129   0.0000       1.175260        31.9804 
 130   0.0000       1.193532        32.4777 
 131   0.0000       1.218902        33.1680 
 132   0.0000       1.238472        33.7005 
 133   0.0000       1.251432        34.0532 
 134   0.0000       1.268525        34.5183 
 135   0.0000       1.282060        34.8866 
 136   0.0000       1.310175        35.6517 
 137   0.0000       1.341696        36.5094 
 138   0.0000       1.362552        37.0769 
 139   0.0000       1.380319        37.5604 
 140   0.0000       1.418295        38.5938 
 141   0.0000       1.445228        39.3267 
 142   0.0000       1.494254        40.6607 
 143   0.0000       1.526732        41.5445 
 144   0.0000       1.552768        42.2530 
 145   0.0000       1.556831        42.3635 
 146   0.0000       1.561890        42.5012 
 147   0.0000       1.593014        43.3481 
 148   0.0000       1.657571        45.1048 
 149   0.0000       1.706675        46.4410 
 150   0.0000       1.741250        47.3818 
 151   0.0000       1.770163        48.1686 
 152   0.0000       1.785575        48.5880 
 153   0.0000       1.822782        49.6004 
 154   0.0000       1.847311        50.2679 
 155   0.0000       1.891994        51.4838 
 156   0.0000       1.914452        52.0949 
 157   0.0000       1.980413        53.8898 
 158   0.0000       2.033099        55.3234 
 159   0.0000       2.065164        56.1960 
 160   0.0000       2.072762        56.4027 
 161   0.0000       2.121374        57.7255 
 162   0.0000       2.131915        58.0124 
 163   0.0000       2.177993        59.2662 
 164   0.0000       2.180480        59.3339 
 165   0.0000       2.305380        62.7326 
 166   0.0000       2.364655        64.3455 
 167   0.0000       2.372217        64.5513 
 168   0.0000       2.445090        66.5343 
 169   0.0000       2.458756        66.9062 
 170   0.0000       2.523072        68.6563 
 171   0.0000       2.544733        69.2457 
 172   0.0000       2.673402        72.7470 
 173   0.0000       2.700292        73.4787 
 174   0.0000       2.722700        74.0884 
 175   0.0000       2.906818        79.0985 
 176   0.0000       2.921065        79.4862 
 177   0.0000       2.939226        79.9804 
 178   0.0000       2.965702        80.7008 
 179   0.0000       3.021260        82.2127 
 180   0.0000       3.098365        84.3108 
 181   0.0000       3.168697        86.2246 
 182   0.0000       3.283526        89.3493 
 183   0.0000       3.291543        89.5674 
 184   0.0000       3.346848        91.0724 
 185   0.0000       3.425194        93.2043 
 186   0.0000       3.508538        95.4722 
 187   0.0000       3.521252        95.8181 
 188   0.0000       3.629438        98.7620 
 189   0.0000       3.652990        99.4029 
 190   0.0000       3.728884       101.4681 
 191   0.0000       3.766028       102.4788 
 192   0.0000       3.850791       104.7853 
 193   0.0000       3.870761       105.3287 
 194   0.0000       4.029525       109.6490 
 195   0.0000       4.083869       111.1277 
 196   0.0000       4.121336       112.1473 
 197   0.0000       4.143819       112.7590 
 198   0.0000       4.150311       112.9357 
 199   0.0000       4.208748       114.5259 
 200   0.0000       4.285064       116.6025 
 201   0.0000       4.350772       118.3905 
 202   0.0000       4.369882       118.9105 
 203   0.0000       4.465417       121.5102 
 204   0.0000       4.472059       121.6909 
 205   0.0000       4.559154       124.0609 
 206   0.0000       4.560821       124.1062 
 207   0.0000       4.603439       125.2659 
 208   0.0000       4.797038       130.5340 
 209   0.0000       4.799897       130.6118 
 210   0.0000       4.917093       133.8009 
 211   0.0000       4.998265       136.0097 
 212   0.0000       5.114754       139.1795 
 213   0.0000       5.153339       140.2295 
 214   0.0000       5.172809       140.7593 
 215   0.0000       5.209817       141.7663 
 216   0.0000       5.326953       144.9538 
 217   0.0000       5.374209       146.2397 
 218   0.0000       5.403590       147.0392 
 219   0.0000       5.552110       151.0806 
 220   0.0000       5.581203       151.8723 
 221   0.0000       5.626221       153.0973 
 222   0.0000       5.684100       154.6722 
 223   0.0000       5.888652       160.2384 
 224   0.0000       5.969091       162.4272 
 225   0.0000       5.975741       162.6082 
 226   0.0000       6.023484       163.9073 
 227   0.0000       6.076879       165.3603 
 228   0.0000       6.175275       168.0378 
 229   0.0000       6.292753       171.2345 
 230   0.0000       6.361929       173.1169 
 231   0.0000       6.405819       174.3112 
 232   0.0000       6.435704       175.1244 
 233   0.0000       6.580424       179.0624 
 234   0.0000       6.592293       179.3854 
 235   0.0000       6.741276       183.4394 
 236   0.0000       6.761067       183.9780 
 237   0.0000       6.967919       189.6067 
 238   0.0000       7.224035       196.5760 
 239   0.0000       7.269666       197.8177 
 240   0.0000       7.434400       202.3003 
 241   0.0000       7.493757       203.9155 
 242   0.0000       7.557738       205.6565 
 243   0.0000       7.624295       207.4676 
 244   0.0000       7.783209       211.7919 
 245   0.0000       7.842827       213.4142 
 246   0.0000       8.234553       224.0736 
 247   0.0000       8.377517       227.9638 
 248   0.0000       8.409149       228.8246 
 249   0.0000       8.493227       231.1125 
 250   0.0000       8.734110       237.6672 
 251   0.0000       8.900361       242.1911 
 252   0.0000       8.912245       242.5145 
 253   0.0000       9.000432       244.9142 
 254   0.0000       9.119008       248.1408 
 255   0.0000       9.246647       251.6141 
 256   0.0000       9.266434       252.1525 
 257   0.0000       9.383936       255.3499 
 258   0.0000       9.453192       257.2344 
 259   0.0000       9.526920       259.2407 
 260   0.0000       9.722643       264.5666 
 261   0.0000      10.033721       273.0314 
 262   0.0000      10.052579       273.5446 
 263   0.0000      10.256550       279.0949 
 264   0.0000      10.693623       290.9883 
 265   0.0000      10.893365       296.4235 
 266   0.0000      10.951351       298.0014 
 267   0.0000      10.982683       298.8540 
 268   0.0000      11.098074       301.9940 
 269   0.0000      11.123039       302.6733 
 270   0.0000      11.135691       303.0176 
 271   0.0000      11.152018       303.4618 
 272   0.0000      11.198454       304.7254 
 273   0.0000      11.234810       305.7147 
 274   0.0000      11.275723       306.8280 
 275   0.0000      11.364035       309.2311 
 276   0.0000      11.372371       309.4579 
 277   0.0000      11.477728       312.3249 
 278   0.0000      11.540737       314.0394 
 279   0.0000      11.625421       316.3438 
 280   0.0000      11.675412       317.7041 
 281   0.0000      11.988785       326.2314 
 282   0.0000      11.991087       326.2941 
 283   0.0000      12.056616       328.0772 
 284   0.0000      12.094935       329.1199 
 285   0.0000      12.139527       330.3333 
 286   0.0000      12.279094       334.1311 
 287   0.0000      12.291585       334.4710 
 288   0.0000      12.323507       335.3397 
 289   0.0000      12.451188       338.8141 
 290   0.0000      12.660274       344.5036 
 291   0.0000      12.671470       344.8082 
 292   0.0000      12.676417       344.9428 
 293   0.0000      12.742722       346.7471 
 294   0.0000      12.829862       349.1183 
 295   0.0000      12.844600       349.5193 
 296   0.0000      12.952381       352.4522 
 297   0.0000      12.954285       352.5040 
 298   0.0000      13.039922       354.8343 
 299   0.0000      13.435567       365.6004 
 300   0.0000      13.556991       368.9045 
 301   0.0000      13.595862       369.9622 
 302   0.0000      13.685379       372.3981 
 303   0.0000      13.762927       374.5083 
 304   0.0000      14.068147       382.8137 
 305   0.0000      14.613986       397.6668 
 306   0.0000      14.797234       402.6532 
 307   0.0000      14.806153       402.8959 
 308   0.0000      14.930542       406.2807 
 309   0.0000      14.987954       407.8430 
 310   0.0000      15.134558       411.8323 
 311   0.0000      15.142998       412.0619 
 312   0.0000      15.292251       416.1233 
 313   0.0000      15.317752       416.8172 
 314   0.0000      15.460619       420.7048 
 315   0.0000      15.608350       424.7248 
 316   0.0000      15.688610       426.9088 
 317   0.0000      15.842530       431.0972 
 318   0.0000      16.056412       436.9172 
 319   0.0000      16.385224       445.8646 
 320   0.0000      16.699641       454.4203 
 321   0.0000      16.708263       454.6549 
 322   0.0000      16.876116       459.2225 
 323   0.0000      16.946545       461.1389 
 324   0.0000      16.965269       461.6484 
 325   0.0000      17.082573       464.8404 
 326   0.0000      17.105575       465.4664 
 327   0.0000      17.135750       466.2875 
 328   0.0000      17.191039       467.7919 
 329   0.0000      17.210047       468.3092 
 330   0.0000      17.273492       470.0356 
 331   0.0000      17.276895       470.1282 
 332   0.0000      17.412296       473.8126 
 333   0.0000      17.898981       487.0560 
 334   0.0000      17.918798       487.5953 
 335   0.0000      17.941673       488.2178 
 336   0.0000      18.019636       490.3392 
 337   0.0000      18.607386       506.3327 
 338   0.0000      18.701686       508.8987 
 339   0.0000      18.758820       510.4534 
 340   0.0000      18.909162       514.5445 
 341   0.0000      19.136149       520.7211 
 342   0.0000      19.949980       542.8665 
 343   0.0000      20.017338       544.6995 
 344   0.0000      20.360370       554.0338 
 345   0.0000      21.083408       573.7087 
 346   0.0000      22.967030       624.9646 
 347   0.0000      23.026703       626.5884 
 348   0.0000      23.329502       634.8280 
 349   0.0000      23.461901       638.4308 
 350   0.0000      23.614921       642.5947 
 351   0.0000      24.171803       657.7482 
 352   0.0000      24.422672       664.5747 
 353   0.0000      25.387407       690.8265 
 354   0.0000      25.844419       703.2624 
 355   0.0000      26.071952       709.4539 
 356   0.0000      27.314084       743.2540 
 357   0.0000      28.894810       786.2678 
 358   0.0000      30.707642       835.5974 
 359   0.0000      31.870285       867.2345 
 360   0.0000      32.060314       872.4055 
 361   0.0000      34.164671       929.6680 
 362   0.0000      40.887960      1112.6179 
 363   0.0000      47.732849      1298.8769 
 364   0.0000      47.849813      1302.0596 
 365   0.0000      47.880746      1302.9013 
 366   0.0000      48.351421      1315.7091 
 367   0.0000      49.203225      1338.8878 
 368   0.0000      66.524169      1810.2147 
 369   0.0000      66.572407      1811.5273 
 370   0.0000      67.152638      1827.3162 
 371   0.0000      67.296471      1831.2301 
 372   0.0000      68.908558      1875.0972 
 373   0.0000      90.912445      2473.8534 
 374   0.0000      91.009222      2476.4868 
 375   0.0000      92.334519      2512.5500 
 376   0.0000     105.624439      2874.1871 
 377   0.0000     143.490809      3904.5834 

                 SPIN DOWN ORBITALS
  NO   OCC          E(Eh)            E(eV) 
   0   1.0000     -18.839344      -512.6446 
   1   1.0000     -14.116277      -384.1234 
   2   1.0000      -1.092401       -29.7258 
   3   1.0000      -0.659779       -17.9535 
   4   1.0000      -0.483457       -13.1555 
   5   1.0000      -0.434457       -11.8222 
   6   1.0000      -0.404048       -10.9947 
   7   1.0000      -0.205710        -5.5977 
   8   0.0000      -0.163439        -4.4474 
   9   0.0000      -0.026133        -0.7111 
  10   0.0000       0.014899         0.4054 
  11   0.0000       0.021273         0.5789 
  12   0.0000       0.023456         0.6383 
  13   0.0000       0.039304         1.0695 
  14   0.0000       0.054193         1.4747 
  15   0.0000       0.057246         1.5577 
  16   0.0000       0.061303         1.6681 
  17   0.0000       0.068755         1.8709 
  18   0.0000       0.081039         2.2052 
  19   0.0000       0.084987         2.3126 
  20   0.0000       0.112780         3.0689 
  21   0.0000       0.116788         3.1780 
  22   0.0000       0.125027         3.4022 
  23   0.0000       0.139006         3.7825 
  24   0.0000       0.158384         4.3098 
  25   0.0000       0.169612         4.6154 
  26   0.0000       0.172664         4.6984 
  27   0.0000       0.176410         4.8003 
  28   0.0000       0.179413         4.8821 
  29   0.0000       0.179741         4.8910 
  30   0.0000       0.184395         5.0176 
  31   0.0000       0.185852         5.0573 
  32   0.0000       0.191699         5.2164 
  33   0.0000       0.196988         5.3603 
  34   0.0000       0.220098         5.9892 
  35   0.0000       0.221780         6.0350 
  36   0.0000       0.237544         6.4639 
  37   0.0000       0.249456         6.7880 
  38   0.0000       0.251868         6.8537 
  39   0.0000       0.281676         7.6648 
  40   0.0000       0.286917         7.8074 
  41   0.0000       0.300170         8.1680 
  42   0.0000       0.302654         8.2356 
  43   0.0000       0.307868         8.3775 
  44   0.0000       0.318033         8.6541 
  45   0.0000       0.326957         8.8970 
  46   0.0000       0.335719         9.1354 
  47   0.0000       0.343984         9.3603 
  48   0.0000       0.355444         9.6721 
  49   0.0000       0.365425         9.9437 
  50   0.0000       0.369853        10.0642 
  51   0.0000       0.390789        10.6339 
  52   0.0000       0.404207        10.9990 
  53   0.0000       0.407867        11.0986 
  54   0.0000       0.413288        11.2461 
  55   0.0000       0.424860        11.5610 
  56   0.0000       0.430681        11.7194 
  57   0.0000       0.431192        11.7333 
  58   0.0000       0.436608        11.8807 
  59   0.0000       0.438690        11.9374 
  60   0.0000       0.439719        11.9654 
  61   0.0000       0.445440        12.1210 
  62   0.0000       0.446248        12.1430 
  63   0.0000       0.475689        12.9441 
  64   0.0000       0.482873        13.1396 
  65   0.0000       0.484542        13.1850 
  66   0.0000       0.516534        14.0556 
  67   0.0000       0.516584        14.0570 
  68   0.0000       0.521336        14.1863 
  69   0.0000       0.528532        14.3821 
  70   0.0000       0.533733        14.5236 
  71   0.0000       0.548970        14.9382 
  72   0.0000       0.565428        15.3861 
  73   0.0000       0.576142        15.6776 
  74   0.0000       0.578555        15.7433 
  75   0.0000       0.606766        16.5109 
  76   0.0000       0.613178        16.6854 
  77   0.0000       0.620927        16.8963 
  78   0.0000       0.632492        17.2110 
  79   0.0000       0.641330        17.4515 
  80   0.0000       0.659314        17.9409 
  81   0.0000       0.660511        17.9734 
  82   0.0000       0.674884        18.3645 
  83   0.0000       0.680976        18.5303 
  84   0.0000       0.683101        18.5881 
  85   0.0000       0.691451        18.8153 
  86   0.0000       0.705754        19.2045 
  87   0.0000       0.712946        19.4002 
  88   0.0000       0.722983        19.6734 
  89   0.0000       0.729255        19.8440 
  90   0.0000       0.751716        20.4552 
  91   0.0000       0.758693        20.6451 
  92   0.0000       0.764780        20.8107 
  93   0.0000       0.769581        20.9414 
  94   0.0000       0.795280        21.6407 
  95   0.0000       0.814851        22.1732 
  96   0.0000       0.817641        22.2491 
  97   0.0000       0.836495        22.7622 
  98   0.0000       0.837278        22.7835 
  99   0.0000       0.850238        23.1362 
 100   0.0000       0.854782        23.2598 
 101   0.0000       0.864753        23.5311 
 102   0.0000       0.865665        23.5560 
 103   0.0000       0.875346        23.8194 
 104   0.0000       0.892972        24.2990 
 105   0.0000       0.893329        24.3087 
 106   0.0000       0.899712        24.4824 
 107   0.0000       0.910134        24.7660 
 108   0.0000       0.914916        24.8961 
 109   0.0000       0.928766        25.2730 
 110   0.0000       0.930104        25.3094 
 111   0.0000       0.935138        25.4464 
 112   0.0000       0.942085        25.6354 
 113   0.0000       0.943325        25.6692 
 114   0.0000       0.955225        25.9930 
 115   0.0000       0.971891        26.4465 
 116   0.0000       0.975622        26.5480 
 117   0.0000       0.993451        27.0332 
 118   0.0000       1.019555        27.7435 
 119   0.0000       1.027884        27.9702 
 120   0.0000       1.032485        28.0953 
 121   0.0000       1.047438        28.5023 
 122   0.0000       1.062859        28.9219 
 123   0.0000       1.063735        28.9457 
 124   0.0000       1.077709        29.3259 
 125   0.0000       1.101079        29.9619 
 126   0.0000       1.166040        31.7296 
 127   0.0000       1.167699        31.7747 
 128   0.0000       1.175032        31.9742 
 129   0.0000       1.175260        31.9804 
 130   0.0000       1.193532        32.4777 
 131   0.0000       1.218902        33.1680 
 132   0.0000       1.238472        33.7005 
 133   0.0000       1.251432        34.0532 
 134   0.0000       1.268525        34.5183 
 135   0.0000       1.282060        34.8866 
 136   0.0000       1.310175        35.6517 
 137   0.0000       1.341696        36.5094 
 138   0.0000       1.362552        37.0769 
 139   0.0000       1.380319        37.5604 
 140   0.0000       1.418295        38.5938 
 141   0.0000       1.445228        39.3267 
 142   0.0000       1.494254        40.6607 
 143   0.0000       1.526732        41.5445 
 144   0.0000       1.552768        42.2530 
 145   0.0000       1.556831        42.3635 
 146   0.0000       1.561890        42.5012 
 147   0.0000       1.593014        43.3481 
 148   0.0000       1.657571        45.1048 
 149   0.0000       1.706675        46.4410 
 150   0.0000       1.741250        47.3818 
 151   0.0000       1.770163        48.1686 
 152   0.0000       1.785575        48.5880 
 153   0.0000       1.822782        49.6004 
 154   0.0000       1.847311        50.2679 
 155   0.0000       1.891994        51.4838 
 156   0.0000       1.914452        52.0949 
 157   0.0000       1.980413        53.8898 
 158   0.0000       2.033099        55.3234 
 159   0.0000       2.065164        56.1960 
 160   0.0000       2.072762        56.4027 
 161   0.0000       2.121374        57.7255 
 162   0.0000       2.131915        58.0124 
 163   0.0000       2.177993        59.2662 
 164   0.0000       2.180480        59.3339 
 165   0.0000       2.305380        62.7326 
 166   0.0000       2.364655        64.3455 
 167   0.0000       2.372217        64.5513 
 168   0.0000       2.445090        66.5343 
 169   0.0000       2.458756        66.9062 
 170   0.0000       2.523072        68.6563 
 171   0.0000       2.544733        69.2457 
 172   0.0000       2.673402        72.7470 
 173   0.0000       2.700292        73.4787 
 174   0.0000       2.722700        74.0884 
 175   0.0000       2.906818        79.0985 
 176   0.0000       2.921065        79.4862 
 177   0.0000       2.939226        79.9804 
 178   0.0000       2.965702        80.7008 
 179   0.0000       3.021260        82.2127 
 180   0.0000       3.098365        84.3108 
 181   0.0000       3.168697        86.2246 
 182   0.0000       3.283526        89.3493 
 183   0.0000       3.291543        89.5674 
 184   0.0000       3.346848        91.0724 
 185   0.0000       3.425194        93.2043 
 186   0.0000       3.508538        95.4722 
 187   0.0000       3.521252        95.8181 
 188   0.0000       3.629438        98.7620 
 189   0.0000       3.652990        99.4029 
 190   0.0000       3.728884       101.4681 
 191   0.0000       3.766028       102.4788 
 192   0.0000       3.850791       104.7853 
 193   0.0000       3.870761       105.3287 
 194   0.0000       4.029525       109.6490 
 195   0.0000       4.083869       111.1277 
 196   0.0000       4.121336       112.1473 
 197   0.0000       4.143819       112.7590 
 198   0.0000       4.150311       112.9357 
 199   0.0000       4.208748       114.5259 
 200   0.0000       4.285064       116.6025 
 201   0.0000       4.350772       118.3905 
 202   0.0000       4.369882       118.9105 
 203   0.0000       4.465417       121.5102 
 204   0.0000       4.472059       121.6909 
 205   0.0000       4.559154       124.0609 
 206   0.0000       4.560821       124.1062 
 207   0.0000       4.603439       125.2659 
 208   0.0000       4.797038       130.5340 
 209   0.0000       4.799897       130.6118 
 210   0.0000       4.917093       133.8009 
 211   0.0000       4.998265       136.0097 
 212   0.0000       5.114754       139.1795 
 213   0.0000       5.153339       140.2295 
 214   0.0000       5.172809       140.7593 
 215   0.0000       5.209817       141.7663 
 216   0.0000       5.326953       144.9538 
 217   0.0000       5.374209       146.2397 
 218   0.0000       5.403590       147.0392 
 219   0.0000       5.552110       151.0806 
 220   0.0000       5.581203       151.8723 
 221   0.0000       5.626221       153.0973 
 222   0.0000       5.684100       154.6722 
 223   0.0000       5.888652       160.2384 
 224   0.0000       5.969091       162.4272 
 225   0.0000       5.975741       162.6082 
 226   0.0000       6.023484       163.9073 
 227   0.0000       6.076879       165.3603 
 228   0.0000       6.175275       168.0378 
 229   0.0000       6.292753       171.2345 
 230   0.0000       6.361929       173.1169 
 231   0.0000       6.405819       174.3112 
 232   0.0000       6.435704       175.1244 
 233   0.0000       6.580424       179.0624 
 234   0.0000       6.592293       179.3854 
 235   0.0000       6.741276       183.4394 
 236   0.0000       6.761067       183.9780 
 237   0.0000       6.967919       189.6067 
 238   0.0000       7.224035       196.5760 
 239   0.0000       7.269666       197.8177 
 240   0.0000       7.434400       202.3003 
 241   0.0000       7.493757       203.9155 
 242   0.0000       7.557738       205.6565 
 243   0.0000       7.624295       207.4676 
 244   0.0000       7.783209       211.7919 
 245   0.0000       7.842827       213.4142 
 246   0.0000       8.234553       224.0736 
 247   0.0000       8.377517       227.9638 
 248   0.0000       8.409149       228.8246 
 249   0.0000       8.493227       231.1125 
 250   0.0000       8.734110       237.6672 
 251   0.0000       8.900361       242.1911 
 252   0.0000       8.912245       242.5145 
 253   0.0000       9.000432       244.9142 
 254   0.0000       9.119008       248.1408 
 255   0.0000       9.246647       251.6141 
 256   0.0000       9.266434       252.1525 
 257   0.0000       9.383936       255.3499 
 258   0.0000       9.453192       257.2344 
 259   0.0000       9.526920       259.2407 
 260   0.0000       9.722643       264.5666 
 261   0.0000      10.033721       273.0314 
 262   0.0000      10.052579       273.5446 
 263   0.0000      10.256550       279.0949 
 264   0.0000      10.693623       290.9883 
 265   0.0000      10.893365       296.4235 
 266   0.0000      10.951351       298.0014 
 267   0.0000      10.982683       298.8540 
 268   0.0000      11.098074       301.9940 
 269   0.0000      11.123039       302.6733 
 270   0.0000      11.135691       303.0176 
 271   0.0000      11.152018       303.4618 
 272   0.0000      11.198454       304.7254 
 273   0.0000      11.234810       305.7147 
 274   0.0000      11.275723       306.8280 
 275   0.0000      11.364035       309.2311 
 276   0.0000      11.372371       309.4579 
 277   0.0000      11.477728       312.3249 
 278   0.0000      11.540737       314.0394 
 279   0.0000      11.625421       316.3438 
 280   0.0000      11.675412       317.7041 
 281   0.0000      11.988785       326.2314 
 282   0.0000      11.991087       326.2941 
 283   0.0000      12.056616       328.0772 
 284   0.0000      12.094935       329.1199 
 285   0.0000      12.139527       330.3333 
 286   0.0000      12.279094       334.1311 
 287   0.0000      12.291585       334.4710 
 288   0.0000      12.323507       335.3397 
 289   0.0000      12.451188       338.8141 
 290   0.0000      12.660274       344.5036 
 291   0.0000      12.671470       344.8082 
 292   0.0000      12.676417       344.9428 
 293   0.0000      12.742722       346.7471 
 294   0.0000      12.829862       349.1183 
 295   0.0000      12.844600       349.5193 
 296   0.0000      12.952381       352.4522 
 297   0.0000      12.954285       352.5040 
 298   0.0000      13.039922       354.8343 
 299   0.0000      13.435567       365.6004 
 300   0.0000      13.556991       368.9045 
 301   0.0000      13.595862       369.9622 
 302   0.0000      13.685379       372.3981 
 303   0.0000      13.762927       374.5083 
 304   0.0000      14.068147       382.8137 
 305   0.0000      14.613986       397.6668 
 306   0.0000      14.797234       402.6532 
 307   0.0000      14.806153       402.8959 
 308   0.0000      14.930542       406.2807 
 309   0.0000      14.987954       407.8430 
 310   0.0000      15.134558       411.8323 
 311   0.0000      15.142998       412.0619 
 312   0.0000      15.292251       416.1233 
 313   0.0000      15.317752       416.8172 
 314   0.0000      15.460619       420.7048 
 315   0.0000      15.608350       424.7248 
 316   0.0000      15.688610       426.9088 
 317   0.0000      15.842530       431.0972 
 318   0.0000      16.056412       436.9172 
 319   0.0000      16.385224       445.8646 
 320   0.0000      16.699641       454.4203 
 321   0.0000      16.708263       454.6549 
 322   0.0000      16.876116       459.2225 
 323   0.0000      16.946545       461.1389 
 324   0.0000      16.965269       461.6484 
 325   0.0000      17.082573       464.8404 
 326   0.0000      17.105575       465.4664 
 327   0.0000      17.135750       466.2875 
 328   0.0000      17.191039       467.7919 
 329   0.0000      17.210047       468.3092 
 330   0.0000      17.273492       470.0356 
 331   0.0000      17.276895       470.1282 
 332   0.0000      17.412296       473.8126 
 333   0.0000      17.898981       487.0560 
 334   0.0000      17.918798       487.5953 
 335   0.0000      17.941673       488.2178 
 336   0.0000      18.019636       490.3392 
 337   0.0000      18.607386       506.3327 
 338   0.0000      18.701686       508.8987 
 339   0.0000      18.758820       510.4534 
 340   0.0000      18.909162       514.5445 
 341   0.0000      19.136149       520.7211 
 342   0.0000      19.949980       542.8665 
 343   0.0000      20.017338       544.6995 
 344   0.0000      20.360370       554.0338 
 345   0.0000      21.083408       573.7087 
 346   0.0000      22.967030       624.9646 
 347   0.0000      23.026703       626.5884 
 348   0.0000      23.329502       634.8280 
 349   0.0000      23.461901       638.4308 
 350   0.0000      23.614921       642.5947 
 351   0.0000      24.171803       657.7482 
 352   0.0000      24.422672       664.5747 
 353   0.0000      25.387407       690.8265 
 354   0.0000      25.844419       703.2624 
 355   0.0000      26.071952       709.4539 
 356   0.0000      27.314084       743.2540 
 357   0.0000      28.894810       786.2678 
 358   0.0000      30.707642       835.5974 
 359   0.0000      31.870285       867.2345 
 360   0.0000      32.060314       872.4055 
 361   0.0000      34.164671       929.6680 
 362   0.0000      40.887960      1112.6179 
 363   0.0000      47.732849      1298.8769 
 364   0.0000      47.849813      1302.0596 
 365   0.0000      47.880746      1302.9013 
 366   0.0000      48.351421      1315.7091 
 367   0.0000      49.203225      1338.8878 
 368   0.0000      66.524169      1810.2147 
 369   0.0000      66.572407      1811.5273 
 370   0.0000      67.152638      1827.3162 
 371   0.0000      67.296471      1831.2301 
 372   0.0000      68.908558      1875.0972 
 373   0.0000      90.912445      2473.8534 
 374   0.0000      91.009222      2476.4868 
 375   0.0000      92.334519      2512.5500 
 376   0.0000     105.624439      2874.1871 
 377   0.0000     143.490809      3904.5834 

                    ********************************
                    * MULLIKEN POPULATION ANALYSIS *
                    ********************************

--------------------------------------------
MULLIKEN ATOMIC CHARGES AND SPIN POPULATIONS
--------------------------------------------
   0 H :    0.157376   -0.000000
   1 N :    0.021931   -0.000000
   2 O :   -0.179307    0.000000
Sum of atomic charges         :   -0.0000000
Sum of atomic spin populations:   -0.0000000

-----------------------------------------------------
MULLIKEN REDUCED ORBITAL CHARGES AND SPIN POPULATIONS
-----------------------------------------------------
CHARGE
  0 H s       :     0.770105  s :     0.770105
      pz      :     0.013456  p :     0.060219
      px      :     0.012831
      py      :     0.033933
      dz2     :     0.000994  d :     0.009493
      dxz     :     0.001285
      dyz     :     0.003063
      dx2y2   :     0.001328
      dxy     :     0.002824
      f0      :     0.001385  f :     0.002611
      f+1     :     0.000103
      f-1     :    -0.000052
      f+2     :     0.000078
      f-2     :     0.000447
      f+3     :     0.000344
      f-3     :     0.000306
      g0      :     0.000071  g :     0.000196
      g+1     :     0.000017
      g-1     :     0.000231
      g+2     :    -0.000190
      g-2     :    -0.000101
      g+3     :     0.000111
      g-3     :    -0.000015
      g+4     :     0.000040
      g-4     :     0.000032
  1 N s       :     3.731233  s :     3.731233
      pz      :     0.961814  p :     3.118050
      px      :     0.801374
      py      :     1.354862
      dz2     :     0.017911  d :     0.114583
      dxz     :     0.023243
      dyz     :     0.058966
      dx2y2   :     0.013734
      dxy     :     0.000729
      f0      :     0.001970  f :     0.013087
      f+1     :     0.003122
      f-1     :     0.007739
      f+2     :     0.000107
      f-2     :    -0.000002
      f+3     :    -0.000014
      f-3     :     0.000165
      g0      :     0.000345  g :     0.001005
      g+1     :     0.000322
      g-1     :     0.000301
      g+2     :     0.000014
      g-2     :    -0.000001
      g+3     :     0.000003
      g-3     :    -0.000002
      g+4     :     0.000019
      g-4     :     0.000003
      h0      :     0.000053  h :     0.000112
      h+1     :     0.000039
      h-1     :     0.000011
      h+2     :     0.000001
      h-2     :    -0.000001
      h+3     :     0.000001
      h-3     :     0.000001
      h+4     :     0.000005
      h-4     :    -0.000000
      h+5     :     0.000000
      h-5     :     0.000001
  2 O s       :     3.913544  s :     3.913544
      pz      :     1.190524  p :     4.191519
      px      :     1.129929
      py      :     1.871066
      dz2     :     0.014694  d :     0.063229
      dxz     :     0.020196
      dyz     :     0.028350
      dx2y2   :    -0.000027
      dxy     :     0.000016
      f0      :     0.001596  f :     0.009324
      f+1     :     0.002809
      f-1     :     0.005096
      f+2     :    -0.000119
      f-2     :    -0.000056
      f+3     :     0.000009
      f-3     :    -0.000010
      g0      :     0.000365  g :     0.001462
      g+1     :     0.000378
      g-1     :     0.000766
      g+2     :    -0.000006
      g-2     :    -0.000017
      g+3     :    -0.000004
      g-3     :    -0.000021
      g+4     :     0.000002
      g-4     :    -0.000002
      h0      :     0.000073  h :     0.000228
      h+1     :     0.000037
      h-1     :     0.000107
      h+2     :     0.000017
      h-2     :    -0.000001
      h+3     :    -0.000001
      h-3     :    -0.000000
      h+4     :    -0.000002
      h-4     :    -0.000001
      h+5     :    -0.000000
      h-5     :    -0.000000

SPIN
  0 H s       :    -0.000000  s :    -0.000000
      pz      :     0.000000  p :    -0.000000
      px      :    -0.000000
      py      :    -0.000000
      dz2     :     0.000000  d :     0.000000
      dxz     :    -0.000000
      dyz     :     0.000000
      dx2y2   :    -0.000000
      dxy     :     0.000000
      f0      :     0.000000  f :     0.000000
      f+1     :    -0.000000
      f-1     :     0.000000
      f+2     :     0.000000
      f-2     :    -0.000000
      f+3     :     0.000000
      f-3     :    -0.000000
      g0      :     0.000000  g :     0.000000
      g+1     :     0.000000
      g-1     :     0.000000
      g+2     :     0.000000
      g-2     :     0.000000
      g+3     :    -0.000000
      g-3     :     0.000000
      g+4     :    -0.000000
      g-4     :     0.000000
  1 N s       :    -0.000000  s :    -0.000000
      pz      :     0.000000  p :     0.000000
      px      :    -0.000000
      py      :    -0.000000
      dz2     :     0.000000  d :     0.000000
      dxz     :     0.000000
      dyz     :    -0.000000
      dx2y2   :    -0.000000
      dxy     :     0.000000
      f0      :     0.000000  f :     0.000000
      f+1     :    -0.000000
      f-1     :    -0.000000
      f+2     :     0.000000
      f-2     :     0.000000
      f+3     :    -0.000000
      f-3     :    -0.000000
      g0      :    -0.000000  g :    -0.000000
      g+1     :    -0.000000
      g-1     :    -0.000000
      g+2     :    -0.000000
      g-2     :     0.000000
      g+3     :     0.000000
      g-3     :     0.000000
      g+4     :    -0.000000
      g-4     :     0.000000
      h0      :    -0.000000  h :    -0.000000
      h+1     :    -0.000000
      h-1     :    -0.000000
      h+2     :    -0.000000
      h-2     :     0.000000
      h+3     :     0.000000
      h-3     :    -0.000000
      h+4     :     0.000000
      h-4     :    -0.000000
      h+5     :    -0.000000
      h-5     :     0.000000
  2 O s       :     0.000000  s :     0.000000
      pz      :     0.000000  p :     0.000000
      px      :     0.000000
      py      :     0.000000
      dz2     :     0.000000  d :     0.000000
      dxz     :     0.000000
      dyz     :     0.000000
      dx2y2   :     0.000000
      dxy     :     0.000000
      f0      :     0.000000  f :     0.000000
      f+1     :     0.000000
      f-1     :     0.000000
      f+2     :     0.000000
      f-2     :     0.000000
      f+3     :     0.000000
      f-3     :     0.000000
      g0      :     0.000000  g :     0.000000
      g+1     :     0.000000
      g-1     :     0.000000
      g+2     :     0.000000
      g-2     :     0.000000
      g+3     :     0.000000
      g-3     :     0.000000
      g+4     :     0.000000
      g-4     :     0.000000
      h0      :     0.000000  h :     0.000000
      h+1     :     0.000000
      h-1     :     0.000000
      h+2     :     0.000000
      h-2     :     0.000000
      h+3     :    -0.000000
      h-3     :     0.000000
      h+4     :     0.000000
      h-4     :     0.000000
      h+5     :     0.000000
      h-5     :     0.000000


                     *******************************
                     * LOEWDIN POPULATION ANALYSIS *
                     *******************************

-------------------------------------------
LOEWDIN ATOMIC CHARGES AND SPIN POPULATIONS
-------------------------------------------
   0 H :   -0.619548    0.000000
   1 N :    0.330681   -0.000000
   2 O :    0.288867   -0.000000

----------------------------------------------------
LOEWDIN REDUCED ORBITAL CHARGES AND SPIN POPULATIONS
----------------------------------------------------
CHARGE
  0 H s       :     0.683912  s :     0.683912
      pz      :     0.098610  p :     0.419144
      px      :     0.059669
      py      :     0.260865
      dz2     :     0.071872  d :     0.317347
      dxz     :     0.019997
      dyz     :     0.092980
      dx2y2   :     0.079315
      dxy     :     0.053184
      f0      :     0.021268  f :     0.130373
      f+1     :     0.002930
      f-1     :     0.044889
      f+2     :     0.023452
      f-2     :     0.013654
      f+3     :     0.012487
      f-3     :     0.011693
      g0      :     0.011957  g :     0.068771
      g+1     :     0.000693
      g-1     :     0.019653
      g+2     :     0.016871
      g-2     :     0.004686
      g+3     :     0.005228
      g-3     :     0.006064
      g+4     :     0.001737
      g-4     :     0.001882
  1 N s       :     2.946345  s :     2.946345
      pz      :     1.067630  p :     2.846071
      px      :     0.653421
      py      :     1.125020
      dz2     :     0.226618  d :     0.593044
      dxz     :     0.076238
      dyz     :     0.260545
      dx2y2   :     0.029057
      dxy     :     0.000586
      f0      :     0.072078  f :     0.222477
      f+1     :     0.038045
      f-1     :     0.105683
      f+2     :     0.002717
      f-2     :     0.000073
      f+3     :     0.000319
      f-3     :     0.003563
      g0      :     0.015689  g :     0.048587
      g+1     :     0.010543
      g-1     :     0.021574
      g+2     :     0.000121
      g-2     :     0.000012
      g+3     :     0.000013
      g-3     :     0.000280
      g+4     :     0.000320
      g-4     :     0.000035
      h0      :     0.004312  h :     0.012795
      h+1     :     0.002815
      h-1     :     0.005145
      h+2     :     0.000067
      h-2     :     0.000000
      h+3     :     0.000013
      h-3     :     0.000096
      h+4     :     0.000119
      h-4     :     0.000072
      h+5     :     0.000054
      h-5     :     0.000102
  2 O s       :     3.239001  s :     3.239001
      pz      :     1.357573  p :     3.858703
      px      :     0.966065
      py      :     1.535065
      dz2     :     0.160402  d :     0.396434
      dxz     :     0.048181
      dyz     :     0.184646
      dx2y2   :     0.003070
      dxy     :     0.000136
      f0      :     0.046107  f :     0.157524
      f+1     :     0.021134
      f-1     :     0.085921
      f+2     :     0.004017
      f-2     :     0.000031
      f+3     :     0.000029
      f-3     :     0.000284
      g0      :     0.012450  g :     0.045563
      g+1     :     0.005823
      g-1     :     0.022792
      g+2     :     0.003752
      g-2     :     0.000003
      g+3     :     0.000002
      g-3     :     0.000691
      g+4     :     0.000047
      g-4     :     0.000003
      h0      :     0.003641  h :     0.013907
      h+1     :     0.001933
      h-1     :     0.005473
      h+2     :     0.001908
      h-2     :     0.000000
      h+3     :     0.000005
      h-3     :     0.000794
      h+4     :     0.000143
      h-4     :     0.000006
      h+5     :     0.000001
      h-5     :     0.000005

SPIN
  0 H s       :    -0.000000  s :    -0.000000
      pz      :     0.000000  p :     0.000000
      px      :     0.000000
      py      :     0.000000
      dz2     :     0.000000  d :    -0.000000
      dxz     :     0.000000
      dyz     :    -0.000000
      dx2y2   :     0.000000
      dxy     :     0.000000
      f0      :     0.000000  f :     0.000000
      f+1     :     0.000000
      f-1     :     0.000000
      f+2     :    -0.000000
      f-2     :     0.000000
      f+3     :     0.000000
      f-3     :    -0.000000
      g0      :     0.000000  g :     0.000000
      g+1     :    -0.000000
      g-1     :    -0.000000
      g+2     :     0.000000
      g-2     :     0.000000
      g+3     :    -0.000000
      g-3     :     0.000000
      g+4     :     0.000000
      g-4     :     0.000000
  1 N s       :    -0.000000  s :    -0.000000
      pz      :     0.000000  p :     0.000000
      px      :     0.000000
      py      :    -0.000000
      dz2     :     0.000000  d :     0.000000
      dxz     :    -0.000000
      dyz     :    -0.000000
      dx2y2   :     0.000000
      dxy     :     0.000000
      f0      :     0.000000  f :     0.000000
      f+1     :    -0.000000
      f-1     :     0.000000
      f+2     :     0.000000
      f-2     :    -0.000000
      f+3     :     0.000000
      f-3     :    -0.000000
      g0      :    -0.000000  g :    -0.000000
      g+1     :    -0.000000
      g-1     :    -0.000000
      g+2     :     0.000000
      g-2     :    -0.000000
      g+3     :     0.000000
      g-3     :     0.000000
      g+4     :    -0.000000
      g-4     :    -0.000000
      h0      :    -0.000000  h :    -0.000000
      h+1     :     0.000000
      h-1     :    -0.000000
      h+2     :    -0.000000
      h-2     :     0.000000
      h+3     :    -0.000000
      h-3     :    -0.000000
      h+4     :    -0.000000
      h-4     :    -0.000000
      h+5     :    -0.000000
      h-5     :    -0.000000
  2 O s       :    -0.000000  s :    -0.000000
      pz      :     0.000000  p :     0.000000
      px      :    -0.000000
      py      :     0.000000
      dz2     :    -0.000000  d :    -0.000000
      dxz     :    -0.000000
      dyz     :    -0.000000
      dx2y2   :     0.000000
      dxy     :     0.000000
      f0      :    -0.000000  f :    -0.000000
      f+1     :     0.000000
      f-1     :    -0.000000
      f+2     :     0.000000
      f-2     :    -0.000000
      f+3     :     0.000000
      f-3     :     0.000000
      g0      :    -0.000000  g :     0.000000
      g+1     :     0.000000
      g-1     :     0.000000
      g+2     :     0.000000
      g-2     :    -0.000000
      g+3     :     0.000000
      g-3     :    -0.000000
      g+4     :    -0.000000
      g-4     :    -0.000000
      h0      :     0.000000  h :     0.000000
      h+1     :    -0.000000
      h-1     :     0.000000
      h+2     :     0.000000
      h-2     :    -0.000000
      h+3     :    -0.000000
      h-3     :    -0.000000
      h+4     :    -0.000000
      h-4     :     0.000000
      h+5     :     0.000000
      h-5     :    -0.000000


                      *****************************
                      * MAYER POPULATION ANALYSIS *
                      *****************************

  NA   - Mulliken gross atomic population
  ZA   - Total nuclear charge
  QA   - Mulliken gross atomic charge
  VA   - Mayer's total valence
  BVA  - Mayer's bonded valence
  FA   - Mayer's free valence

  ATOM       NA         ZA         QA         VA         BVA        FA
  0 H      0.8426     1.0000     0.1574     1.0121     1.0121    -0.0000
  1 N      6.9781     7.0000     0.0219     2.7987     2.7987    -0.0000
  2 O      8.1793     8.0000    -0.1793     1.9751     1.9751    -0.0000

  Mayer bond orders larger than 0.1
B(  0-H ,  1-N ) :   0.9178 B(  1-N ,  2-O ) :   1.8809 

-------
TIMINGS
-------

Total SCF time: 0 days 0 hours 11 min 51 sec 

Total time                  ....     711.636 sec
Sum of individual times     ....     710.880 sec  ( 99.9%)

Fock matrix formation       ....     707.724 sec  ( 99.5%)
  XC integration            ....      14.892 sec  (  2.1% of F)
    Basis function eval.    ....       0.944 sec  (  6.3% of XC)
    Density eval.           ....       3.199 sec  ( 21.5% of XC)
    XC-Functional eval.     ....       0.166 sec  (  1.1% of XC)
    XC-Potential eval.      ....      10.116 sec  ( 67.9% of XC)
Diagonalization             ....       1.280 sec  (  0.2%)
Density matrix formation    ....       0.023 sec  (  0.0%)
Population analysis         ....       0.126 sec  (  0.0%)
Initial guess               ....       0.665 sec  (  0.1%)
Orbital Transformation      ....       0.000 sec  (  0.0%)
Orbital Orthonormalization  ....       0.000 sec  (  0.0%)
DIIS solution               ....       0.738 sec  (  0.1%)
Grid generation             ....       0.324 sec  (  0.0%)

-------------------------   --------------------
FINAL SINGLE POINT ENERGY      -130.407473441072
-------------------------   --------------------


                            ***************************************
                            *     ORCA property calculations      *
                            ***************************************

                                    ---------------------
                                    Active property flags
                                    ---------------------
   (+) Dipole Moment
   (+) Polarizability


------------------------------------------------------------------------------
                       ORCA ELECTRIC PROPERTIES CALCULATION
------------------------------------------------------------------------------

Dipole Moment Calculation                       ... on
Quadrupole Moment Calculation                   ... off
Polarizability Calculation                      ... Analytic (CP-SCF)
GBWName                                         ... hno_pbe.gbw
Electron density file                           ... hno_pbe.scfp.tmp
The origin for moment calculation is the CENTER OF MASS  = ( 0.000000,  0.058787 -0.055376)

-------------
DIPOLE MOMENT
-------------
                                X             Y             Z
Electronic contribution:     -0.00000       0.43945      -0.58556
Nuclear contribution   :      0.00000      -0.94022       0.88620
                        -----------------------------------------
Total Dipole Moment    :     -0.00000      -0.50077       0.30064
                        -----------------------------------------
Magnitude (a.u.)       :      0.58408
Magnitude (Debye)      :      1.48462



--------------------
Rotational spectrum 
--------------------
 
Rotational constants in cm-1:    17.606681     1.410914     1.306238 
Rotational constants in MHz : 527835.027066 42298.140358 39160.044243 

 Dipole components along the rotational axes: 
x,y,z [a.u.] :    -0.344834     0.471425    -0.000000 
x,y,z [Debye]:    -0.876497     1.198268    -0.000000 

 
Transforming and storing MO dipole integrals   ... done

                ... starting polarizability calculation

Opening the Dipole integral file               ... (hno_pbe.dmo.tmp) done
Reading Dipole-MO integrals                    ... done
Solving CP-SCF equations                       ... 

           ************************************************************
           *        Program running with 4 parallel MPI-processes     *
           *              working on a common directory               *
           ************************************************************

------------------------------------------------------------------------------
                           ORCA CP-SCF CALCULATION
------------------------------------------------------------------------------

Input orbitals are from        ... hno_pbe.gbw
Input Perturbation             ... hno_pbe.cpv.tmp
Wavefunction output            ... hno_pbe.cpu.tmp
Perturbation mode              ... Real perturbation (singlet)
Solver                         ... POPLE
Max. number of iterations      ... 200
Convergence tolerance          ... 1.000e-06
Integral handling              ... Direct
Number of perturbations        ... 3
Number of operators            ... 2
Orbital ranges used for CP-SCF:
 Operator 0:  Orbitals   0...  7  to   8...377
 Operator 1:  Orbitals   0...  7  to   8...377
DFT calculation                         ... on
Exchange functional (SCF)               ... PBE
Exchange functional (CP-SCF)            ... PBE
   PBE kappa parameter  XKappa (SCF)    ...  0.804000
   PBE kappa parameter  XKappa (CP-SCF) ...  0.804000
   PBE mue parameter   XMuePBE (SCF)    ...  0.219520
   PBE mue parameter   XMuePBE (CP-SCF) ...  0.219520
Correlation functional (SCF)            ... PBE
Correlation functional (CP-SCF)         ... PBE
   PBE beta parameter CBetaPBE (SCF)    ...  0.066725
   PBE beta parameter CBetaPBE (CP-SCF) ...  0.066725
 LDA part of GGA corr.  LDAOpt (SCF)    ... PW91-LDA
 LDA part of GGA corr.  LDAOpt (CP-SCF) ... PW91-LDA
Variables per vector in CP-SCF ... 5920
Number of vectors sought       ... 3
Recalculating density on grid  ... done
Calculating the xc-kernel      ... done
     CP-SCF ITERATION   0: 
     CP-SCF ITERATION   1:      0.503498345672
     CP-SCF ITERATION   2:      0.076671756352
     CP-SCF ITERATION   3:      0.001459329486
     CP-SCF ITERATION   4:      0.000024840388
     CP-SCF ITERATION   5:      0.000000371917
done
Reading CP-SCF coefficients                    ... done
Doing the polarizability tensor   ... done
Cleaning up                                    ... done

-------------------------
THE POLARIZABILITY TENSOR
-------------------------

The raw cartesian tensor (atomic units):
   11.35181     -0.00000      0.00000  
   -0.00000     17.71683     -3.23151  
    0.00000     -3.23151     20.08619  
diagonalized tensor: 
   11.35181     15.45969     22.34333  

    1.00000     -0.00000      0.00000  
    0.00000      0.81982     -0.57263  
   -0.00000      0.57263      0.81982  

Isotropic polarizability :  16.38494


Timings for individual modules:

Sum of individual times         ...     1215.356 sec (=  20.256 min)
GTO integral calculation        ...        1.660 sec (=   0.028 min)   0.1 %
SCF iterations                  ...      712.074 sec (=  11.868 min)  58.6 %
Solution of CP-SCF eqns.        ...      501.622 sec (=   8.360 min)  41.3 %
                             ****ORCA TERMINATED NORMALLY****
TOTAL RUN TIME: 0 days 0 hours 20 minutes 16 seconds 164 msec
