
                                 *****************
                                 * O   R   C   A *
                                 *****************

           --- An Ab Initio, DFT and Semiempirical electronic structure package ---

                  #######################################################
                  #                        -***-                        #
                  #          Department of theory and spectroscopy      #
                  #               Directorship: Frank Neese             #
                  #        Max Planck Institute fuer Kohlenforschung    #
                  #                Kaiser Wilhelm Platz 1               #
                  #                 D-45470 Muelheim/Ruhr               #
                  #                      Germany                        #
                  #                                                     #
                  #                  All rights reserved                #
                  #                        -***-                        #
                  #######################################################


                         Program Version 4.1.2  - RELEASE  -


 With contributions from (in alphabetic order):
   Daniel Aravena         : Magnetic Properties
   Michael Atanasov       : Ab Initio Ligand Field Theory
   Alexander A. Auer      : GIAO ZORA
   Ute Becker             : Parallelization
   Giovanni Bistoni       : ED, Open-shell LED
   Martin Brehm           : Molecular dynamics
   Dmytro Bykov           : SCF Hessian
   Vijay G. Chilkuri      : MRCI spin determinant printing
   Dipayan Datta          : RHF DLPNO-CCSD density
   Achintya Kumar Dutta   : EOM-CC, STEOM-CC
   Dmitry Ganyushin       : Spin-Orbit,Spin-Spin,Magnetic field MRCI
   Miquel Garcia          : C-PCM Hessian
   Yang Guo               : DLPNO-NEVPT2, CIM, IAO-localization
   Andreas Hansen         : Spin unrestricted coupled pair/coupled cluster methods
   Benjamin Helmich-Paris : CASSCF linear response (MC-RPA)
   Lee Huntington         : MR-EOM, pCC
   Robert Izsak           : Overlap fitted RIJCOSX, COSX-SCS-MP3, EOM
   Christian Kollmar      : KDIIS, OOCD, Brueckner-CCSD(T), CCSD density
   Simone Kossmann        : Meta GGA functionals, TD-DFT gradient, OOMP2, MP2 Hessian
   Martin Krupicka        : AUTO-CI
   Lucas Lang             : DCDCAS
   Dagmar Lenk            : GEPOL surface, SMD
   Dimitrios Liakos       : Extrapolation schemes; parallel MDCI
   Dimitrios Manganas     : ROCIS; embedding schemes
   Dimitrios Pantazis     : SARC Basis sets
   Taras Petrenko         : DFT Hessian,TD-DFT gradient, ASA, ECA, R-Raman, ABS, FL, XAS/XES, NRVS
   Peter Pinski           : DLPNO-MP2, DLPNO-MP2 Gradient
   Christoph Reimann      : Effective Core Potentials
   Marius Retegan         : Local ZFS, SOC
   Christoph Riplinger    : Optimizer, TS searches, QM/MM, DLPNO-CCSD(T), (RO)-DLPNO pert. Triples
   Tobias Risthaus        : Range-separated hybrids, TD-DFT gradient, RPA, STAB
   Michael Roemelt        : Restricted open shell CIS
   Masaaki Saitow         : Open-shell DLPNO
   Barbara Sandhoefer     : DKH picture change effects
   Avijit Sen             : IP-ROCIS
   Kantharuban Sivalingam : CASSCF convergence, NEVPT2, FIC-MRCI
   Bernardo de Souza      : ESD, SOC TD-DFT
   Georgi Stoychev        : AutoAux, RI-MP2 NMR
   Willem Van den Heuvel  : Paramagnetic NMR
   Boris Wezisla          : Elementary symmetry handling
   Frank Wennmohs         : Technical directorship


 We gratefully acknowledge several colleagues who have allowed us to
 interface, adapt or use parts of their codes:
   Stefan Grimme, W. Hujo, H. Kruse,             : VdW corrections, initial TS optimization,
                  C. Bannwarth                     DFT functionals, gCP, sTDA/sTD-DF
   Ed Valeev                                     : LibInt (2-el integral package), F12 methods
   Garnet Chan, S. Sharma, J. Yang, R. Olivares  : DMRG
   Ulf Ekstrom                                   : XCFun DFT Library
   Mihaly Kallay                                 : mrcc  (arbitrary order and MRCC methods)
   Andreas Klamt, Michael Diedenhofen            : otool_cosmo (COSMO solvation model)
   Jiri Pittner, Ondrej Demel                    : Mk-CCSD
   Frank Weinhold                                : gennbo (NPA and NBO analysis)
   Christopher J. Cramer and Donald G. Truhlar   : smd solvation model
   Lars Goerigk                                  : TD-DFT with DH, B97 family of functionals
   V. Asgeirsson, H. Jonsson                     : NEB implementation
   FAccTs GmbH                                   : IRC, NEB, NEB-TS, Multilevel


 Your calculation uses the libint2 library for the computation of 2-el integrals
 For citations please refer to: http://libint.valeyev.net

 This ORCA versions uses:
   CBLAS   interface :  Fast vector & matrix operations
   LAPACKE interface :  Fast linear algebra routines
   SCALAPACK package :  Parallel linear algebra routines


----- Orbital basis set information -----
Your calculation utilizes the basis: aug-pc-4
   H, C-F              : F. Jensen, J. Chem. Phys. 115, 9113 (2001).
                         F. Jensen, J. Chem. Phys. 116, 7372 (2002).
                         F. Jensen, J. Chem. Phys. 117, 9234 (2002).
   Si-Cl               : F. Jensen, T. Helgaker, J. Chem. Phys. 121, 3463 (2004).
   He-B, Ne-Mg, Al, Ar : F. Jensen, J. Phys. Chem. A 111, 11198 (2007).
   K, Ca, Ga-Kr        : F. Jensen, J. Chem. Phys. 136, 094110 (2012).
   Sc-Zn               : F. Jensen, J. Chem. Phys. 138, 014107 (2013).

================================================================================
                                        WARNINGS
                       Please study these warnings very carefully!
================================================================================


INFO   : the flag for use of LIBINT has been found!

================================================================================
                                       INPUT FILE
================================================================================
NAME = hns_pbe.inp
|  1> !uks pbe nori aug-pc-4 grid5 nofinalgrid verytightscf
|  2> 
|  3> %maxcore 1500
|  4> 
|  5> %pal nprocs 4 end
|  6> 
|  7> %scf
|  8> 	maxiter 200
|  9> end
| 10> %elprop
| 11> 	dipole true
| 12> 	 polar 1
| 13> 	 maxiter 200
| 14> end
| 15> 
| 16> * xyz 0 1
| 17> N 1.0375899124 0.1438382012 0.0000000000
| 18> S -0.5437813358 -0.0126986493 0.0000000000
| 19> H 1.4373719861 -0.8036890193 0.0000000000
| 20> *
| 21> 
| 22>                          ****END OF INPUT****
================================================================================

                       ****************************
                       * Single Point Calculation *
                       ****************************

---------------------------------
CARTESIAN COORDINATES (ANGSTROEM)
---------------------------------
  N      1.037590    0.143838    0.000000
  S     -0.543781   -0.012699    0.000000
  H      1.437372   -0.803689    0.000000

----------------------------
CARTESIAN COORDINATES (A.U.)
----------------------------
  NO LB      ZA    FRAG     MASS         X           Y           Z
   0 N     7.0000    0    14.007    1.960761    0.271815    0.000000
   1 S    16.0000    0    32.060   -1.027598   -0.023997    0.000000
   2 H     1.0000    0     1.008    2.716239   -1.518752    0.000000

--------------------------------
INTERNAL COORDINATES (ANGSTROEM)
--------------------------------
 N      0   0   0     0.000000000000     0.00000000     0.00000000
 S      1   0   0     1.589100000062     0.00000000     0.00000000
 H      1   2   0     1.028413117400   107.22274440     0.00000000

---------------------------
INTERNAL COORDINATES (A.U.)
---------------------------
 N      0   0   0     0.000000000000     0.00000000     0.00000000
 S      1   0   0     3.002963799532     0.00000000     0.00000000
 H      1   2   0     1.943419144418   107.22274440     0.00000000

---------------------
BASIS SET INFORMATION
---------------------
There are 3 groups of distinct atoms

 Group   1 Type N   : 27s12p7d4f3g2h contracted to 9s8p7d4f3g2h pattern {1191111111/51111111/1111111/1111/111/11}
 Group   2 Type S   : 44s27p7d4f3g2h contracted to 8s7p7d4f3g2h pattern {15121211111/111111111/1111111/1111/111/11}
 Group   3 Type H   : 12s7p4d3f2g contracted to 8s7p4d3f2g pattern {51111111/1111111/1111/111/11}

Atom   0N    basis set group =>   1
Atom   1S    basis set group =>   2
Atom   2H    basis set group =>   3


           ************************************************************
           *        Program running with 4 parallel MPI-processes     *
           *              working on a common directory               *
           ************************************************************
------------------------------------------------------------------------------
                           ORCA GTO INTEGRAL CALCULATION
------------------------------------------------------------------------------

                         BASIS SET STATISTICS AND STARTUP INFO

 # of primitive gaussian shells          ...  170
 # of primitive gaussian functions       ...  504
 # of contracted shells                  ...   88
 # of contracted basis functions         ...  374
 Highest angular momentum                ...    5
 Maximum contraction depth               ...   15
 Integral package used                   ... LIBINT
 Integral threshhold            Thresh   ...  1.000e-12
 Primitive cut-off              TCut     ...  1.000e-14


------------------------------ INTEGRAL EVALUATION ----------------------------


 * One electron integrals 
 Pre-screening matrix                    ... done
 Shell pair data                         ... done (   0.002 sec)



           ************************************************************
           *        Program running with 4 parallel MPI-processes     *
           *              working on a common directory               *
           ************************************************************
-------------------------------------------------------------------------------
                                 ORCA SCF
-------------------------------------------------------------------------------

------------
SCF SETTINGS
------------
Hamiltonian:
 Density Functional     Method          .... DFT(GTOs)
 Exchange Functional    Exchange        .... PBE
   PBE kappa parameter   XKappa         ....  0.804000
   PBE mue parameter    XMuePBE         ....  0.219520
 Correlation Functional Correlation     .... PBE
   PBE beta parameter  CBetaPBE         ....  0.066725
 LDA part of GGA corr.  LDAOpt          .... PW91-LDA
 Gradients option       PostSCFGGA      .... off
   Density functional embedding theory  .... OFF
   NL short-range parameter             ....  6.400000


General Settings:
 Integral files         IntName         .... hns_pbe
 Hartree-Fock type      HFTyp           .... UHF
 Total Charge           Charge          ....    0
 Multiplicity           Mult            ....    1
 Number of Electrons    NEL             ....   24
 Basis Dimension        Dim             ....  374
 Nuclear Repulsion      ENuc            ....     44.8674231713 Eh

Convergence Acceleration:
 DIIS                   CNVDIIS         .... on
   Start iteration      DIISMaxIt       ....    12
   Startup error        DIISStart       ....  0.200000
   # of expansion vecs  DIISMaxEq       ....     5
   Bias factor          DIISBfac        ....   1.050
   Max. coefficient     DIISMaxC        ....  10.000
 Newton-Raphson         CNVNR           .... off
 SOSCF                  CNVSOSCF        .... off
 Level Shifting         CNVShift        .... on
   Level shift para.    LevelShift      ....    0.2500
   Turn off err/grad.   ShiftErr        ....    0.0010
 Zerner damping         CNVZerner       .... off
 Static damping         CNVDamp         .... on
   Fraction old density DampFac         ....    0.7000
   Max. Damping (<1)    DampMax         ....    0.9800
   Min. Damping (>=0)   DampMin         ....    0.0000
   Turn off err/grad.   DampErr         ....    0.1000
 Fernandez-Rico         CNVRico         .... off

SCF Procedure:
 Maximum # iterations   MaxIter         ....   200
 SCF integral mode      SCFMode         .... Direct
   Integral package                     .... LIBINT
 Reset frequency        DirectResetFreq ....    20
 Integral Threshold     Thresh          ....  1.000e-12 Eh
 Primitive CutOff       TCut            ....  1.000e-14 Eh

Convergence Tolerance:
 Convergence Check Mode ConvCheckMode   .... Total+1el-Energy
 Convergence forced     ConvForced      .... 0
 Energy Change          TolE            ....  1.000e-09 Eh
 1-El. energy change                    ....  1.000e-06 Eh
 DIIS Error             TolErr          ....  1.000e-08


Diagonalization of the overlap matrix:
Smallest eigenvalue                        ... 2.511e-06
Time for diagonalization                   ...    0.025 sec
Threshold for overlap eigenvalues          ... 1.000e-08
Number of eigenvalues below threshold      ... 0
Time for construction of square roots      ...    0.019 sec
Total time needed                          ...    0.045 sec

-------------------
DFT GRID GENERATION
-------------------

General Integration Accuracy     IntAcc      ...  5.010
Radial Grid Type                 RadialGrid  ... Gauss-Chebyshev
Angular Grid (max. acc.)         AngularGrid ... Lebedev-434
Angular grid pruning method      GridPruning ... 3 (G Style)
Weight generation scheme         WeightScheme... Becke
Basis function cutoff            BFCut       ...    1.0000e-12
Integration weight cutoff        WCut        ...    1.0000e-14
Grids for H and He will be reduced by one unit

# of grid points (after initial pruning)     ...  29022 (   0.0 sec)
# of grid points (after weights+screening)   ...  28782 (   0.0 sec)
nearest neighbour list constructed           ...    0.0 sec
Grid point re-assignment to atoms done       ...    0.0 sec
Grid point division into batches done        ...    0.2 sec
Reduced shell lists constructed in    0.3 sec

Total number of grid points                  ...    28782
Total number of batches                      ...      451
Average number of points per batch           ...       63
Average number of grid points per atom       ...     9594
Average number of shells per batch           ...    69.67 (79.17%)
Average number of basis functions per batch  ...   303.18 (81.06%)
Average number of large shells per batch     ...    63.83 (91.63%)
Average number of large basis fcns per batch ...   281.29 (92.78%)
Maximum spatial batch extension              ...  16.27, 15.14, 14.78 au
Average spatial batch extension              ...   0.72,  0.73,  0.76 au

Time for grid setup =    0.347 sec

------------------------------
INITIAL GUESS: MODEL POTENTIAL
------------------------------
Loading Hartree-Fock densities                     ... done
Calculating cut-offs                               ... done
Setting up the integral package                    ... done
Initializing the effective Hamiltonian             ... done
Starting the Coulomb interaction                   ... done (   0.0 sec)
Reading the grid                                   ... done
Mapping shells                                     ... done
Starting the XC term evaluation                    ... done (   0.5 sec)
  promolecular density results
     # of electrons  =     23.999514212
     EX              =    -31.657147233
     EC              =     -0.867366125
     EX+EC           =    -32.524513358
Transforming the Hamiltonian                       ... done (   0.0 sec)
Diagonalizing the Hamiltonian                      ... done (   0.0 sec)
Back transforming the eigenvectors                 ... done (   0.0 sec)
Now organizing SCF variables                       ... done
                      ------------------
                      INITIAL GUESS DONE (   1.1 sec)
                      ------------------
--------------
SCF ITERATIONS
--------------
ITER       Energy         Delta-E        Max-DP      RMS-DP      [F,P]     Damp
               ***  Starting incremental Fock matrix formation  ***
  0   -453.1988014252   0.000000000000 0.01611370  0.00021672  0.2995861 0.7000
  1   -453.2594057051  -0.060604279862 0.01052405  0.00012900  0.0676431 0.7000
                               ***Turning on DIIS***
  2   -453.2635264168  -0.004120711747 0.03106104  0.00022134  0.0565421 0.0000
  3   -453.2954239955  -0.031897578658 0.01661679  0.00015979  0.0366161 0.0000
  4   -453.2962167887  -0.000792793203 0.00377780  0.00005503  0.0345300 0.0000
  5   -453.2973597489  -0.001142960189 0.00156412  0.00001974  0.0159113 0.0000
  6   -453.2976688758  -0.000309126906 0.00083336  0.00001065  0.0063358 0.0000
  7   -453.2977064328  -0.000037556981 0.00035718  0.00000426  0.0029621 0.0000
  8   -453.2977142447  -0.000007811984 0.00019544  0.00000267  0.0012255 0.0000
  9   -453.2977156580  -0.000001413285 0.00015909  0.00000189  0.0004827 0.0000
 10   -453.2977158377  -0.000000179652 0.00004381  0.00000043  0.0002830 0.0000
 11   -453.2977159283  -0.000000090656 0.00001436  0.00000012  0.0000175 0.0000
 12   -453.2977159293  -0.000000000953 0.00000400  0.00000003  0.0000054 0.0000
 13   -453.2977159293  -0.000000000054 0.00000249  0.00000002  0.0000009 0.0000
 14   -453.2977159294  -0.000000000015 0.00000530  0.00000004  0.0000004 0.0000
 15   -453.2977159293   0.000000000011 0.00000451  0.00000004  0.0000001 0.0000
                 **** Energy Check signals convergence ****

               *****************************************************
               *                     SUCCESS                       *
               *           SCF CONVERGED AFTER  16 CYCLES          *
               *****************************************************


----------------
TOTAL SCF ENERGY
----------------

Total Energy       :         -453.29771593 Eh          -12334.85794 eV

Components:
Nuclear Repulsion  :           44.86742317 Eh            1220.90465 eV
Electronic Energy  :         -498.16513910 Eh          -13555.76260 eV
One Electron Energy:         -713.56214424 Eh          -19417.01309 eV
Two Electron Energy:          215.39700514 Eh            5861.25049 eV

Virial components:
Potential Energy   :         -906.02988186 Eh          -24654.32649 eV
Kinetic Energy     :          452.73216593 Eh           12319.46854 eV
Virial Ratio       :            2.00124919


DFT components:
N(Alpha)           :       12.000001130071 electrons
N(Beta)            :       12.000001130071 electrons
N(Total)           :       24.000002260142 electrons
E(X)               :      -31.777609519007 Eh       
E(C)               :       -0.868752617563 Eh       
E(XC)              :      -32.646362136569 Eh       
DFET-embed. en.    :        0.000000000000 Eh       

---------------
SCF CONVERGENCE
---------------

  Last Energy change         ...    4.0927e-12  Tolerance :   1.0000e-09
  Last MAX-Density change    ...    5.2076e-06  Tolerance :   1.0000e-08
  Last RMS-Density change    ...    4.8766e-08  Tolerance :   1.0000e-09
  Last DIIS Error            ...    3.9638e-08  Tolerance :   1.0000e-08

             **** THE GBW FILE WAS UPDATED (hns_pbe.gbw) ****
             **** DENSITY FILE WAS UPDATED (hns_pbe.scfp.tmp) ****
             **** ENERGY FILE WAS UPDATED (hns_pbe.en.tmp) ****
----------------------
UHF SPIN CONTAMINATION
----------------------

Warning: in a DFT calculation there is little theoretical justification to 
         calculate <S**2> as in Hartree-Fock theory. We will do it anyways
         but you should keep in mind that the values have only limited relevance

Expectation value of <S**2>     :    -0.000000
Ideal value S*(S+1) for S=0.0   :     0.000000
Deviation                       :    -0.000000

----------------
ORBITAL ENERGIES
----------------
                 SPIN UP ORBITALS
  NO   OCC          E(Eh)            E(eV) 
   0   1.0000     -88.083769     -2396.8812 
   1   1.0000     -14.055021      -382.4566 
   2   1.0000      -7.719391      -210.0553 
   3   1.0000      -5.742946      -156.2735 
   4   1.0000      -5.738683      -156.1575 
   5   1.0000      -5.727419      -155.8510 
   6   1.0000      -0.853445       -23.2234 
   7   1.0000      -0.592683       -16.1277 
   8   1.0000      -0.423841       -11.5333 
   9   1.0000      -0.344037        -9.3617 
  10   1.0000      -0.330134        -8.9834 
  11   1.0000      -0.195324        -5.3150 
  12   0.0000      -0.179123        -4.8742 
  13   0.0000      -0.034534        -0.9397 
  14   0.0000      -0.007036        -0.1915 
  15   0.0000       0.015013         0.4085 
  16   0.0000       0.017021         0.4632 
  17   0.0000       0.024879         0.6770 
  18   0.0000       0.040223         1.0945 
  19   0.0000       0.046433         1.2635 
  20   0.0000       0.048939         1.3317 
  21   0.0000       0.050695         1.3795 
  22   0.0000       0.056815         1.5460 
  23   0.0000       0.064588         1.7575 
  24   0.0000       0.083112         2.2616 
  25   0.0000       0.094801         2.5797 
  26   0.0000       0.096366         2.6223 
  27   0.0000       0.109380         2.9764 
  28   0.0000       0.116316         3.1651 
  29   0.0000       0.123409         3.3581 
  30   0.0000       0.129845         3.5333 
  31   0.0000       0.132383         3.6023 
  32   0.0000       0.137209         3.7337 
  33   0.0000       0.148633         4.0445 
  34   0.0000       0.153156         4.1676 
  35   0.0000       0.166331         4.5261 
  36   0.0000       0.170126         4.6294 
  37   0.0000       0.175918         4.7870 
  38   0.0000       0.181693         4.9441 
  39   0.0000       0.185768         5.0550 
  40   0.0000       0.205051         5.5797 
  41   0.0000       0.208028         5.6607 
  42   0.0000       0.215985         5.8773 
  43   0.0000       0.221251         6.0206 
  44   0.0000       0.227581         6.1928 
  45   0.0000       0.239352         6.5131 
  46   0.0000       0.244634         6.6568 
  47   0.0000       0.250966         6.8291 
  48   0.0000       0.256026         6.9668 
  49   0.0000       0.257766         7.0142 
  50   0.0000       0.262397         7.1402 
  51   0.0000       0.269834         7.3425 
  52   0.0000       0.274442         7.4680 
  53   0.0000       0.284643         7.7455 
  54   0.0000       0.317970         8.6524 
  55   0.0000       0.322189         8.7672 
  56   0.0000       0.337551         9.1852 
  57   0.0000       0.340297         9.2600 
  58   0.0000       0.342602         9.3227 
  59   0.0000       0.347611         9.4590 
  60   0.0000       0.357313         9.7230 
  61   0.0000       0.360389         9.8067 
  62   0.0000       0.380300        10.3485 
  63   0.0000       0.387810        10.5529 
  64   0.0000       0.394622        10.7382 
  65   0.0000       0.404182        10.9984 
  66   0.0000       0.415993        11.3197 
  67   0.0000       0.418687        11.3930 
  68   0.0000       0.425209        11.5705 
  69   0.0000       0.426479        11.6051 
  70   0.0000       0.437883        11.9154 
  71   0.0000       0.444045        12.0831 
  72   0.0000       0.446960        12.1624 
  73   0.0000       0.447750        12.1839 
  74   0.0000       0.449412        12.2291 
  75   0.0000       0.459833        12.5127 
  76   0.0000       0.462202        12.5772 
  77   0.0000       0.463575        12.6145 
  78   0.0000       0.496989        13.5238 
  79   0.0000       0.502306        13.6685 
  80   0.0000       0.507636        13.8135 
  81   0.0000       0.509664        13.8687 
  82   0.0000       0.510148        13.8818 
  83   0.0000       0.519044        14.1239 
  84   0.0000       0.527319        14.3491 
  85   0.0000       0.537430        14.6242 
  86   0.0000       0.545443        14.8422 
  87   0.0000       0.553072        15.0499 
  88   0.0000       0.558116        15.1871 
  89   0.0000       0.571013        15.5381 
  90   0.0000       0.578040        15.7293 
  91   0.0000       0.586867        15.9695 
  92   0.0000       0.587794        15.9947 
  93   0.0000       0.595188        16.1959 
  94   0.0000       0.607774        16.5384 
  95   0.0000       0.635480        17.2923 
  96   0.0000       0.638797        17.3826 
  97   0.0000       0.645235        17.5577 
  98   0.0000       0.669499        18.2180 
  99   0.0000       0.675536        18.3823 
 100   0.0000       0.687471        18.7070 
 101   0.0000       0.696967        18.9654 
 102   0.0000       0.697322        18.9751 
 103   0.0000       0.725236        19.7347 
 104   0.0000       0.740400        20.1473 
 105   0.0000       0.741178        20.1685 
 106   0.0000       0.753082        20.4924 
 107   0.0000       0.754725        20.5371 
 108   0.0000       0.756813        20.5939 
 109   0.0000       0.768449        20.9105 
 110   0.0000       0.768790        20.9198 
 111   0.0000       0.780214        21.2307 
 112   0.0000       0.780783        21.2462 
 113   0.0000       0.784927        21.3589 
 114   0.0000       0.793067        21.5805 
 115   0.0000       0.795171        21.6377 
 116   0.0000       0.804934        21.9034 
 117   0.0000       0.812772        22.1166 
 118   0.0000       0.827421        22.5153 
 119   0.0000       0.837586        22.7919 
 120   0.0000       0.844245        22.9731 
 121   0.0000       0.849192        23.1077 
 122   0.0000       0.858493        23.3608 
 123   0.0000       0.868064        23.6212 
 124   0.0000       0.874184        23.7878 
 125   0.0000       0.880649        23.9637 
 126   0.0000       0.901332        24.5265 
 127   0.0000       0.911942        24.8152 
 128   0.0000       0.929515        25.2934 
 129   0.0000       0.931271        25.3412 
 130   0.0000       0.934073        25.4174 
 131   0.0000       0.949608        25.8401 
 132   0.0000       0.958752        26.0890 
 133   0.0000       0.960898        26.1474 
 134   0.0000       0.966024        26.2869 
 135   0.0000       0.977471        26.5983 
 136   0.0000       0.991211        26.9722 
 137   0.0000       1.018566        27.7166 
 138   0.0000       1.018879        27.7251 
 139   0.0000       1.027773        27.9671 
 140   0.0000       1.028297        27.9814 
 141   0.0000       1.036567        28.2064 
 142   0.0000       1.062404        28.9095 
 143   0.0000       1.092419        29.7262 
 144   0.0000       1.098518        29.8922 
 145   0.0000       1.113299        30.2944 
 146   0.0000       1.159621        31.5549 
 147   0.0000       1.216214        33.0949 
 148   0.0000       1.225611        33.3506 
 149   0.0000       1.263298        34.3761 
 150   0.0000       1.283575        34.9279 
 151   0.0000       1.370661        37.2976 
 152   0.0000       1.379150        37.5286 
 153   0.0000       1.394690        37.9515 
 154   0.0000       1.437375        39.1130 
 155   0.0000       1.451159        39.4881 
 156   0.0000       1.467079        39.9213 
 157   0.0000       1.496472        40.7211 
 158   0.0000       1.532717        41.7073 
 159   0.0000       1.536243        41.8033 
 160   0.0000       1.550717        42.1972 
 161   0.0000       1.560789        42.4712 
 162   0.0000       1.597310        43.4650 
 163   0.0000       1.627446        44.2850 
 164   0.0000       1.662167        45.2299 
 165   0.0000       1.686336        45.8875 
 166   0.0000       1.718819        46.7715 
 167   0.0000       1.782362        48.5005 
 168   0.0000       1.800727        49.0003 
 169   0.0000       1.818835        49.4930 
 170   0.0000       1.836447        49.9723 
 171   0.0000       1.870173        50.8900 
 172   0.0000       1.954794        53.1926 
 173   0.0000       2.029492        55.2253 
 174   0.0000       2.090403        56.8828 
 175   0.0000       2.144548        58.3561 
 176   0.0000       2.192898        59.6718 
 177   0.0000       2.219172        60.3867 
 178   0.0000       2.231859        60.7320 
 179   0.0000       2.290120        62.3173 
 180   0.0000       2.343283        63.7640 
 181   0.0000       2.359154        64.1958 
 182   0.0000       2.373866        64.5962 
 183   0.0000       2.502643        68.1004 
 184   0.0000       2.544644        69.2433 
 185   0.0000       2.568320        69.8875 
 186   0.0000       2.578988        70.1778 
 187   0.0000       2.657875        72.3245 
 188   0.0000       2.662853        72.4599 
 189   0.0000       2.667529        72.5871 
 190   0.0000       2.743706        74.6600 
 191   0.0000       2.827105        76.9294 
 192   0.0000       2.856994        77.7427 
 193   0.0000       2.959638        80.5359 
 194   0.0000       3.004969        81.7694 
 195   0.0000       3.039922        82.7205 
 196   0.0000       3.089982        84.0827 
 197   0.0000       3.120397        84.9103 
 198   0.0000       3.132959        85.2521 
 199   0.0000       3.176041        86.4245 
 200   0.0000       3.232957        87.9732 
 201   0.0000       3.293439        89.6190 
 202   0.0000       3.309205        90.0480 
 203   0.0000       3.323954        90.4494 
 204   0.0000       3.331637        90.6585 
 205   0.0000       3.407749        92.7296 
 206   0.0000       3.420988        93.0898 
 207   0.0000       3.473580        94.5209 
 208   0.0000       3.491465        95.0076 
 209   0.0000       3.523125        95.8691 
 210   0.0000       3.525424        95.9317 
 211   0.0000       3.548281        96.5536 
 212   0.0000       3.591798        97.7378 
 213   0.0000       3.604737        98.0899 
 214   0.0000       3.694180       100.5238 
 215   0.0000       3.744048       101.8807 
 216   0.0000       3.814063       103.7859 
 217   0.0000       3.865578       105.1877 
 218   0.0000       3.866840       105.2221 
 219   0.0000       3.937894       107.1556 
 220   0.0000       3.956827       107.6707 
 221   0.0000       4.009116       109.0936 
 222   0.0000       4.170008       113.4717 
 223   0.0000       4.262138       115.9787 
 224   0.0000       4.300030       117.0098 
 225   0.0000       4.339593       118.0863 
 226   0.0000       4.574449       124.4771 
 227   0.0000       4.606896       125.3600 
 228   0.0000       4.627885       125.9312 
 229   0.0000       4.763325       129.6167 
 230   0.0000       4.867628       132.4549 
 231   0.0000       4.916799       133.7929 
 232   0.0000       4.961814       135.0178 
 233   0.0000       5.027965       136.8179 
 234   0.0000       5.119485       139.3083 
 235   0.0000       5.124544       139.4459 
 236   0.0000       5.140888       139.8907 
 237   0.0000       5.143264       139.9553 
 238   0.0000       5.182360       141.0192 
 239   0.0000       5.293849       144.0530 
 240   0.0000       5.366130       146.0198 
 241   0.0000       5.441901       148.0817 
 242   0.0000       5.564838       151.4269 
 243   0.0000       5.593330       152.2023 
 244   0.0000       5.615806       152.8139 
 245   0.0000       5.622601       152.9988 
 246   0.0000       5.714651       155.5036 
 247   0.0000       5.722238       155.7100 
 248   0.0000       5.822395       158.4354 
 249   0.0000       5.898152       160.4969 
 250   0.0000       5.974686       162.5795 
 251   0.0000       6.068195       165.1240 
 252   0.0000       6.075227       165.3153 
 253   0.0000       6.181969       168.2199 
 254   0.0000       6.230608       169.5435 
 255   0.0000       6.275765       170.7723 
 256   0.0000       6.374495       173.4588 
 257   0.0000       6.377110       173.5300 
 258   0.0000       6.517606       177.3531 
 259   0.0000       6.703281       182.4056 
 260   0.0000       6.740863       183.4282 
 261   0.0000       6.764264       184.0650 
 262   0.0000       7.035990       191.4590 
 263   0.0000       7.387338       201.0197 
 264   0.0000       7.394670       201.2192 
 265   0.0000       7.554034       205.5557 
 266   0.0000       7.587793       206.4743 
 267   0.0000       7.822484       212.8606 
 268   0.0000       7.901308       215.0055 
 269   0.0000       8.199297       223.1142 
 270   0.0000       8.204656       223.2600 
 271   0.0000       8.238373       224.1775 
 272   0.0000       8.299049       225.8286 
 273   0.0000       8.318755       226.3648 
 274   0.0000       8.446311       229.8358 
 275   0.0000       8.448188       229.8869 
 276   0.0000       8.492172       231.0837 
 277   0.0000       8.606655       234.1990 
 278   0.0000       8.706042       236.9034 
 279   0.0000       8.808437       239.6898 
 280   0.0000       8.843096       240.6329 
 281   0.0000       8.937574       243.2038 
 282   0.0000       9.044355       246.1094 
 283   0.0000       9.074513       246.9301 
 284   0.0000       9.408440       256.0167 
 285   0.0000       9.588760       260.9234 
 286   0.0000       9.752503       265.3791 
 287   0.0000       9.905516       269.5428 
 288   0.0000      10.079358       274.2733 
 289   0.0000      11.244327       305.9737 
 290   0.0000      11.296202       307.3853 
 291   0.0000      11.310957       307.7868 
 292   0.0000      11.340541       308.5918 
 293   0.0000      11.388125       309.8866 
 294   0.0000      11.407275       310.4077 
 295   0.0000      11.423084       310.8379 
 296   0.0000      11.434603       311.1514 
 297   0.0000      11.442040       311.3537 
 298   0.0000      11.478726       312.3520 
 299   0.0000      11.489417       312.6429 
 300   0.0000      11.512560       313.2727 
 301   0.0000      11.520805       313.4970 
 302   0.0000      11.617536       316.1292 
 303   0.0000      11.621028       316.2243 
 304   0.0000      11.680431       317.8407 
 305   0.0000      11.746925       319.6501 
 306   0.0000      11.863305       322.8170 
 307   0.0000      11.911743       324.1350 
 308   0.0000      11.957992       325.3935 
 309   0.0000      12.420258       337.9724 
 310   0.0000      12.424344       338.0836 
 311   0.0000      12.550953       341.5288 
 312   0.0000      12.673035       344.8508 
 313   0.0000      12.714474       345.9784 
 314   0.0000      12.803160       348.3917 
 315   0.0000      12.890592       350.7708 
 316   0.0000      13.631420       370.9298 
 317   0.0000      13.672390       372.0446 
 318   0.0000      13.922193       378.8421 
 319   0.0000      14.114892       384.0858 
 320   0.0000      14.659949       398.9175 
 321   0.0000      14.763965       401.7479 
 322   0.0000      15.001131       408.2015 
 323   0.0000      15.123259       411.5248 
 324   0.0000      15.189839       413.3365 
 325   0.0000      15.276695       415.7000 
 326   0.0000      15.376803       418.4241 
 327   0.0000      15.755129       428.7189 
 328   0.0000      15.838262       430.9810 
 329   0.0000      16.078090       437.5071 
 330   0.0000      16.118116       438.5962 
 331   0.0000      16.592679       451.5098 
 332   0.0000      16.702936       454.5100 
 333   0.0000      16.705936       454.5916 
 334   0.0000      16.839230       458.2187 
 335   0.0000      16.887446       459.5308 
 336   0.0000      16.888549       459.5608 
 337   0.0000      16.979343       462.0314 
 338   0.0000      17.057842       464.1675 
 339   0.0000      17.171375       467.2569 
 340   0.0000      17.261975       469.7222 
 341   0.0000      17.299969       470.7561 
 342   0.0000      17.394142       473.3187 
 343   0.0000      17.514515       476.5942 
 344   0.0000      17.966066       488.8815 
 345   0.0000      18.996211       516.9132 
 346   0.0000      19.047172       518.2999 
 347   0.0000      19.104270       519.8536 
 348   0.0000      20.430298       555.9367 
 349   0.0000      20.599522       560.5415 
 350   0.0000      20.952852       570.1561 
 351   0.0000      23.370678       635.9485 
 352   0.0000      23.424045       637.4007 
 353   0.0000      23.535728       640.4397 
 354   0.0000      25.583920       696.1739 
 355   0.0000      26.010767       707.7889 
 356   0.0000      26.957919       733.5623 
 357   0.0000      27.929108       759.9897 
 358   0.0000      30.343299       825.6832 
 359   0.0000      41.180866      1120.5883 
 360   0.0000      47.756893      1299.5311 
 361   0.0000      47.892496      1303.2211 
 362   0.0000      47.924378      1304.0886 
 363   0.0000      48.204759      1311.7182 
 364   0.0000      48.796543      1327.8214 
 365   0.0000      62.364509      1697.0246 
 366   0.0000      62.367294      1697.1004 
 367   0.0000      62.439585      1699.0675 
 368   0.0000      62.502656      1700.7837 
 369   0.0000      63.042189      1715.4652 
 370   0.0000      90.924187      2474.1729 
 371   0.0000      91.037862      2477.2662 
 372   0.0000      92.685930      2522.1124 
 373   0.0000     104.122593      2833.3198 

                 SPIN DOWN ORBITALS
  NO   OCC          E(Eh)            E(eV) 
   0   1.0000     -88.083769     -2396.8812 
   1   1.0000     -14.055021      -382.4566 
   2   1.0000      -7.719391      -210.0553 
   3   1.0000      -5.742946      -156.2735 
   4   1.0000      -5.738683      -156.1575 
   5   1.0000      -5.727419      -155.8510 
   6   1.0000      -0.853445       -23.2234 
   7   1.0000      -0.592683       -16.1277 
   8   1.0000      -0.423841       -11.5333 
   9   1.0000      -0.344037        -9.3617 
  10   1.0000      -0.330134        -8.9834 
  11   1.0000      -0.195324        -5.3150 
  12   0.0000      -0.179123        -4.8742 
  13   0.0000      -0.034534        -0.9397 
  14   0.0000      -0.007036        -0.1915 
  15   0.0000       0.015013         0.4085 
  16   0.0000       0.017021         0.4632 
  17   0.0000       0.024879         0.6770 
  18   0.0000       0.040223         1.0945 
  19   0.0000       0.046433         1.2635 
  20   0.0000       0.048939         1.3317 
  21   0.0000       0.050695         1.3795 
  22   0.0000       0.056815         1.5460 
  23   0.0000       0.064588         1.7575 
  24   0.0000       0.083112         2.2616 
  25   0.0000       0.094801         2.5797 
  26   0.0000       0.096366         2.6223 
  27   0.0000       0.109380         2.9764 
  28   0.0000       0.116316         3.1651 
  29   0.0000       0.123409         3.3581 
  30   0.0000       0.129845         3.5333 
  31   0.0000       0.132383         3.6023 
  32   0.0000       0.137209         3.7337 
  33   0.0000       0.148633         4.0445 
  34   0.0000       0.153156         4.1676 
  35   0.0000       0.166331         4.5261 
  36   0.0000       0.170126         4.6294 
  37   0.0000       0.175918         4.7870 
  38   0.0000       0.181693         4.9441 
  39   0.0000       0.185768         5.0550 
  40   0.0000       0.205051         5.5797 
  41   0.0000       0.208028         5.6607 
  42   0.0000       0.215985         5.8773 
  43   0.0000       0.221251         6.0206 
  44   0.0000       0.227581         6.1928 
  45   0.0000       0.239352         6.5131 
  46   0.0000       0.244634         6.6568 
  47   0.0000       0.250966         6.8291 
  48   0.0000       0.256026         6.9668 
  49   0.0000       0.257766         7.0142 
  50   0.0000       0.262397         7.1402 
  51   0.0000       0.269834         7.3425 
  52   0.0000       0.274442         7.4680 
  53   0.0000       0.284643         7.7455 
  54   0.0000       0.317970         8.6524 
  55   0.0000       0.322189         8.7672 
  56   0.0000       0.337551         9.1852 
  57   0.0000       0.340297         9.2600 
  58   0.0000       0.342602         9.3227 
  59   0.0000       0.347611         9.4590 
  60   0.0000       0.357313         9.7230 
  61   0.0000       0.360389         9.8067 
  62   0.0000       0.380300        10.3485 
  63   0.0000       0.387810        10.5529 
  64   0.0000       0.394622        10.7382 
  65   0.0000       0.404182        10.9984 
  66   0.0000       0.415993        11.3197 
  67   0.0000       0.418687        11.3930 
  68   0.0000       0.425209        11.5705 
  69   0.0000       0.426479        11.6051 
  70   0.0000       0.437883        11.9154 
  71   0.0000       0.444045        12.0831 
  72   0.0000       0.446960        12.1624 
  73   0.0000       0.447750        12.1839 
  74   0.0000       0.449412        12.2291 
  75   0.0000       0.459833        12.5127 
  76   0.0000       0.462202        12.5772 
  77   0.0000       0.463575        12.6145 
  78   0.0000       0.496989        13.5238 
  79   0.0000       0.502306        13.6685 
  80   0.0000       0.507636        13.8135 
  81   0.0000       0.509664        13.8687 
  82   0.0000       0.510148        13.8818 
  83   0.0000       0.519044        14.1239 
  84   0.0000       0.527319        14.3491 
  85   0.0000       0.537430        14.6242 
  86   0.0000       0.545443        14.8422 
  87   0.0000       0.553072        15.0499 
  88   0.0000       0.558116        15.1871 
  89   0.0000       0.571013        15.5381 
  90   0.0000       0.578040        15.7293 
  91   0.0000       0.586867        15.9695 
  92   0.0000       0.587794        15.9947 
  93   0.0000       0.595188        16.1959 
  94   0.0000       0.607774        16.5384 
  95   0.0000       0.635480        17.2923 
  96   0.0000       0.638797        17.3826 
  97   0.0000       0.645235        17.5577 
  98   0.0000       0.669499        18.2180 
  99   0.0000       0.675536        18.3823 
 100   0.0000       0.687471        18.7070 
 101   0.0000       0.696967        18.9654 
 102   0.0000       0.697322        18.9751 
 103   0.0000       0.725236        19.7347 
 104   0.0000       0.740400        20.1473 
 105   0.0000       0.741178        20.1685 
 106   0.0000       0.753082        20.4924 
 107   0.0000       0.754725        20.5371 
 108   0.0000       0.756813        20.5939 
 109   0.0000       0.768449        20.9105 
 110   0.0000       0.768790        20.9198 
 111   0.0000       0.780214        21.2307 
 112   0.0000       0.780783        21.2462 
 113   0.0000       0.784927        21.3589 
 114   0.0000       0.793067        21.5805 
 115   0.0000       0.795171        21.6377 
 116   0.0000       0.804934        21.9034 
 117   0.0000       0.812772        22.1166 
 118   0.0000       0.827421        22.5153 
 119   0.0000       0.837586        22.7919 
 120   0.0000       0.844245        22.9731 
 121   0.0000       0.849192        23.1077 
 122   0.0000       0.858493        23.3608 
 123   0.0000       0.868064        23.6212 
 124   0.0000       0.874184        23.7878 
 125   0.0000       0.880649        23.9637 
 126   0.0000       0.901332        24.5265 
 127   0.0000       0.911942        24.8152 
 128   0.0000       0.929515        25.2934 
 129   0.0000       0.931271        25.3412 
 130   0.0000       0.934073        25.4174 
 131   0.0000       0.949608        25.8401 
 132   0.0000       0.958752        26.0890 
 133   0.0000       0.960898        26.1474 
 134   0.0000       0.966024        26.2869 
 135   0.0000       0.977471        26.5983 
 136   0.0000       0.991211        26.9722 
 137   0.0000       1.018566        27.7166 
 138   0.0000       1.018879        27.7251 
 139   0.0000       1.027773        27.9671 
 140   0.0000       1.028297        27.9814 
 141   0.0000       1.036567        28.2064 
 142   0.0000       1.062404        28.9095 
 143   0.0000       1.092419        29.7262 
 144   0.0000       1.098518        29.8922 
 145   0.0000       1.113299        30.2944 
 146   0.0000       1.159621        31.5549 
 147   0.0000       1.216214        33.0949 
 148   0.0000       1.225611        33.3506 
 149   0.0000       1.263298        34.3761 
 150   0.0000       1.283575        34.9279 
 151   0.0000       1.370661        37.2976 
 152   0.0000       1.379150        37.5286 
 153   0.0000       1.394690        37.9515 
 154   0.0000       1.437375        39.1130 
 155   0.0000       1.451159        39.4881 
 156   0.0000       1.467079        39.9213 
 157   0.0000       1.496472        40.7211 
 158   0.0000       1.532717        41.7073 
 159   0.0000       1.536243        41.8033 
 160   0.0000       1.550717        42.1972 
 161   0.0000       1.560789        42.4712 
 162   0.0000       1.597310        43.4650 
 163   0.0000       1.627446        44.2850 
 164   0.0000       1.662167        45.2299 
 165   0.0000       1.686336        45.8875 
 166   0.0000       1.718819        46.7715 
 167   0.0000       1.782362        48.5005 
 168   0.0000       1.800727        49.0003 
 169   0.0000       1.818835        49.4930 
 170   0.0000       1.836447        49.9723 
 171   0.0000       1.870173        50.8900 
 172   0.0000       1.954794        53.1926 
 173   0.0000       2.029492        55.2253 
 174   0.0000       2.090403        56.8828 
 175   0.0000       2.144548        58.3561 
 176   0.0000       2.192898        59.6718 
 177   0.0000       2.219172        60.3867 
 178   0.0000       2.231859        60.7320 
 179   0.0000       2.290120        62.3173 
 180   0.0000       2.343283        63.7640 
 181   0.0000       2.359154        64.1958 
 182   0.0000       2.373866        64.5962 
 183   0.0000       2.502643        68.1004 
 184   0.0000       2.544644        69.2433 
 185   0.0000       2.568320        69.8875 
 186   0.0000       2.578988        70.1778 
 187   0.0000       2.657875        72.3245 
 188   0.0000       2.662853        72.4599 
 189   0.0000       2.667529        72.5871 
 190   0.0000       2.743706        74.6600 
 191   0.0000       2.827105        76.9294 
 192   0.0000       2.856994        77.7427 
 193   0.0000       2.959638        80.5359 
 194   0.0000       3.004969        81.7694 
 195   0.0000       3.039922        82.7205 
 196   0.0000       3.089982        84.0827 
 197   0.0000       3.120397        84.9103 
 198   0.0000       3.132959        85.2521 
 199   0.0000       3.176041        86.4245 
 200   0.0000       3.232957        87.9732 
 201   0.0000       3.293439        89.6190 
 202   0.0000       3.309205        90.0480 
 203   0.0000       3.323954        90.4494 
 204   0.0000       3.331637        90.6585 
 205   0.0000       3.407749        92.7296 
 206   0.0000       3.420988        93.0898 
 207   0.0000       3.473580        94.5209 
 208   0.0000       3.491465        95.0076 
 209   0.0000       3.523125        95.8691 
 210   0.0000       3.525424        95.9317 
 211   0.0000       3.548281        96.5536 
 212   0.0000       3.591798        97.7378 
 213   0.0000       3.604737        98.0899 
 214   0.0000       3.694180       100.5238 
 215   0.0000       3.744048       101.8807 
 216   0.0000       3.814063       103.7859 
 217   0.0000       3.865578       105.1877 
 218   0.0000       3.866840       105.2221 
 219   0.0000       3.937894       107.1556 
 220   0.0000       3.956827       107.6707 
 221   0.0000       4.009116       109.0936 
 222   0.0000       4.170008       113.4717 
 223   0.0000       4.262138       115.9787 
 224   0.0000       4.300030       117.0098 
 225   0.0000       4.339593       118.0863 
 226   0.0000       4.574449       124.4771 
 227   0.0000       4.606896       125.3600 
 228   0.0000       4.627885       125.9312 
 229   0.0000       4.763325       129.6167 
 230   0.0000       4.867628       132.4549 
 231   0.0000       4.916799       133.7929 
 232   0.0000       4.961814       135.0178 
 233   0.0000       5.027965       136.8179 
 234   0.0000       5.119485       139.3083 
 235   0.0000       5.124544       139.4459 
 236   0.0000       5.140888       139.8907 
 237   0.0000       5.143264       139.9553 
 238   0.0000       5.182360       141.0192 
 239   0.0000       5.293849       144.0530 
 240   0.0000       5.366130       146.0198 
 241   0.0000       5.441901       148.0817 
 242   0.0000       5.564838       151.4269 
 243   0.0000       5.593330       152.2023 
 244   0.0000       5.615806       152.8139 
 245   0.0000       5.622601       152.9988 
 246   0.0000       5.714651       155.5036 
 247   0.0000       5.722238       155.7100 
 248   0.0000       5.822395       158.4354 
 249   0.0000       5.898152       160.4969 
 250   0.0000       5.974686       162.5795 
 251   0.0000       6.068195       165.1240 
 252   0.0000       6.075227       165.3153 
 253   0.0000       6.181969       168.2199 
 254   0.0000       6.230608       169.5435 
 255   0.0000       6.275765       170.7723 
 256   0.0000       6.374495       173.4588 
 257   0.0000       6.377110       173.5300 
 258   0.0000       6.517606       177.3531 
 259   0.0000       6.703281       182.4056 
 260   0.0000       6.740863       183.4282 
 261   0.0000       6.764264       184.0650 
 262   0.0000       7.035990       191.4590 
 263   0.0000       7.387338       201.0197 
 264   0.0000       7.394670       201.2192 
 265   0.0000       7.554034       205.5557 
 266   0.0000       7.587793       206.4743 
 267   0.0000       7.822484       212.8606 
 268   0.0000       7.901308       215.0055 
 269   0.0000       8.199297       223.1142 
 270   0.0000       8.204656       223.2600 
 271   0.0000       8.238373       224.1775 
 272   0.0000       8.299049       225.8286 
 273   0.0000       8.318755       226.3648 
 274   0.0000       8.446311       229.8358 
 275   0.0000       8.448188       229.8869 
 276   0.0000       8.492172       231.0837 
 277   0.0000       8.606655       234.1990 
 278   0.0000       8.706042       236.9034 
 279   0.0000       8.808437       239.6898 
 280   0.0000       8.843096       240.6329 
 281   0.0000       8.937574       243.2038 
 282   0.0000       9.044355       246.1094 
 283   0.0000       9.074513       246.9301 
 284   0.0000       9.408440       256.0167 
 285   0.0000       9.588760       260.9234 
 286   0.0000       9.752503       265.3791 
 287   0.0000       9.905516       269.5428 
 288   0.0000      10.079358       274.2733 
 289   0.0000      11.244327       305.9737 
 290   0.0000      11.296202       307.3853 
 291   0.0000      11.310957       307.7868 
 292   0.0000      11.340541       308.5918 
 293   0.0000      11.388125       309.8866 
 294   0.0000      11.407275       310.4077 
 295   0.0000      11.423084       310.8379 
 296   0.0000      11.434603       311.1514 
 297   0.0000      11.442040       311.3537 
 298   0.0000      11.478726       312.3520 
 299   0.0000      11.489417       312.6429 
 300   0.0000      11.512560       313.2727 
 301   0.0000      11.520805       313.4970 
 302   0.0000      11.617536       316.1292 
 303   0.0000      11.621028       316.2243 
 304   0.0000      11.680431       317.8407 
 305   0.0000      11.746925       319.6501 
 306   0.0000      11.863305       322.8170 
 307   0.0000      11.911743       324.1350 
 308   0.0000      11.957992       325.3935 
 309   0.0000      12.420258       337.9724 
 310   0.0000      12.424344       338.0836 
 311   0.0000      12.550953       341.5288 
 312   0.0000      12.673035       344.8508 
 313   0.0000      12.714474       345.9784 
 314   0.0000      12.803160       348.3917 
 315   0.0000      12.890592       350.7708 
 316   0.0000      13.631420       370.9298 
 317   0.0000      13.672390       372.0446 
 318   0.0000      13.922193       378.8421 
 319   0.0000      14.114892       384.0858 
 320   0.0000      14.659949       398.9175 
 321   0.0000      14.763965       401.7479 
 322   0.0000      15.001131       408.2015 
 323   0.0000      15.123259       411.5248 
 324   0.0000      15.189839       413.3365 
 325   0.0000      15.276695       415.7000 
 326   0.0000      15.376803       418.4241 
 327   0.0000      15.755129       428.7189 
 328   0.0000      15.838262       430.9810 
 329   0.0000      16.078090       437.5071 
 330   0.0000      16.118116       438.5962 
 331   0.0000      16.592679       451.5098 
 332   0.0000      16.702936       454.5100 
 333   0.0000      16.705936       454.5916 
 334   0.0000      16.839230       458.2187 
 335   0.0000      16.887446       459.5308 
 336   0.0000      16.888549       459.5608 
 337   0.0000      16.979343       462.0314 
 338   0.0000      17.057842       464.1675 
 339   0.0000      17.171375       467.2569 
 340   0.0000      17.261975       469.7222 
 341   0.0000      17.299969       470.7561 
 342   0.0000      17.394142       473.3187 
 343   0.0000      17.514515       476.5942 
 344   0.0000      17.966066       488.8815 
 345   0.0000      18.996211       516.9132 
 346   0.0000      19.047172       518.2999 
 347   0.0000      19.104270       519.8536 
 348   0.0000      20.430298       555.9367 
 349   0.0000      20.599522       560.5415 
 350   0.0000      20.952852       570.1561 
 351   0.0000      23.370678       635.9485 
 352   0.0000      23.424045       637.4007 
 353   0.0000      23.535728       640.4397 
 354   0.0000      25.583920       696.1739 
 355   0.0000      26.010767       707.7889 
 356   0.0000      26.957919       733.5623 
 357   0.0000      27.929108       759.9897 
 358   0.0000      30.343299       825.6832 
 359   0.0000      41.180866      1120.5883 
 360   0.0000      47.756893      1299.5311 
 361   0.0000      47.892496      1303.2211 
 362   0.0000      47.924378      1304.0886 
 363   0.0000      48.204759      1311.7182 
 364   0.0000      48.796543      1327.8214 
 365   0.0000      62.364509      1697.0246 
 366   0.0000      62.367294      1697.1004 
 367   0.0000      62.439585      1699.0675 
 368   0.0000      62.502656      1700.7837 
 369   0.0000      63.042189      1715.4652 
 370   0.0000      90.924187      2474.1729 
 371   0.0000      91.037862      2477.2662 
 372   0.0000      92.685930      2522.1124 
 373   0.0000     104.122593      2833.3198 

                    ********************************
                    * MULLIKEN POPULATION ANALYSIS *
                    ********************************

--------------------------------------------
MULLIKEN ATOMIC CHARGES AND SPIN POPULATIONS
--------------------------------------------
   0 N :   -0.157970   -0.000000
   1 S :   -0.050547    0.000000
   2 H :    0.208518   -0.000000
Sum of atomic charges         :   -0.0000000
Sum of atomic spin populations:   -0.0000000

-----------------------------------------------------
MULLIKEN REDUCED ORBITAL CHARGES AND SPIN POPULATIONS
-----------------------------------------------------
CHARGE
  0 N s       :     3.678765  s :     3.678765
      pz      :     0.983364  p :     3.382955
      px      :     1.045594
      py      :     1.353997
      dz2     :     0.004915  d :     0.087845
      dxz     :     0.024318
      dyz     :     0.003128
      dx2y2   :     0.011569
      dxy     :     0.043916
      f0      :     0.000353  f :     0.009995
      f+1     :    -0.000053
      f-1     :    -0.000404
      f+2     :     0.001252
      f-2     :     0.000013
      f+3     :     0.002944
      f-3     :     0.005891
      g0      :    -0.000048  g :    -0.001341
      g+1     :    -0.000399
      g-1     :    -0.000001
      g+2     :     0.000038
      g-2     :    -0.000687
      g+3     :     0.000324
      g-3     :     0.000004
      g+4     :     0.000852
      g-4     :    -0.001423
      h0      :    -0.000025  h :    -0.000249
      h+1     :    -0.000004
      h-1     :    -0.000006
      h+2     :     0.000001
      h-2     :    -0.000004
      h+3     :    -0.000007
      h-3     :    -0.000083
      h+4     :     0.000075
      h-4     :    -0.000010
      h+5     :    -0.000008
      h-5     :    -0.000180
  1 S s       :     6.031360  s :     6.031360
      pz      :     2.930980  p :     9.831842
      px      :     2.980138
      py      :     3.920724
      dz2     :     0.014345  d :     0.165994
      dxz     :     0.039607
      dyz     :    -0.000016
      dx2y2   :     0.037746
      dxy     :     0.074312
      f0      :     0.001368  f :     0.019358
      f+1     :     0.001772
      f-1     :     0.000453
      f+2     :     0.004644
      f-2     :     0.000037
      f+3     :     0.003671
      f-3     :     0.007414
      g0      :     0.000077  g :     0.001923
      g+1     :     0.000521
      g-1     :     0.000014
      g+2     :     0.000136
      g-2     :    -0.000371
      g+3     :     0.000617
      g-3     :     0.000016
      g+4     :     0.000295
      g-4     :     0.000618
      h0      :    -0.000009  h :     0.000070
      h+1     :     0.000002
      h-1     :    -0.000013
      h+2     :     0.000068
      h-2     :     0.000007
      h+3     :    -0.000001
      h-3     :    -0.000100
      h+4     :     0.000071
      h-4     :    -0.000001
      h+5     :     0.000046
      h-5     :     0.000000
  2 H s       :     0.704659  s :     0.704659
      pz      :     0.015469  p :     0.068322
      px      :     0.029747
      py      :     0.023105
      dz2     :     0.001306  d :     0.015820
      dxz     :    -0.006189
      dyz     :     0.003715
      dx2y2   :     0.011723
      dxy     :     0.005265
      f0      :     0.000388  f :     0.003105
      f+1     :     0.000044
      f-1     :     0.000128
      f+2     :    -0.001014
      f-2     :    -0.002094
      f+3     :     0.005824
      f-3     :    -0.000171
      g0      :    -0.000029  g :    -0.000425
      g+1     :     0.000011
      g-1     :     0.000019
      g+2     :     0.000047
      g-2     :     0.000061
      g+3     :     0.000000
      g-3     :    -0.000624
      g+4     :     0.000132
      g-4     :    -0.000043

SPIN
  0 N s       :     0.000000  s :     0.000000
      pz      :     0.000000  p :    -0.000000
      px      :    -0.000000
      py      :    -0.000000
      dz2     :    -0.000000  d :    -0.000000
      dxz     :     0.000000
      dyz     :    -0.000000
      dx2y2   :    -0.000000
      dxy     :     0.000000
      f0      :     0.000000  f :     0.000000
      f+1     :     0.000000
      f-1     :     0.000000
      f+2     :     0.000000
      f-2     :     0.000000
      f+3     :     0.000000
      f-3     :    -0.000000
      g0      :     0.000000  g :     0.000000
      g+1     :     0.000000
      g-1     :     0.000000
      g+2     :     0.000000
      g-2     :     0.000000
      g+3     :     0.000000
      g-3     :    -0.000000
      g+4     :     0.000000
      g-4     :     0.000000
      h0      :     0.000000  h :     0.000000
      h+1     :     0.000000
      h-1     :    -0.000000
      h+2     :    -0.000000
      h-2     :    -0.000000
      h+3     :     0.000000
      h-3     :    -0.000000
      h+4     :    -0.000000
      h-4     :     0.000000
      h+5     :     0.000000
      h-5     :    -0.000000
  1 S s       :     0.000000  s :     0.000000
      pz      :    -0.000000  p :    -0.000000
      px      :    -0.000000
      py      :    -0.000000
      dz2     :    -0.000000  d :    -0.000000
      dxz     :    -0.000000
      dyz     :     0.000000
      dx2y2   :    -0.000000
      dxy     :    -0.000000
      f0      :     0.000000  f :    -0.000000
      f+1     :     0.000000
      f-1     :    -0.000000
      f+2     :    -0.000000
      f-2     :     0.000000
      f+3     :    -0.000000
      f-3     :    -0.000000
      g0      :    -0.000000  g :    -0.000000
      g+1     :     0.000000
      g-1     :    -0.000000
      g+2     :     0.000000
      g-2     :    -0.000000
      g+3     :    -0.000000
      g-3     :     0.000000
      g+4     :     0.000000
      g-4     :    -0.000000
      h0      :     0.000000  h :    -0.000000
      h+1     :    -0.000000
      h-1     :    -0.000000
      h+2     :    -0.000000
      h-2     :    -0.000000
      h+3     :     0.000000
      h-3     :    -0.000000
      h+4     :    -0.000000
      h-4     :     0.000000
      h+5     :     0.000000
      h-5     :    -0.000000
  2 H s       :    -0.000000  s :    -0.000000
      pz      :     0.000000  p :    -0.000000
      px      :     0.000000
      py      :    -0.000000
      dz2     :    -0.000000  d :    -0.000000
      dxz     :    -0.000000
      dyz     :    -0.000000
      dx2y2   :    -0.000000
      dxy     :    -0.000000
      f0      :    -0.000000  f :     0.000000
      f+1     :    -0.000000
      f-1     :    -0.000000
      f+2     :     0.000000
      f-2     :     0.000000
      f+3     :     0.000000
      f-3     :    -0.000000
      g0      :    -0.000000  g :     0.000000
      g+1     :    -0.000000
      g-1     :    -0.000000
      g+2     :    -0.000000
      g-2     :    -0.000000
      g+3     :     0.000000
      g-3     :     0.000000
      g+4     :     0.000000
      g-4     :     0.000000


                     *******************************
                     * LOEWDIN POPULATION ANALYSIS *
                     *******************************

-------------------------------------------
LOEWDIN ATOMIC CHARGES AND SPIN POPULATIONS
-------------------------------------------
   0 N :   -0.193392   -0.000000
   1 S :    1.323353    0.000000
   2 H :   -1.129961   -0.000000

----------------------------------------------------
LOEWDIN REDUCED ORBITAL CHARGES AND SPIN POPULATIONS
----------------------------------------------------
CHARGE
  0 N s       :     3.013968  s :     3.013968
      pz      :     0.789075  p :     3.235847
      px      :     1.194697
      py      :     1.252074
      dz2     :     0.056227  d :     0.571833
      dxz     :     0.081115
      dyz     :     0.001960
      dx2y2   :     0.178541
      dxy     :     0.253990
      f0      :     0.011711  f :     0.233997
      f+1     :     0.026807
      f-1     :     0.006327
      f+2     :     0.021943
      f-2     :     0.001356
      f+3     :     0.063287
      f-3     :     0.102567
      g0      :     0.004522  g :     0.098639
      g+1     :     0.008682
      g-1     :     0.000182
      g+2     :     0.009633
      g-2     :     0.007016
      g+3     :     0.007374
      g-3     :     0.000490
      g+4     :     0.019725
      g-4     :     0.041015
      h0      :     0.002583  h :     0.039109
      h+1     :     0.002887
      h-1     :     0.000341
      h+2     :     0.003135
      h-2     :     0.000017
      h+3     :     0.003521
      h-3     :     0.003014
      h+4     :     0.002108
      h-4     :     0.000390
      h+5     :     0.007676
      h-5     :     0.013437
  1 S s       :     5.081362  s :     5.081362
      pz      :     2.677127  p :     8.928657
      px      :     2.931379
      py      :     3.320152
      dz2     :     0.048378  d :     0.411999
      dxz     :     0.060232
      dyz     :     0.000191
      dx2y2   :     0.128118
      dxy     :     0.175079
      f0      :     0.007395  f :     0.158869
      f+1     :     0.024329
      f-1     :     0.005818
      f+2     :     0.014169
      f-2     :     0.000333
      f+3     :     0.035540
      f-3     :     0.071285
      g0      :     0.003912  g :     0.069175
      g+1     :     0.004809
      g-1     :     0.000048
      g+2     :     0.007719
      g-2     :     0.005304
      g+3     :     0.003776
      g-3     :     0.000363
      g+4     :     0.010860
      g-4     :     0.032382
      h0      :     0.000972  h :     0.026585
      h+1     :     0.002586
      h-1     :     0.000355
      h+2     :     0.001937
      h-2     :     0.000085
      h+3     :     0.002404
      h-3     :     0.003235
      h+4     :     0.001249
      h-4     :     0.000255
      h+5     :     0.002997
      h-5     :     0.010510
  2 H s       :     0.733452  s :     0.733452
      pz      :     0.112790  p :     0.579300
      px      :     0.197991
      py      :     0.268519
      dz2     :     0.048503  d :     0.470763
      dxz     :     0.045701
      dyz     :     0.066694
      dx2y2   :     0.177500
      dxy     :     0.132366
      f0      :     0.022306  f :     0.228165
      f+1     :     0.023037
      f-1     :     0.011241
      f+2     :     0.006095
      f-2     :     0.019990
      f+3     :     0.065314
      f-3     :     0.080182
      g0      :     0.004995  g :     0.118281
      g+1     :     0.010884
      g-1     :     0.004182
      g+2     :     0.008299
      g-2     :     0.008707
      g+3     :     0.000196
      g-3     :     0.006098
      g+4     :     0.048536
      g-4     :     0.026384

SPIN
  0 N s       :    -0.000000  s :    -0.000000
      pz      :    -0.000000  p :    -0.000000
      px      :    -0.000000
      py      :    -0.000000
      dz2     :    -0.000000  d :     0.000000
      dxz     :     0.000000
      dyz     :    -0.000000
      dx2y2   :     0.000000
      dxy     :     0.000000
      f0      :     0.000000  f :     0.000000
      f+1     :     0.000000
      f-1     :     0.000000
      f+2     :     0.000000
      f-2     :    -0.000000
      f+3     :     0.000000
      f-3     :     0.000000
      g0      :    -0.000000  g :     0.000000
      g+1     :     0.000000
      g-1     :     0.000000
      g+2     :     0.000000
      g-2     :    -0.000000
      g+3     :    -0.000000
      g-3     :     0.000000
      g+4     :     0.000000
      g-4     :     0.000000
      h0      :     0.000000  h :    -0.000000
      h+1     :     0.000000
      h-1     :    -0.000000
      h+2     :     0.000000
      h-2     :     0.000000
      h+3     :    -0.000000
      h-3     :     0.000000
      h+4     :    -0.000000
      h-4     :    -0.000000
      h+5     :    -0.000000
      h-5     :    -0.000000
  1 S s       :     0.000000  s :     0.000000
      pz      :     0.000000  p :     0.000000
      px      :     0.000000
      py      :    -0.000000
      dz2     :     0.000000  d :    -0.000000
      dxz     :    -0.000000
      dyz     :    -0.000000
      dx2y2   :     0.000000
      dxy     :    -0.000000
      f0      :     0.000000  f :    -0.000000
      f+1     :     0.000000
      f-1     :    -0.000000
      f+2     :    -0.000000
      f-2     :     0.000000
      f+3     :    -0.000000
      f-3     :     0.000000
      g0      :    -0.000000  g :     0.000000
      g+1     :    -0.000000
      g-1     :    -0.000000
      g+2     :     0.000000
      g-2     :    -0.000000
      g+3     :    -0.000000
      g-3     :    -0.000000
      g+4     :     0.000000
      g-4     :     0.000000
      h0      :    -0.000000  h :    -0.000000
      h+1     :    -0.000000
      h-1     :     0.000000
      h+2     :     0.000000
      h-2     :    -0.000000
      h+3     :    -0.000000
      h-3     :     0.000000
      h+4     :     0.000000
      h-4     :    -0.000000
      h+5     :    -0.000000
      h-5     :    -0.000000
  2 H s       :     0.000000  s :     0.000000
      pz      :     0.000000  p :    -0.000000
      px      :    -0.000000
      py      :    -0.000000
      dz2     :     0.000000  d :     0.000000
      dxz     :    -0.000000
      dyz     :    -0.000000
      dx2y2   :    -0.000000
      dxy     :    -0.000000
      f0      :    -0.000000  f :     0.000000
      f+1     :     0.000000
      f-1     :    -0.000000
      f+2     :     0.000000
      f-2     :    -0.000000
      f+3     :     0.000000
      f-3     :     0.000000
      g0      :    -0.000000  g :    -0.000000
      g+1     :    -0.000000
      g-1     :     0.000000
      g+2     :     0.000000
      g-2     :    -0.000000
      g+3     :     0.000000
      g-3     :    -0.000000
      g+4     :     0.000000
      g-4     :     0.000000


                      *****************************
                      * MAYER POPULATION ANALYSIS *
                      *****************************

  NA   - Mulliken gross atomic population
  ZA   - Total nuclear charge
  QA   - Mulliken gross atomic charge
  VA   - Mayer's total valence
  BVA  - Mayer's bonded valence
  FA   - Mayer's free valence

  ATOM       NA         ZA         QA         VA         BVA        FA
  0 N      7.1580     7.0000    -0.1580     2.8677     2.8677    -0.0000
  1 S     16.0505    16.0000    -0.0505     2.0398     2.0398     0.0000
  2 H      0.7915     1.0000     0.2085     0.9876     0.9876    -0.0000

  Mayer bond orders larger than 0.1
B(  0-N ,  1-S ) :   1.9600 B(  0-N ,  2-H ) :   0.9077 

-------
TIMINGS
-------

Total SCF time: 0 days 0 hours 17 min 48 sec 

Total time                  ....    1068.431 sec
Sum of individual times     ....    1067.157 sec  ( 99.9%)

Fock matrix formation       ....    1063.374 sec  ( 99.5%)
  XC integration            ....      16.476 sec  (  1.5% of F)
    Basis function eval.    ....       1.157 sec  (  7.0% of XC)
    Density eval.           ....       3.460 sec  ( 21.0% of XC)
    XC-Functional eval.     ....       0.166 sec  (  1.0% of XC)
    XC-Potential eval.      ....      10.885 sec  ( 66.1% of XC)
Diagonalization             ....       1.515 sec  (  0.1%)
Density matrix formation    ....       0.023 sec  (  0.0%)
Population analysis         ....       0.260 sec  (  0.0%)
Initial guess               ....       0.729 sec  (  0.1%)
Orbital Transformation      ....       0.000 sec  (  0.0%)
Orbital Orthonormalization  ....       0.000 sec  (  0.0%)
DIIS solution               ....       0.909 sec  (  0.1%)
Grid generation             ....       0.347 sec  (  0.0%)

-------------------------   --------------------
FINAL SINGLE POINT ENERGY      -453.297715929345
-------------------------   --------------------


                            ***************************************
                            *     ORCA property calculations      *
                            ***************************************

                                    ---------------------
                                    Active property flags
                                    ---------------------
   (+) Dipole Moment
   (+) Polarizability


------------------------------------------------------------------------------
                       ORCA ELECTRIC PROPERTIES CALCULATION
------------------------------------------------------------------------------

Dipole Moment Calculation                       ... on
Quadrupole Moment Calculation                   ... off
Polarizability Calculation                      ... Analytic (CP-SCF)
GBWName                                         ... hns_pbe.gbw
Electron density file                           ... hns_pbe.scfp.tmp
The origin for moment calculation is the CENTER OF MASS  = (-0.058257,  0.032014  0.000000)

-------------
DIPOLE MOMENT
-------------
                                X             Y             Z
Electronic contribution:     -1.37180       0.24339       0.00000
Nuclear contribution   :      1.39816      -0.76834       0.00000
                        -----------------------------------------
Total Dipole Moment    :      0.02636      -0.52494       0.00000
                        -----------------------------------------
Magnitude (a.u.)       :      0.52561
Magnitude (Debye)      :      1.33598



--------------------
Rotational spectrum 
--------------------
 
Rotational constants in cm-1:    19.175351     0.632530     0.612331 
Rotational constants in MHz : 574862.568549 18962.761521 18357.219275 

 Dipole components along the rotational axes: 
x,y,z [a.u.] :    -0.002437    -0.525601     0.000000 
x,y,z [Debye]:    -0.006194    -1.335970     0.000000 

 
Transforming and storing MO dipole integrals   ... done

                ... starting polarizability calculation

Opening the Dipole integral file               ... (hns_pbe.dmo.tmp) done
Reading Dipole-MO integrals                    ... done
Solving CP-SCF equations                       ... 

           ************************************************************
           *        Program running with 4 parallel MPI-processes     *
           *              working on a common directory               *
           ************************************************************

------------------------------------------------------------------------------
                           ORCA CP-SCF CALCULATION
------------------------------------------------------------------------------

Input orbitals are from        ... hns_pbe.gbw
Input Perturbation             ... hns_pbe.cpv.tmp
Wavefunction output            ... hns_pbe.cpu.tmp
Perturbation mode              ... Real perturbation (singlet)
Solver                         ... POPLE
Max. number of iterations      ... 200
Convergence tolerance          ... 1.000e-06
Integral handling              ... Direct
Number of perturbations        ... 3
Number of operators            ... 2
Orbital ranges used for CP-SCF:
 Operator 0:  Orbitals   0... 11  to  12...373
 Operator 1:  Orbitals   0... 11  to  12...373
DFT calculation                         ... on
Exchange functional (SCF)               ... PBE
Exchange functional (CP-SCF)            ... PBE
   PBE kappa parameter  XKappa (SCF)    ...  0.804000
   PBE kappa parameter  XKappa (CP-SCF) ...  0.804000
   PBE mue parameter   XMuePBE (SCF)    ...  0.219520
   PBE mue parameter   XMuePBE (CP-SCF) ...  0.219520
Correlation functional (SCF)            ... PBE
Correlation functional (CP-SCF)         ... PBE
   PBE beta parameter CBetaPBE (SCF)    ...  0.066725
   PBE beta parameter CBetaPBE (CP-SCF) ...  0.066725
 LDA part of GGA corr.  LDAOpt (SCF)    ... PW91-LDA
 LDA part of GGA corr.  LDAOpt (CP-SCF) ... PW91-LDA
Variables per vector in CP-SCF ... 8688
Number of vectors sought       ... 3
Recalculating density on grid  ... done
Calculating the xc-kernel      ... done
     CP-SCF ITERATION   0: 
     CP-SCF ITERATION   1:      3.535550372727
     CP-SCF ITERATION   2:      0.049640741479
     CP-SCF ITERATION   3:      0.003473383278
     CP-SCF ITERATION   4:      0.000089353033
     CP-SCF ITERATION   5:      0.000002854307
     CP-SCF ITERATION   6:      0.000000109940
done
Reading CP-SCF coefficients                    ... done
Doing the polarizability tensor   ... done
Cleaning up                                    ... done

-------------------------
THE POLARIZABILITY TENSOR
-------------------------

The raw cartesian tensor (atomic units):
   39.93006      0.06319     -0.00000  
    0.06319     29.44195     -0.00000  
   -0.00000     -0.00000     23.46816  
diagonalized tensor: 
   23.46816     29.44157     39.93044  

    0.00000     -0.00602     -0.99998  
    0.00000      0.99998     -0.00602  
    1.00000     -0.00000      0.00000  

Isotropic polarizability :  30.94672


Timings for individual modules:

Sum of individual times         ...     1737.881 sec (=  28.965 min)
GTO integral calculation        ...        1.973 sec (=   0.033 min)   0.1 %
SCF iterations                  ...     1068.753 sec (=  17.813 min)  61.5 %
Solution of CP-SCF eqns.        ...      667.154 sec (=  11.119 min)  38.4 %
                             ****ORCA TERMINATED NORMALLY****
TOTAL RUN TIME: 0 days 0 hours 28 minutes 58 seconds 716 msec
