
                                 *****************
                                 * O   R   C   A *
                                 *****************

           --- An Ab Initio, DFT and Semiempirical electronic structure package ---

                  #######################################################
                  #                        -***-                        #
                  #          Department of theory and spectroscopy      #
                  #               Directorship: Frank Neese             #
                  #        Max Planck Institute fuer Kohlenforschung    #
                  #                Kaiser Wilhelm Platz 1               #
                  #                 D-45470 Muelheim/Ruhr               #
                  #                      Germany                        #
                  #                                                     #
                  #                  All rights reserved                #
                  #                        -***-                        #
                  #######################################################


                         Program Version 4.1.2  - RELEASE  -


 With contributions from (in alphabetic order):
   Daniel Aravena         : Magnetic Properties
   Michael Atanasov       : Ab Initio Ligand Field Theory
   Alexander A. Auer      : GIAO ZORA
   Ute Becker             : Parallelization
   Giovanni Bistoni       : ED, Open-shell LED
   Martin Brehm           : Molecular dynamics
   Dmytro Bykov           : SCF Hessian
   Vijay G. Chilkuri      : MRCI spin determinant printing
   Dipayan Datta          : RHF DLPNO-CCSD density
   Achintya Kumar Dutta   : EOM-CC, STEOM-CC
   Dmitry Ganyushin       : Spin-Orbit,Spin-Spin,Magnetic field MRCI
   Miquel Garcia          : C-PCM Hessian
   Yang Guo               : DLPNO-NEVPT2, CIM, IAO-localization
   Andreas Hansen         : Spin unrestricted coupled pair/coupled cluster methods
   Benjamin Helmich-Paris : CASSCF linear response (MC-RPA)
   Lee Huntington         : MR-EOM, pCC
   Robert Izsak           : Overlap fitted RIJCOSX, COSX-SCS-MP3, EOM
   Christian Kollmar      : KDIIS, OOCD, Brueckner-CCSD(T), CCSD density
   Simone Kossmann        : Meta GGA functionals, TD-DFT gradient, OOMP2, MP2 Hessian
   Martin Krupicka        : AUTO-CI
   Lucas Lang             : DCDCAS
   Dagmar Lenk            : GEPOL surface, SMD
   Dimitrios Liakos       : Extrapolation schemes; parallel MDCI
   Dimitrios Manganas     : ROCIS; embedding schemes
   Dimitrios Pantazis     : SARC Basis sets
   Taras Petrenko         : DFT Hessian,TD-DFT gradient, ASA, ECA, R-Raman, ABS, FL, XAS/XES, NRVS
   Peter Pinski           : DLPNO-MP2, DLPNO-MP2 Gradient
   Christoph Reimann      : Effective Core Potentials
   Marius Retegan         : Local ZFS, SOC
   Christoph Riplinger    : Optimizer, TS searches, QM/MM, DLPNO-CCSD(T), (RO)-DLPNO pert. Triples
   Tobias Risthaus        : Range-separated hybrids, TD-DFT gradient, RPA, STAB
   Michael Roemelt        : Restricted open shell CIS
   Masaaki Saitow         : Open-shell DLPNO
   Barbara Sandhoefer     : DKH picture change effects
   Avijit Sen             : IP-ROCIS
   Kantharuban Sivalingam : CASSCF convergence, NEVPT2, FIC-MRCI
   Bernardo de Souza      : ESD, SOC TD-DFT
   Georgi Stoychev        : AutoAux, RI-MP2 NMR
   Willem Van den Heuvel  : Paramagnetic NMR
   Boris Wezisla          : Elementary symmetry handling
   Frank Wennmohs         : Technical directorship


 We gratefully acknowledge several colleagues who have allowed us to
 interface, adapt or use parts of their codes:
   Stefan Grimme, W. Hujo, H. Kruse,             : VdW corrections, initial TS optimization,
                  C. Bannwarth                     DFT functionals, gCP, sTDA/sTD-DF
   Ed Valeev                                     : LibInt (2-el integral package), F12 methods
   Garnet Chan, S. Sharma, J. Yang, R. Olivares  : DMRG
   Ulf Ekstrom                                   : XCFun DFT Library
   Mihaly Kallay                                 : mrcc  (arbitrary order and MRCC methods)
   Andreas Klamt, Michael Diedenhofen            : otool_cosmo (COSMO solvation model)
   Jiri Pittner, Ondrej Demel                    : Mk-CCSD
   Frank Weinhold                                : gennbo (NPA and NBO analysis)
   Christopher J. Cramer and Donald G. Truhlar   : smd solvation model
   Lars Goerigk                                  : TD-DFT with DH, B97 family of functionals
   V. Asgeirsson, H. Jonsson                     : NEB implementation
   FAccTs GmbH                                   : IRC, NEB, NEB-TS, Multilevel


 Your calculation uses the libint2 library for the computation of 2-el integrals
 For citations please refer to: http://libint.valeyev.net

 This ORCA versions uses:
   CBLAS   interface :  Fast vector & matrix operations
   LAPACKE interface :  Fast linear algebra routines
   SCALAPACK package :  Parallel linear algebra routines


----- Orbital basis set information -----
Your calculation utilizes the basis: aug-pc-4
   H, C-F              : F. Jensen, J. Chem. Phys. 115, 9113 (2001).
                         F. Jensen, J. Chem. Phys. 116, 7372 (2002).
                         F. Jensen, J. Chem. Phys. 117, 9234 (2002).
   Si-Cl               : F. Jensen, T. Helgaker, J. Chem. Phys. 121, 3463 (2004).
   He-B, Ne-Mg, Al, Ar : F. Jensen, J. Phys. Chem. A 111, 11198 (2007).
   K, Ca, Ga-Kr        : F. Jensen, J. Chem. Phys. 136, 094110 (2012).
   Sc-Zn               : F. Jensen, J. Chem. Phys. 138, 014107 (2013).

================================================================================
                                        WARNINGS
                       Please study these warnings very carefully!
================================================================================


INFO   : the flag for use of LIBINT has been found!

================================================================================
                                       INPUT FILE
================================================================================
NAME = hocl_pbe.inp
|  1> !uks pbe nori aug-pc-4 grid5 nofinalgrid verytightscf
|  2> 
|  3> %maxcore 1500
|  4> 
|  5> %pal nprocs 4 end
|  6> 
|  7> %scf
|  8> 	maxiter 200
|  9> end
| 10> %elprop
| 11> 	dipole true
| 12> 	 polar 1
| 13> 	 maxiter 200
| 14> end
| 15> 
| 16> * xyz 0 1
| 17> O 0.0362 0 1.0964
| 18> H -0.9048 0 1.3042
| 19> Cl 0.0362 0 -0.5927
| 20> *
| 21> 
| 22>                          ****END OF INPUT****
================================================================================

                       ****************************
                       * Single Point Calculation *
                       ****************************

---------------------------------
CARTESIAN COORDINATES (ANGSTROEM)
---------------------------------
  O      0.036200    0.000000    1.096400
  H     -0.904800    0.000000    1.304200
  Cl     0.036200    0.000000   -0.592700

----------------------------
CARTESIAN COORDINATES (A.U.)
----------------------------
  NO LB      ZA    FRAG     MASS         X           Y           Z
   0 O     8.0000    0    15.999    0.068408    0.000000    2.071896
   1 H     1.0000    0     1.008   -1.709824    0.000000    2.464581
   2 Cl   17.0000    0    35.453    0.068408    0.000000   -1.120041

--------------------------------
INTERNAL COORDINATES (ANGSTROEM)
--------------------------------
 O      0   0   0     0.000000000000     0.00000000     0.00000000
 H      1   0   0     0.963671022704     0.00000000     0.00000000
 Cl     1   2   0     1.689100000000   102.45271089     0.00000000

---------------------------
INTERNAL COORDINATES (A.U.)
---------------------------
 O      0   0   0     0.000000000000     0.00000000     0.00000000
 H      1   0   0     1.821074316107     0.00000000     0.00000000
 Cl     1   2   0     3.191936412806   102.45271089     0.00000000

---------------------
BASIS SET INFORMATION
---------------------
There are 3 groups of distinct atoms

 Group   1 Type O   : 27s12p7d4f3g2h contracted to 9s8p7d4f3g2h pattern {1191111111/51111111/1111111/1111/111/11}
 Group   2 Type H   : 12s7p4d3f2g contracted to 8s7p4d3f2g pattern {51111111/1111111/1111/111/11}
 Group   3 Type Cl  : 44s27p7d4f3g2h contracted to 8s7p7d4f3g2h pattern {15121211111/111111111/1111111/1111/111/11}

Atom   0O    basis set group =>   1
Atom   1H    basis set group =>   2
Atom   2Cl   basis set group =>   3


           ************************************************************
           *        Program running with 4 parallel MPI-processes     *
           *              working on a common directory               *
           ************************************************************
------------------------------------------------------------------------------
                           ORCA GTO INTEGRAL CALCULATION
------------------------------------------------------------------------------

                         BASIS SET STATISTICS AND STARTUP INFO

 # of primitive gaussian shells          ...  170
 # of primitive gaussian functions       ...  504
 # of contracted shells                  ...   88
 # of contracted basis functions         ...  374
 Highest angular momentum                ...    5
 Maximum contraction depth               ...   15
 Integral package used                   ... LIBINT
 Integral threshhold            Thresh   ...  1.000e-12
 Primitive cut-off              TCut     ...  1.000e-14


------------------------------ INTEGRAL EVALUATION ----------------------------


 * One electron integrals 
 Pre-screening matrix                    ... done
 Shell pair data                         ... done (   0.002 sec)



           ************************************************************
           *        Program running with 4 parallel MPI-processes     *
           *              working on a common directory               *
           ************************************************************
-------------------------------------------------------------------------------
                                 ORCA SCF
-------------------------------------------------------------------------------

------------
SCF SETTINGS
------------
Hamiltonian:
 Density Functional     Method          .... DFT(GTOs)
 Exchange Functional    Exchange        .... PBE
   PBE kappa parameter   XKappa         ....  0.804000
   PBE mue parameter    XMuePBE         ....  0.219520
 Correlation Functional Correlation     .... PBE
   PBE beta parameter  CBetaPBE         ....  0.066725
 LDA part of GGA corr.  LDAOpt          .... PW91-LDA
 Gradients option       PostSCFGGA      .... off
   Density functional embedding theory  .... OFF
   NL short-range parameter             ....  6.400000


General Settings:
 Integral files         IntName         .... hocl_pbe
 Hartree-Fock type      HFTyp           .... UHF
 Total Charge           Charge          ....    0
 Multiplicity           Mult            ....    1
 Number of Electrons    NEL             ....   26
 Basis Dimension        Dim             ....  374
 Nuclear Repulsion      ENuc            ....     51.2488337089 Eh

Convergence Acceleration:
 DIIS                   CNVDIIS         .... on
   Start iteration      DIISMaxIt       ....    12
   Startup error        DIISStart       ....  0.200000
   # of expansion vecs  DIISMaxEq       ....     5
   Bias factor          DIISBfac        ....   1.050
   Max. coefficient     DIISMaxC        ....  10.000
 Newton-Raphson         CNVNR           .... off
 SOSCF                  CNVSOSCF        .... off
 Level Shifting         CNVShift        .... on
   Level shift para.    LevelShift      ....    0.2500
   Turn off err/grad.   ShiftErr        ....    0.0010
 Zerner damping         CNVZerner       .... off
 Static damping         CNVDamp         .... on
   Fraction old density DampFac         ....    0.7000
   Max. Damping (<1)    DampMax         ....    0.9800
   Min. Damping (>=0)   DampMin         ....    0.0000
   Turn off err/grad.   DampErr         ....    0.1000
 Fernandez-Rico         CNVRico         .... off

SCF Procedure:
 Maximum # iterations   MaxIter         ....   200
 SCF integral mode      SCFMode         .... Direct
   Integral package                     .... LIBINT
 Reset frequency        DirectResetFreq ....    20
 Integral Threshold     Thresh          ....  1.000e-12 Eh
 Primitive CutOff       TCut            ....  1.000e-14 Eh

Convergence Tolerance:
 Convergence Check Mode ConvCheckMode   .... Total+1el-Energy
 Convergence forced     ConvForced      .... 0
 Energy Change          TolE            ....  1.000e-09 Eh
 1-El. energy change                    ....  1.000e-06 Eh
 DIIS Error             TolErr          ....  1.000e-08


Diagonalization of the overlap matrix:
Smallest eigenvalue                        ... 1.995e-06
Time for diagonalization                   ...    0.133 sec
Threshold for overlap eigenvalues          ... 1.000e-08
Number of eigenvalues below threshold      ... 0
Time for construction of square roots      ...    0.024 sec
Total time needed                          ...    0.157 sec

-------------------
DFT GRID GENERATION
-------------------

General Integration Accuracy     IntAcc      ...  5.010
Radial Grid Type                 RadialGrid  ... Gauss-Chebyshev
Angular Grid (max. acc.)         AngularGrid ... Lebedev-434
Angular grid pruning method      GridPruning ... 3 (G Style)
Weight generation scheme         WeightScheme... Becke
Basis function cutoff            BFCut       ...    1.0000e-12
Integration weight cutoff        WCut        ...    1.0000e-14
Grids for H and He will be reduced by one unit

# of grid points (after initial pruning)     ...  29418 (   0.0 sec)
# of grid points (after weights+screening)   ...  29162 (   0.0 sec)
nearest neighbour list constructed           ...    0.0 sec
Grid point re-assignment to atoms done       ...    0.0 sec
Grid point division into batches done        ...    0.2 sec
Reduced shell lists constructed in    0.3 sec

Total number of grid points                  ...    29162
Total number of batches                      ...      457
Average number of points per batch           ...       63
Average number of grid points per atom       ...     9721
Average number of shells per batch           ...    68.46 (77.79%)
Average number of basis functions per batch  ...   298.80 (79.89%)
Average number of large shells per batch     ...    62.38 (91.12%)
Average number of large basis fcns per batch ...   274.95 (92.02%)
Maximum spatial batch extension              ...  14.56, 17.77, 14.26 au
Average spatial batch extension              ...   0.73,  0.81,  0.71 au

Time for grid setup =    0.338 sec

------------------------------
INITIAL GUESS: MODEL POTENTIAL
------------------------------
Loading Hartree-Fock densities                     ... done
Calculating cut-offs                               ... done
Setting up the integral package                    ... done
Initializing the effective Hamiltonian             ... done
Starting the Coulomb interaction                   ... done (   0.0 sec)
Reading the grid                                   ... done
Mapping shells                                     ... done
Starting the XC term evaluation                    ... done (   0.4 sec)
  promolecular density results
     # of electrons  =     25.999510408
     EX              =    -35.806136565
     EC              =     -0.961880528
     EX+EC           =    -36.768017094
Transforming the Hamiltonian                       ... done (   0.0 sec)
Diagonalizing the Hamiltonian                      ... done (   0.0 sec)
Back transforming the eigenvectors                 ... done (   0.0 sec)
Now organizing SCF variables                       ... done
                      ------------------
                      INITIAL GUESS DONE (   1.0 sec)
                      ------------------
--------------
SCF ITERATIONS
--------------
ITER       Energy         Delta-E        Max-DP      RMS-DP      [F,P]     Damp
               ***  Starting incremental Fock matrix formation  ***
  0   -535.7174951926   0.000000000000 0.01072922  0.00014724  0.2159178 0.7000
  1   -535.7455264290  -0.028031236417 0.00750624  0.00009367  0.0552350 0.7000
                               ***Turning on DIIS***
  2   -535.7509985462  -0.005472117234 0.01663138  0.00015067  0.0234439 0.0000
  3   -535.7685517885  -0.017553242249 0.00597930  0.00006880  0.0197496 0.0000
  4   -535.7685813648  -0.000029576348 0.00256702  0.00002263  0.0300743 0.0000
  5   -535.7693673296  -0.000785964780 0.00070985  0.00000996  0.0101601 0.0000
  6   -535.7694555153  -0.000088185683 0.00040944  0.00000382  0.0023726 0.0000
  7   -535.7694603793  -0.000004864032 0.00011157  0.00000167  0.0007706 0.0000
  8   -535.7694608572  -0.000000477881 0.00005095  0.00000054  0.0003190 0.0000
  9   -535.7694609694  -0.000000112168 0.00001822  0.00000016  0.0000635 0.0000
 10   -535.7694609767  -0.000000007333 0.00000290  0.00000003  0.0000133 0.0000
 11   -535.7694609771  -0.000000000390 0.00000319  0.00000002  0.0000060 0.0000
                 **** Energy Check signals convergence ****

               *****************************************************
               *                     SUCCESS                       *
               *           SCF CONVERGED AFTER  12 CYCLES          *
               *****************************************************


----------------
TOTAL SCF ENERGY
----------------

Total Energy       :         -535.76946098 Eh          -14579.02822 eV

Components:
Nuclear Repulsion  :           51.24883371 Eh            1394.55166 eV
Electronic Energy  :         -587.01829469 Eh          -15973.57988 eV
One Electron Energy:         -841.18756873 Eh          -22889.87744 eV
Two Electron Energy:          254.16927405 Eh            6916.29756 eV

Virial components:
Potential Energy   :        -1070.94037944 Eh          -29141.76926 eV
Kinetic Energy     :          535.17091846 Eh           14562.74105 eV
Virial Ratio       :            2.00111841


DFT components:
N(Alpha)           :       12.999999980104 electrons
N(Beta)            :       12.999999980104 electrons
N(Total)           :       25.999999960208 electrons
E(X)               :      -35.932901719176 Eh       
E(C)               :       -0.962701168114 Eh       
E(XC)              :      -36.895602887291 Eh       
DFET-embed. en.    :        0.000000000000 Eh       

---------------
SCF CONVERGENCE
---------------

  Last Energy change         ...   -5.7639e-11  Tolerance :   1.0000e-09
  Last MAX-Density change    ...    2.2789e-06  Tolerance :   1.0000e-08
  Last RMS-Density change    ...    1.5681e-08  Tolerance :   1.0000e-09
  Last DIIS Error            ...    5.6849e-07  Tolerance :   1.0000e-08

             **** THE GBW FILE WAS UPDATED (hocl_pbe.gbw) ****
             **** DENSITY FILE WAS UPDATED (hocl_pbe.scfp.tmp) ****
             **** ENERGY FILE WAS UPDATED (hocl_pbe.en.tmp) ****
----------------------
UHF SPIN CONTAMINATION
----------------------

Warning: in a DFT calculation there is little theoretical justification to 
         calculate <S**2> as in Hartree-Fock theory. We will do it anyways
         but you should keep in mind that the values have only limited relevance

Expectation value of <S**2>     :     0.000000
Ideal value S*(S+1) for S=0.0   :     0.000000
Deviation                       :     0.000000

----------------
ORBITAL ENERGIES
----------------
                 SPIN UP ORBITALS
  NO   OCC          E(Eh)            E(eV) 
   0   1.0000    -100.696205     -2740.0830 
   1   1.0000     -18.825295      -512.2623 
   2   1.0000      -9.215872      -250.7766 
   3   1.0000      -7.043690      -191.6686 
   4   1.0000      -7.026590      -191.2032 
   5   1.0000      -7.026195      -191.1925 
   6   1.0000      -0.993468       -27.0336 
   7   1.0000      -0.733434       -19.9578 
   8   1.0000      -0.492237       -13.3944 
   9   1.0000      -0.408745       -11.1225 
  10   1.0000      -0.365635        -9.9494 
  11   1.0000      -0.280648        -7.6368 
  12   1.0000      -0.243822        -6.6347 
  13   0.0000      -0.118254        -3.2178 
  14   0.0000      -0.025164        -0.6847 
  15   0.0000       0.013626         0.3708 
  16   0.0000       0.024356         0.6628 
  17   0.0000       0.024477         0.6661 
  18   0.0000       0.038839         1.0569 
  19   0.0000       0.049425         1.3449 
  20   0.0000       0.051043         1.3889 
  21   0.0000       0.053438         1.4541 
  22   0.0000       0.077010         2.0956 
  23   0.0000       0.077590         2.1113 
  24   0.0000       0.091969         2.5026 
  25   0.0000       0.110172         2.9979 
  26   0.0000       0.122154         3.3240 
  27   0.0000       0.130126         3.5409 
  28   0.0000       0.139859         3.8057 
  29   0.0000       0.140645         3.8271 
  30   0.0000       0.143034         3.8922 
  31   0.0000       0.152359         4.1459 
  32   0.0000       0.152736         4.1562 
  33   0.0000       0.159308         4.3350 
  34   0.0000       0.164757         4.4833 
  35   0.0000       0.182366         4.9624 
  36   0.0000       0.198655         5.4057 
  37   0.0000       0.199756         5.4356 
  38   0.0000       0.217927         5.9301 
  39   0.0000       0.222709         6.0602 
  40   0.0000       0.227362         6.1868 
  41   0.0000       0.234230         6.3737 
  42   0.0000       0.236883         6.4459 
  43   0.0000       0.241015         6.5583 
  44   0.0000       0.253007         6.8847 
  45   0.0000       0.262734         7.1493 
  46   0.0000       0.270556         7.3622 
  47   0.0000       0.298440         8.1210 
  48   0.0000       0.299057         8.1377 
  49   0.0000       0.305567         8.3149 
  50   0.0000       0.307516         8.3679 
  51   0.0000       0.314009         8.5446 
  52   0.0000       0.315751         8.5920 
  53   0.0000       0.317247         8.6327 
  54   0.0000       0.346356         9.4248 
  55   0.0000       0.362618         9.8673 
  56   0.0000       0.363203         9.8833 
  57   0.0000       0.375873        10.2280 
  58   0.0000       0.384707        10.4684 
  59   0.0000       0.390787        10.6339 
  60   0.0000       0.392882        10.6909 
  61   0.0000       0.418612        11.3910 
  62   0.0000       0.421629        11.4731 
  63   0.0000       0.426011        11.5923 
  64   0.0000       0.429191        11.6789 
  65   0.0000       0.447408        12.1746 
  66   0.0000       0.451165        12.2768 
  67   0.0000       0.464256        12.6331 
  68   0.0000       0.471251        12.8234 
  69   0.0000       0.477258        12.9869 
  70   0.0000       0.487348        13.2614 
  71   0.0000       0.500662        13.6237 
  72   0.0000       0.509389        13.8612 
  73   0.0000       0.513136        13.9631 
  74   0.0000       0.525997        14.3131 
  75   0.0000       0.533202        14.5092 
  76   0.0000       0.533295        14.5117 
  77   0.0000       0.548732        14.9318 
  78   0.0000       0.552339        15.0299 
  79   0.0000       0.561244        15.2722 
  80   0.0000       0.564365        15.3571 
  81   0.0000       0.571979        15.5644 
  82   0.0000       0.587083        15.9753 
  83   0.0000       0.597290        16.2531 
  84   0.0000       0.616331        16.7712 
  85   0.0000       0.619547        16.8587 
  86   0.0000       0.628477        17.1017 
  87   0.0000       0.641894        17.4668 
  88   0.0000       0.643171        17.5016 
  89   0.0000       0.653856        17.7923 
  90   0.0000       0.661966        18.0130 
  91   0.0000       0.664142        18.0722 
  92   0.0000       0.669064        18.2062 
  93   0.0000       0.689662        18.7667 
  94   0.0000       0.690909        18.8006 
  95   0.0000       0.694817        18.9069 
  96   0.0000       0.709845        19.3159 
  97   0.0000       0.712813        19.3966 
  98   0.0000       0.726176        19.7602 
  99   0.0000       0.746377        20.3099 
 100   0.0000       0.761645        20.7254 
 101   0.0000       0.788539        21.4572 
 102   0.0000       0.803152        21.8549 
 103   0.0000       0.811437        22.0803 
 104   0.0000       0.821429        22.3522 
 105   0.0000       0.835848        22.7446 
 106   0.0000       0.836688        22.7674 
 107   0.0000       0.847789        23.0695 
 108   0.0000       0.850901        23.1542 
 109   0.0000       0.853886        23.2354 
 110   0.0000       0.860237        23.4082 
 111   0.0000       0.868512        23.6334 
 112   0.0000       0.892124        24.2759 
 113   0.0000       0.893836        24.3225 
 114   0.0000       0.906214        24.6593 
 115   0.0000       0.915881        24.9224 
 116   0.0000       0.918817        25.0023 
 117   0.0000       0.930918        25.3316 
 118   0.0000       0.945692        25.7336 
 119   0.0000       0.961074        26.1522 
 120   0.0000       0.967346        26.3228 
 121   0.0000       0.974180        26.5088 
 122   0.0000       0.994256        27.0551 
 123   0.0000       1.013780        27.5864 
 124   0.0000       1.015031        27.6204 
 125   0.0000       1.020584        27.7715 
 126   0.0000       1.025099        27.8944 
 127   0.0000       1.045427        28.4475 
 128   0.0000       1.046824        28.4855 
 129   0.0000       1.058232        28.7960 
 130   0.0000       1.077702        29.3258 
 131   0.0000       1.086732        29.5715 
 132   0.0000       1.096760        29.8444 
 133   0.0000       1.107612        30.1397 
 134   0.0000       1.111596        30.2481 
 135   0.0000       1.112393        30.2697 
 136   0.0000       1.124264        30.5928 
 137   0.0000       1.156706        31.4756 
 138   0.0000       1.159061        31.5397 
 139   0.0000       1.176829        32.0231 
 140   0.0000       1.202464        32.7207 
 141   0.0000       1.219196        33.1760 
 142   0.0000       1.233986        33.5785 
 143   0.0000       1.248419        33.9712 
 144   0.0000       1.248900        33.9843 
 145   0.0000       1.274983        34.6941 
 146   0.0000       1.354754        36.8647 
 147   0.0000       1.362224        37.0680 
 148   0.0000       1.395567        37.9753 
 149   0.0000       1.426881        38.8274 
 150   0.0000       1.445080        39.3226 
 151   0.0000       1.513358        41.1806 
 152   0.0000       1.570434        42.7337 
 153   0.0000       1.588092        43.2142 
 154   0.0000       1.609464        43.7957 
 155   0.0000       1.620557        44.0976 
 156   0.0000       1.641492        44.6673 
 157   0.0000       1.644682        44.7541 
 158   0.0000       1.752521        47.6885 
 159   0.0000       1.760879        47.9159 
 160   0.0000       1.794175        48.8220 
 161   0.0000       1.804351        49.0989 
 162   0.0000       1.832884        49.8753 
 163   0.0000       1.853698        50.4417 
 164   0.0000       1.904509        51.8243 
 165   0.0000       1.916186        52.1421 
 166   0.0000       1.923288        52.3353 
 167   0.0000       1.986892        54.0661 
 168   0.0000       1.987122        54.0723 
 169   0.0000       2.022716        55.0409 
 170   0.0000       2.114140        57.5287 
 171   0.0000       2.151574        58.5473 
 172   0.0000       2.213801        60.2406 
 173   0.0000       2.235705        60.8366 
 174   0.0000       2.288031        62.2605 
 175   0.0000       2.291158        62.3456 
 176   0.0000       2.330870        63.4262 
 177   0.0000       2.362809        64.2953 
 178   0.0000       2.369076        64.4658 
 179   0.0000       2.489533        67.7436 
 180   0.0000       2.549631        69.3790 
 181   0.0000       2.584553        70.3293 
 182   0.0000       2.624171        71.4073 
 183   0.0000       2.639714        71.8303 
 184   0.0000       2.746075        74.7245 
 185   0.0000       2.817817        76.6767 
 186   0.0000       2.870332        78.1057 
 187   0.0000       2.871605        78.1404 
 188   0.0000       2.927220        79.6537 
 189   0.0000       2.942508        80.0697 
 190   0.0000       3.008052        81.8532 
 191   0.0000       3.092536        84.1522 
 192   0.0000       3.174857        86.3923 
 193   0.0000       3.224455        87.7419 
 194   0.0000       3.258444        88.6668 
 195   0.0000       3.370630        91.7195 
 196   0.0000       3.422220        93.1234 
 197   0.0000       3.492273        95.0296 
 198   0.0000       3.492440        95.0341 
 199   0.0000       3.549012        96.5735 
 200   0.0000       3.549906        96.5979 
 201   0.0000       3.695311       100.5545 
 202   0.0000       3.701012       100.7097 
 203   0.0000       3.723744       101.3282 
 204   0.0000       3.734545       101.6221 
 205   0.0000       3.774567       102.7112 
 206   0.0000       3.868927       105.2789 
 207   0.0000       3.918738       106.6343 
 208   0.0000       3.957870       107.6991 
 209   0.0000       3.979892       108.2984 
 210   0.0000       4.011597       109.1611 
 211   0.0000       4.024370       109.5087 
 212   0.0000       4.067217       110.6746 
 213   0.0000       4.169829       113.4668 
 214   0.0000       4.185965       113.9059 
 215   0.0000       4.204239       114.4032 
 216   0.0000       4.275126       116.3321 
 217   0.0000       4.386085       119.3514 
 218   0.0000       4.395118       119.5973 
 219   0.0000       4.505880       122.6112 
 220   0.0000       4.521942       123.0483 
 221   0.0000       4.580715       124.6476 
 222   0.0000       4.637104       126.1820 
 223   0.0000       4.866139       132.4144 
 224   0.0000       4.897430       133.2658 
 225   0.0000       4.938000       134.3698 
 226   0.0000       5.012154       136.3876 
 227   0.0000       5.082066       138.2900 
 228   0.0000       5.145717       140.0221 
 229   0.0000       5.208424       141.7284 
 230   0.0000       5.272198       143.4638 
 231   0.0000       5.335466       145.1854 
 232   0.0000       5.382455       146.4640 
 233   0.0000       5.491949       149.4435 
 234   0.0000       5.665545       154.1673 
 235   0.0000       5.666568       154.1952 
 236   0.0000       5.670674       154.3069 
 237   0.0000       5.671955       154.3417 
 238   0.0000       5.690058       154.8343 
 239   0.0000       5.728564       155.8822 
 240   0.0000       5.782802       157.3580 
 241   0.0000       5.813609       158.1964 
 242   0.0000       5.867095       159.6518 
 243   0.0000       5.867228       159.6554 
 244   0.0000       5.900228       160.5534 
 245   0.0000       5.904218       160.6619 
 246   0.0000       6.017851       163.7541 
 247   0.0000       6.054016       164.7381 
 248   0.0000       6.231530       169.5685 
 249   0.0000       6.322361       172.0402 
 250   0.0000       6.325439       172.1240 
 251   0.0000       6.403690       174.2533 
 252   0.0000       6.643369       180.7753 
 253   0.0000       6.861728       186.7171 
 254   0.0000       6.874926       187.0763 
 255   0.0000       7.001548       190.5218 
 256   0.0000       7.170028       195.1064 
 257   0.0000       7.211587       196.2373 
 258   0.0000       7.277420       198.0287 
 259   0.0000       7.428795       202.1478 
 260   0.0000       7.476423       203.4438 
 261   0.0000       7.671786       208.7599 
 262   0.0000       7.863999       213.9903 
 263   0.0000       7.959745       216.5957 
 264   0.0000       8.360061       227.4888 
 265   0.0000       8.647310       235.3053 
 266   0.0000       8.836625       240.4568 
 267   0.0000       8.961535       243.8558 
 268   0.0000       9.094705       247.4795 
 269   0.0000       9.095601       247.5039 
 270   0.0000       9.128654       248.4033 
 271   0.0000       9.181328       249.8366 
 272   0.0000       9.263890       252.0833 
 273   0.0000       9.281554       252.5639 
 274   0.0000       9.342756       254.2293 
 275   0.0000       9.463678       257.5198 
 276   0.0000       9.482396       258.0291 
 277   0.0000       9.658611       262.8242 
 278   0.0000       9.804845       266.8034 
 279   0.0000       9.831636       267.5324 
 280   0.0000       9.935022       270.3457 
 281   0.0000      10.046073       273.3675 
 282   0.0000      10.298418       280.2342 
 283   0.0000      10.444936       284.2212 
 284   0.0000      10.675959       290.5076 
 285   0.0000      10.825563       294.5786 
 286   0.0000      11.162846       303.7565 
 287   0.0000      11.353182       308.9358 
 288   0.0000      11.699162       318.3504 
 289   0.0000      11.722455       318.9842 
 290   0.0000      11.795361       320.9681 
 291   0.0000      11.880319       323.2799 
 292   0.0000      11.978054       325.9394 
 293   0.0000      12.094301       329.1027 
 294   0.0000      12.124493       329.9242 
 295   0.0000      12.127681       330.0110 
 296   0.0000      12.164478       331.0123 
 297   0.0000      12.198596       331.9407 
 298   0.0000      12.459319       339.0353 
 299   0.0000      12.582342       342.3829 
 300   0.0000      12.603451       342.9573 
 301   0.0000      12.662723       344.5702 
 302   0.0000      12.751857       346.9957 
 303   0.0000      12.809686       348.5693 
 304   0.0000      12.832899       349.2009 
 305   0.0000      12.854378       349.7854 
 306   0.0000      12.904740       351.1558 
 307   0.0000      12.913189       351.3857 
 308   0.0000      12.918424       351.5282 
 309   0.0000      12.983433       353.2972 
 310   0.0000      13.025742       354.4485 
 311   0.0000      13.343463       363.0941 
 312   0.0000      13.345553       363.1510 
 313   0.0000      13.777049       374.8926 
 314   0.0000      13.782185       375.0323 
 315   0.0000      13.816766       375.9733 
 316   0.0000      14.222487       387.0135 
 317   0.0000      14.382483       391.3672 
 318   0.0000      14.468200       393.6997 
 319   0.0000      15.508686       422.0128 
 320   0.0000      16.694762       454.2876 
 321   0.0000      16.705027       454.5669 
 322   0.0000      17.047317       463.8811 
 323   0.0000      17.070618       464.5151 
 324   0.0000      17.111440       465.6260 
 325   0.0000      17.179470       467.4771 
 326   0.0000      17.314579       471.1536 
 327   0.0000      17.396748       473.3896 
 328   0.0000      17.492209       475.9872 
 329   0.0000      17.585594       478.5284 
 330   0.0000      17.587854       478.5898 
 331   0.0000      17.649467       480.2664 
 332   0.0000      17.670894       480.8495 
 333   0.0000      17.679266       481.0773 
 334   0.0000      17.700667       481.6596 
 335   0.0000      17.730700       482.4769 
 336   0.0000      17.872572       486.3374 
 337   0.0000      17.971759       489.0364 
 338   0.0000      17.998047       489.7517 
 339   0.0000      18.732962       509.7498 
 340   0.0000      19.076055       519.0858 
 341   0.0000      19.728019       536.8267 
 342   0.0000      19.761489       537.7375 
 343   0.0000      20.678520       562.6911 
 344   0.0000      20.925872       569.4219 
 345   0.0000      21.064485       573.1938 
 346   0.0000      23.011958       626.1872 
 347   0.0000      23.363989       635.7665 
 348   0.0000      23.521836       640.0617 
 349   0.0000      23.718055       645.4011 
 350   0.0000      23.768913       646.7850 
 351   0.0000      23.883462       649.9020 
 352   0.0000      26.753629       728.0033 
 353   0.0000      27.064100       736.4516 
 354   0.0000      30.563360       831.6713 
 355   0.0000      31.934046       868.9696 
 356   0.0000      32.587156       886.7416 
 357   0.0000      34.094982       927.7716 
 358   0.0000      40.168726      1093.0466 
 359   0.0000      41.224892      1121.7863 
 360   0.0000      65.814417      1790.9013 
 361   0.0000      65.817199      1790.9770 
 362   0.0000      65.828502      1791.2846 
 363   0.0000      65.884403      1792.8058 
 364   0.0000      66.121334      1799.2530 
 365   0.0000      66.568742      1811.4276 
 366   0.0000      66.806104      1817.8865 
 367   0.0000      66.880533      1819.9118 
 368   0.0000      67.036662      1824.1603 
 369   0.0000      68.682703      1868.9514 
 370   0.0000      90.928910      2474.3014 
 371   0.0000      91.095987      2478.8478 
 372   0.0000      93.450018      2542.9043 
 373   0.0000     143.343799      3900.5831 

                 SPIN DOWN ORBITALS
  NO   OCC          E(Eh)            E(eV) 
   0   1.0000    -100.696205     -2740.0830 
   1   1.0000     -18.825295      -512.2623 
   2   1.0000      -9.215872      -250.7766 
   3   1.0000      -7.043690      -191.6686 
   4   1.0000      -7.026590      -191.2032 
   5   1.0000      -7.026195      -191.1925 
   6   1.0000      -0.993468       -27.0336 
   7   1.0000      -0.733434       -19.9578 
   8   1.0000      -0.492237       -13.3944 
   9   1.0000      -0.408745       -11.1225 
  10   1.0000      -0.365635        -9.9494 
  11   1.0000      -0.280648        -7.6368 
  12   1.0000      -0.243822        -6.6347 
  13   0.0000      -0.118254        -3.2178 
  14   0.0000      -0.025164        -0.6847 
  15   0.0000       0.013626         0.3708 
  16   0.0000       0.024356         0.6628 
  17   0.0000       0.024477         0.6661 
  18   0.0000       0.038839         1.0569 
  19   0.0000       0.049425         1.3449 
  20   0.0000       0.051043         1.3889 
  21   0.0000       0.053438         1.4541 
  22   0.0000       0.077010         2.0956 
  23   0.0000       0.077590         2.1113 
  24   0.0000       0.091969         2.5026 
  25   0.0000       0.110172         2.9979 
  26   0.0000       0.122154         3.3240 
  27   0.0000       0.130126         3.5409 
  28   0.0000       0.139859         3.8057 
  29   0.0000       0.140645         3.8271 
  30   0.0000       0.143034         3.8922 
  31   0.0000       0.152359         4.1459 
  32   0.0000       0.152736         4.1562 
  33   0.0000       0.159308         4.3350 
  34   0.0000       0.164757         4.4833 
  35   0.0000       0.182366         4.9624 
  36   0.0000       0.198655         5.4057 
  37   0.0000       0.199756         5.4356 
  38   0.0000       0.217927         5.9301 
  39   0.0000       0.222709         6.0602 
  40   0.0000       0.227362         6.1868 
  41   0.0000       0.234230         6.3737 
  42   0.0000       0.236883         6.4459 
  43   0.0000       0.241015         6.5583 
  44   0.0000       0.253007         6.8847 
  45   0.0000       0.262734         7.1493 
  46   0.0000       0.270556         7.3622 
  47   0.0000       0.298440         8.1210 
  48   0.0000       0.299057         8.1377 
  49   0.0000       0.305567         8.3149 
  50   0.0000       0.307516         8.3679 
  51   0.0000       0.314009         8.5446 
  52   0.0000       0.315751         8.5920 
  53   0.0000       0.317247         8.6327 
  54   0.0000       0.346356         9.4248 
  55   0.0000       0.362618         9.8673 
  56   0.0000       0.363203         9.8833 
  57   0.0000       0.375873        10.2280 
  58   0.0000       0.384707        10.4684 
  59   0.0000       0.390787        10.6339 
  60   0.0000       0.392882        10.6909 
  61   0.0000       0.418612        11.3910 
  62   0.0000       0.421629        11.4731 
  63   0.0000       0.426011        11.5923 
  64   0.0000       0.429191        11.6789 
  65   0.0000       0.447408        12.1746 
  66   0.0000       0.451165        12.2768 
  67   0.0000       0.464256        12.6331 
  68   0.0000       0.471251        12.8234 
  69   0.0000       0.477258        12.9869 
  70   0.0000       0.487348        13.2614 
  71   0.0000       0.500662        13.6237 
  72   0.0000       0.509389        13.8612 
  73   0.0000       0.513136        13.9631 
  74   0.0000       0.525997        14.3131 
  75   0.0000       0.533202        14.5092 
  76   0.0000       0.533295        14.5117 
  77   0.0000       0.548732        14.9318 
  78   0.0000       0.552339        15.0299 
  79   0.0000       0.561244        15.2722 
  80   0.0000       0.564365        15.3571 
  81   0.0000       0.571979        15.5644 
  82   0.0000       0.587083        15.9753 
  83   0.0000       0.597290        16.2531 
  84   0.0000       0.616331        16.7712 
  85   0.0000       0.619547        16.8587 
  86   0.0000       0.628477        17.1017 
  87   0.0000       0.641894        17.4668 
  88   0.0000       0.643171        17.5016 
  89   0.0000       0.653856        17.7923 
  90   0.0000       0.661966        18.0130 
  91   0.0000       0.664142        18.0722 
  92   0.0000       0.669064        18.2062 
  93   0.0000       0.689662        18.7667 
  94   0.0000       0.690909        18.8006 
  95   0.0000       0.694817        18.9069 
  96   0.0000       0.709845        19.3159 
  97   0.0000       0.712813        19.3966 
  98   0.0000       0.726176        19.7602 
  99   0.0000       0.746377        20.3099 
 100   0.0000       0.761645        20.7254 
 101   0.0000       0.788539        21.4572 
 102   0.0000       0.803152        21.8549 
 103   0.0000       0.811437        22.0803 
 104   0.0000       0.821429        22.3522 
 105   0.0000       0.835848        22.7446 
 106   0.0000       0.836688        22.7674 
 107   0.0000       0.847789        23.0695 
 108   0.0000       0.850901        23.1542 
 109   0.0000       0.853886        23.2354 
 110   0.0000       0.860237        23.4082 
 111   0.0000       0.868512        23.6334 
 112   0.0000       0.892124        24.2759 
 113   0.0000       0.893836        24.3225 
 114   0.0000       0.906214        24.6593 
 115   0.0000       0.915881        24.9224 
 116   0.0000       0.918817        25.0023 
 117   0.0000       0.930918        25.3316 
 118   0.0000       0.945692        25.7336 
 119   0.0000       0.961074        26.1522 
 120   0.0000       0.967346        26.3228 
 121   0.0000       0.974180        26.5088 
 122   0.0000       0.994256        27.0551 
 123   0.0000       1.013780        27.5864 
 124   0.0000       1.015031        27.6204 
 125   0.0000       1.020584        27.7715 
 126   0.0000       1.025099        27.8944 
 127   0.0000       1.045427        28.4475 
 128   0.0000       1.046824        28.4855 
 129   0.0000       1.058232        28.7960 
 130   0.0000       1.077702        29.3258 
 131   0.0000       1.086732        29.5715 
 132   0.0000       1.096760        29.8444 
 133   0.0000       1.107612        30.1397 
 134   0.0000       1.111596        30.2481 
 135   0.0000       1.112393        30.2697 
 136   0.0000       1.124264        30.5928 
 137   0.0000       1.156706        31.4756 
 138   0.0000       1.159061        31.5397 
 139   0.0000       1.176829        32.0231 
 140   0.0000       1.202464        32.7207 
 141   0.0000       1.219196        33.1760 
 142   0.0000       1.233986        33.5785 
 143   0.0000       1.248419        33.9712 
 144   0.0000       1.248900        33.9843 
 145   0.0000       1.274983        34.6941 
 146   0.0000       1.354754        36.8647 
 147   0.0000       1.362224        37.0680 
 148   0.0000       1.395567        37.9753 
 149   0.0000       1.426881        38.8274 
 150   0.0000       1.445080        39.3226 
 151   0.0000       1.513358        41.1806 
 152   0.0000       1.570434        42.7337 
 153   0.0000       1.588092        43.2142 
 154   0.0000       1.609464        43.7957 
 155   0.0000       1.620557        44.0976 
 156   0.0000       1.641492        44.6673 
 157   0.0000       1.644682        44.7541 
 158   0.0000       1.752521        47.6885 
 159   0.0000       1.760879        47.9159 
 160   0.0000       1.794175        48.8220 
 161   0.0000       1.804351        49.0989 
 162   0.0000       1.832884        49.8753 
 163   0.0000       1.853698        50.4417 
 164   0.0000       1.904509        51.8243 
 165   0.0000       1.916186        52.1421 
 166   0.0000       1.923288        52.3353 
 167   0.0000       1.986892        54.0661 
 168   0.0000       1.987122        54.0723 
 169   0.0000       2.022716        55.0409 
 170   0.0000       2.114140        57.5287 
 171   0.0000       2.151574        58.5473 
 172   0.0000       2.213801        60.2406 
 173   0.0000       2.235705        60.8366 
 174   0.0000       2.288031        62.2605 
 175   0.0000       2.291158        62.3456 
 176   0.0000       2.330870        63.4262 
 177   0.0000       2.362809        64.2953 
 178   0.0000       2.369076        64.4658 
 179   0.0000       2.489533        67.7436 
 180   0.0000       2.549631        69.3790 
 181   0.0000       2.584553        70.3293 
 182   0.0000       2.624171        71.4073 
 183   0.0000       2.639714        71.8303 
 184   0.0000       2.746075        74.7245 
 185   0.0000       2.817817        76.6767 
 186   0.0000       2.870332        78.1057 
 187   0.0000       2.871605        78.1404 
 188   0.0000       2.927220        79.6537 
 189   0.0000       2.942508        80.0697 
 190   0.0000       3.008052        81.8532 
 191   0.0000       3.092536        84.1522 
 192   0.0000       3.174857        86.3923 
 193   0.0000       3.224455        87.7419 
 194   0.0000       3.258444        88.6668 
 195   0.0000       3.370630        91.7195 
 196   0.0000       3.422220        93.1234 
 197   0.0000       3.492273        95.0296 
 198   0.0000       3.492440        95.0341 
 199   0.0000       3.549012        96.5735 
 200   0.0000       3.549906        96.5979 
 201   0.0000       3.695311       100.5545 
 202   0.0000       3.701012       100.7097 
 203   0.0000       3.723744       101.3282 
 204   0.0000       3.734545       101.6221 
 205   0.0000       3.774567       102.7112 
 206   0.0000       3.868927       105.2789 
 207   0.0000       3.918738       106.6343 
 208   0.0000       3.957870       107.6991 
 209   0.0000       3.979892       108.2984 
 210   0.0000       4.011597       109.1611 
 211   0.0000       4.024370       109.5087 
 212   0.0000       4.067217       110.6746 
 213   0.0000       4.169829       113.4668 
 214   0.0000       4.185965       113.9059 
 215   0.0000       4.204239       114.4032 
 216   0.0000       4.275126       116.3321 
 217   0.0000       4.386085       119.3514 
 218   0.0000       4.395118       119.5973 
 219   0.0000       4.505880       122.6112 
 220   0.0000       4.521942       123.0483 
 221   0.0000       4.580715       124.6476 
 222   0.0000       4.637104       126.1820 
 223   0.0000       4.866139       132.4144 
 224   0.0000       4.897430       133.2658 
 225   0.0000       4.938000       134.3698 
 226   0.0000       5.012154       136.3876 
 227   0.0000       5.082066       138.2900 
 228   0.0000       5.145717       140.0221 
 229   0.0000       5.208424       141.7284 
 230   0.0000       5.272198       143.4638 
 231   0.0000       5.335466       145.1854 
 232   0.0000       5.382455       146.4640 
 233   0.0000       5.491949       149.4435 
 234   0.0000       5.665545       154.1673 
 235   0.0000       5.666568       154.1952 
 236   0.0000       5.670674       154.3069 
 237   0.0000       5.671955       154.3417 
 238   0.0000       5.690058       154.8343 
 239   0.0000       5.728564       155.8822 
 240   0.0000       5.782802       157.3580 
 241   0.0000       5.813609       158.1964 
 242   0.0000       5.867095       159.6518 
 243   0.0000       5.867228       159.6554 
 244   0.0000       5.900228       160.5534 
 245   0.0000       5.904218       160.6619 
 246   0.0000       6.017851       163.7541 
 247   0.0000       6.054016       164.7381 
 248   0.0000       6.231530       169.5685 
 249   0.0000       6.322361       172.0402 
 250   0.0000       6.325439       172.1240 
 251   0.0000       6.403690       174.2533 
 252   0.0000       6.643369       180.7753 
 253   0.0000       6.861728       186.7171 
 254   0.0000       6.874926       187.0763 
 255   0.0000       7.001548       190.5218 
 256   0.0000       7.170028       195.1064 
 257   0.0000       7.211587       196.2373 
 258   0.0000       7.277420       198.0287 
 259   0.0000       7.428795       202.1478 
 260   0.0000       7.476423       203.4438 
 261   0.0000       7.671786       208.7599 
 262   0.0000       7.863999       213.9903 
 263   0.0000       7.959745       216.5957 
 264   0.0000       8.360061       227.4888 
 265   0.0000       8.647310       235.3053 
 266   0.0000       8.836625       240.4568 
 267   0.0000       8.961535       243.8558 
 268   0.0000       9.094705       247.4795 
 269   0.0000       9.095601       247.5039 
 270   0.0000       9.128654       248.4033 
 271   0.0000       9.181328       249.8366 
 272   0.0000       9.263890       252.0833 
 273   0.0000       9.281554       252.5639 
 274   0.0000       9.342756       254.2293 
 275   0.0000       9.463678       257.5198 
 276   0.0000       9.482396       258.0291 
 277   0.0000       9.658611       262.8242 
 278   0.0000       9.804845       266.8034 
 279   0.0000       9.831636       267.5324 
 280   0.0000       9.935022       270.3457 
 281   0.0000      10.046073       273.3675 
 282   0.0000      10.298418       280.2342 
 283   0.0000      10.444936       284.2212 
 284   0.0000      10.675959       290.5076 
 285   0.0000      10.825563       294.5786 
 286   0.0000      11.162846       303.7565 
 287   0.0000      11.353182       308.9358 
 288   0.0000      11.699162       318.3504 
 289   0.0000      11.722455       318.9842 
 290   0.0000      11.795361       320.9681 
 291   0.0000      11.880319       323.2799 
 292   0.0000      11.978054       325.9394 
 293   0.0000      12.094301       329.1027 
 294   0.0000      12.124493       329.9242 
 295   0.0000      12.127681       330.0110 
 296   0.0000      12.164478       331.0123 
 297   0.0000      12.198596       331.9407 
 298   0.0000      12.459319       339.0353 
 299   0.0000      12.582342       342.3829 
 300   0.0000      12.603451       342.9573 
 301   0.0000      12.662723       344.5702 
 302   0.0000      12.751857       346.9957 
 303   0.0000      12.809686       348.5693 
 304   0.0000      12.832899       349.2009 
 305   0.0000      12.854378       349.7854 
 306   0.0000      12.904740       351.1558 
 307   0.0000      12.913189       351.3857 
 308   0.0000      12.918424       351.5282 
 309   0.0000      12.983433       353.2972 
 310   0.0000      13.025742       354.4485 
 311   0.0000      13.343463       363.0941 
 312   0.0000      13.345553       363.1510 
 313   0.0000      13.777049       374.8926 
 314   0.0000      13.782185       375.0323 
 315   0.0000      13.816766       375.9733 
 316   0.0000      14.222487       387.0135 
 317   0.0000      14.382483       391.3672 
 318   0.0000      14.468200       393.6997 
 319   0.0000      15.508686       422.0128 
 320   0.0000      16.694762       454.2876 
 321   0.0000      16.705027       454.5669 
 322   0.0000      17.047317       463.8811 
 323   0.0000      17.070618       464.5151 
 324   0.0000      17.111440       465.6260 
 325   0.0000      17.179470       467.4771 
 326   0.0000      17.314579       471.1536 
 327   0.0000      17.396748       473.3896 
 328   0.0000      17.492209       475.9872 
 329   0.0000      17.585594       478.5284 
 330   0.0000      17.587854       478.5898 
 331   0.0000      17.649467       480.2664 
 332   0.0000      17.670894       480.8495 
 333   0.0000      17.679266       481.0773 
 334   0.0000      17.700667       481.6596 
 335   0.0000      17.730700       482.4769 
 336   0.0000      17.872572       486.3374 
 337   0.0000      17.971759       489.0364 
 338   0.0000      17.998047       489.7517 
 339   0.0000      18.732962       509.7498 
 340   0.0000      19.076055       519.0858 
 341   0.0000      19.728019       536.8267 
 342   0.0000      19.761489       537.7375 
 343   0.0000      20.678520       562.6911 
 344   0.0000      20.925872       569.4219 
 345   0.0000      21.064485       573.1938 
 346   0.0000      23.011958       626.1872 
 347   0.0000      23.363989       635.7665 
 348   0.0000      23.521836       640.0617 
 349   0.0000      23.718055       645.4011 
 350   0.0000      23.768913       646.7850 
 351   0.0000      23.883462       649.9020 
 352   0.0000      26.753629       728.0033 
 353   0.0000      27.064100       736.4516 
 354   0.0000      30.563360       831.6713 
 355   0.0000      31.934046       868.9696 
 356   0.0000      32.587156       886.7416 
 357   0.0000      34.094982       927.7716 
 358   0.0000      40.168726      1093.0466 
 359   0.0000      41.224892      1121.7863 
 360   0.0000      65.814417      1790.9013 
 361   0.0000      65.817199      1790.9770 
 362   0.0000      65.828502      1791.2846 
 363   0.0000      65.884403      1792.8058 
 364   0.0000      66.121334      1799.2530 
 365   0.0000      66.568742      1811.4276 
 366   0.0000      66.806104      1817.8865 
 367   0.0000      66.880533      1819.9118 
 368   0.0000      67.036662      1824.1603 
 369   0.0000      68.682703      1868.9514 
 370   0.0000      90.928910      2474.3014 
 371   0.0000      91.095987      2478.8478 
 372   0.0000      93.450018      2542.9043 
 373   0.0000     143.343799      3900.5831 

                    ********************************
                    * MULLIKEN POPULATION ANALYSIS *
                    ********************************

--------------------------------------------
MULLIKEN ATOMIC CHARGES AND SPIN POPULATIONS
--------------------------------------------
   0 O :   -0.063913    0.000000
   1 H :    0.167777   -0.000000
   2 Cl:   -0.103864   -0.000000
Sum of atomic charges         :    0.0000000
Sum of atomic spin populations:    0.0000000

-----------------------------------------------------
MULLIKEN REDUCED ORBITAL CHARGES AND SPIN POPULATIONS
-----------------------------------------------------
CHARGE
  0 O s       :     3.770306  s :     3.770306
      pz      :     1.042583  p :     4.238874
      px      :     1.318982
      py      :     1.877309
      dz2     :     0.001595  d :     0.043505
      dxz     :     0.018790
      dyz     :     0.016571
      dx2y2   :     0.004077
      dxy     :     0.002472
      f0      :     0.001786  f :     0.009947
      f+1     :     0.008280
      f-1     :    -0.000620
      f+2     :     0.000051
      f-2     :     0.000036
      f+3     :     0.000341
      f-3     :     0.000073
      g0      :     0.000346  g :     0.001301
      g+1     :     0.001258
      g-1     :    -0.000359
      g+2     :     0.000014
      g-2     :     0.000009
      g+3     :     0.000006
      g-3     :     0.000001
      g+4     :     0.000030
      g-4     :    -0.000004
      h0      :     0.000051  h :    -0.000020
      h+1     :     0.000028
      h-1     :    -0.000106
      h+2     :     0.000001
      h-2     :     0.000000
      h+3     :     0.000001
      h-3     :     0.000001
      h+4     :     0.000002
      h-4     :    -0.000000
      h+5     :     0.000003
      h-5     :    -0.000000
  1 H s       :     0.684686  s :     0.684686
      pz      :     0.032444  p :     0.099876
      px      :     0.015559
      py      :     0.051874
      dz2     :     0.007734  d :     0.032180
      dxz     :     0.009855
      dyz     :     0.003488
      dx2y2   :     0.003501
      dxy     :     0.007602
      f0      :     0.004481  f :     0.012687
      f+1     :     0.000986
      f-1     :     0.002157
      f+2     :     0.002099
      f-2     :     0.001337
      f+3     :     0.000230
      f-3     :     0.001396
      g0      :     0.000794  g :     0.002794
      g+1     :     0.000079
      g-1     :     0.000366
      g+2     :     0.000297
      g-2     :     0.000845
      g+3     :     0.000143
      g-3     :     0.000128
      g+4     :    -0.000011
      g-4     :     0.000153
  2 Cls       :     6.053807  s :     6.053807
      pz      :     2.962784  p :    10.883836
      px      :     3.950233
      py      :     3.970819
      dz2     :     0.045765  d :     0.138807
      dxz     :     0.037417
      dyz     :     0.055479
      dx2y2   :     0.000176
      dxy     :    -0.000030
      f0      :     0.006448  f :     0.024172
      f+1     :     0.009470
      f-1     :     0.008281
      f+2     :     0.000071
      f-2     :    -0.000109
      f+3     :    -0.000001
      f-3     :     0.000012
      g0      :     0.000755  g :     0.003281
      g+1     :     0.001640
      g-1     :     0.001002
      g+2     :    -0.000039
      g-2     :    -0.000085
      g+3     :    -0.000003
      g-3     :     0.000009
      g+4     :     0.000001
      g-4     :     0.000000
      h0      :     0.000066  h :    -0.000039
      h+1     :     0.000036
      h-1     :    -0.000085
      h+2     :    -0.000031
      h-2     :    -0.000027
      h+3     :    -0.000004
      h-3     :     0.000004
      h+4     :     0.000000
      h-4     :     0.000000
      h+5     :    -0.000000
      h-5     :    -0.000000

SPIN
  0 O s       :     0.000000  s :     0.000000
      pz      :     0.000000  p :     0.000000
      px      :    -0.000000
      py      :     0.000000
      dz2     :     0.000000  d :     0.000000
      dxz     :    -0.000000
      dyz     :     0.000000
      dx2y2   :    -0.000000
      dxy     :    -0.000000
      f0      :     0.000000  f :     0.000000
      f+1     :    -0.000000
      f-1     :     0.000000
      f+2     :    -0.000000
      f-2     :    -0.000000
      f+3     :    -0.000000
      f-3     :     0.000000
      g0      :     0.000000  g :     0.000000
      g+1     :    -0.000000
      g-1     :     0.000000
      g+2     :    -0.000000
      g-2     :    -0.000000
      g+3     :    -0.000000
      g-3     :    -0.000000
      g+4     :    -0.000000
      g-4     :     0.000000
      h0      :     0.000000  h :     0.000000
      h+1     :    -0.000000
      h-1     :     0.000000
      h+2     :    -0.000000
      h-2     :    -0.000000
      h+3     :    -0.000000
      h-3     :    -0.000000
      h+4     :     0.000000
      h-4     :    -0.000000
      h+5     :     0.000000
      h-5     :    -0.000000
  1 H s       :    -0.000000  s :    -0.000000
      pz      :    -0.000000  p :    -0.000000
      px      :    -0.000000
      py      :    -0.000000
      dz2     :    -0.000000  d :    -0.000000
      dxz     :    -0.000000
      dyz     :    -0.000000
      dx2y2   :     0.000000
      dxy     :     0.000000
      f0      :     0.000000  f :     0.000000
      f+1     :     0.000000
      f-1     :    -0.000000
      f+2     :    -0.000000
      f-2     :     0.000000
      f+3     :    -0.000000
      f-3     :     0.000000
      g0      :    -0.000000  g :     0.000000
      g+1     :     0.000000
      g-1     :     0.000000
      g+2     :     0.000000
      g-2     :    -0.000000
      g+3     :    -0.000000
      g-3     :     0.000000
      g+4     :    -0.000000
      g-4     :    -0.000000
  2 Cls       :    -0.000000  s :    -0.000000
      pz      :     0.000000  p :     0.000000
      px      :     0.000000
      py      :    -0.000000
      dz2     :    -0.000000  d :    -0.000000
      dxz     :    -0.000000
      dyz     :     0.000000
      dx2y2   :    -0.000000
      dxy     :     0.000000
      f0      :    -0.000000  f :    -0.000000
      f+1     :    -0.000000
      f-1     :     0.000000
      f+2     :    -0.000000
      f-2     :     0.000000
      f+3     :     0.000000
      f-3     :     0.000000
      g0      :     0.000000  g :    -0.000000
      g+1     :    -0.000000
      g-1     :     0.000000
      g+2     :     0.000000
      g-2     :    -0.000000
      g+3     :     0.000000
      g-3     :     0.000000
      g+4     :     0.000000
      g-4     :    -0.000000
      h0      :     0.000000  h :     0.000000
      h+1     :    -0.000000
      h-1     :     0.000000
      h+2     :     0.000000
      h-2     :    -0.000000
      h+3     :     0.000000
      h-3     :     0.000000
      h+4     :     0.000000
      h-4     :    -0.000000
      h+5     :    -0.000000
      h-5     :    -0.000000


                     *******************************
                     * LOEWDIN POPULATION ANALYSIS *
                     *******************************

-------------------------------------------
LOEWDIN ATOMIC CHARGES AND SPIN POPULATIONS
-------------------------------------------
   0 O :   -0.036803    0.000000
   1 H :   -1.272619    0.000000
   2 Cl:    1.309422   -0.000000

----------------------------------------------------
LOEWDIN REDUCED ORBITAL CHARGES AND SPIN POPULATIONS
----------------------------------------------------
CHARGE
  0 O s       :     3.100512  s :     3.100512
      pz      :     1.098755  p :     3.882426
      px      :     1.324136
      py      :     1.459534
      dz2     :     0.192837  d :     0.498851
      dxz     :     0.148405
      dyz     :     0.137738
      dx2y2   :     0.017733
      dxy     :     0.002138
      f0      :     0.090603  f :     0.293010
      f+1     :     0.101491
      f-1     :     0.096360
      f+2     :     0.001058
      f-2     :     0.000148
      f+3     :     0.002830
      f-3     :     0.000520
      g0      :     0.044762  g :     0.176074
      g+1     :     0.065602
      g-1     :     0.064841
      g+2     :     0.000159
      g-2     :     0.000012
      g+3     :     0.000178
      g-3     :     0.000037
      g+4     :     0.000301
      g-4     :     0.000182
      h0      :     0.018828  h :     0.085930
      h+1     :     0.031319
      h-1     :     0.034944
      h+2     :     0.000137
      h-2     :     0.000126
      h+3     :     0.000106
      h-3     :     0.000104
      h+4     :     0.000090
      h-4     :     0.000056
      h+5     :     0.000117
      h-5     :     0.000104
  1 H s       :     0.649016  s :     0.649016
      pz      :     0.176864  p :     0.636781
      px      :     0.289988
      py      :     0.169929
      dz2     :     0.121128  d :     0.558610
      dxz     :     0.143833
      dyz     :     0.047422
      dx2y2   :     0.107379
      dxy     :     0.138847
      f0      :     0.056345  f :     0.281296
      f+1     :     0.067128
      f-1     :     0.040904
      f+2     :     0.034569
      f-2     :     0.026968
      f+3     :     0.015839
      f-3     :     0.039543
      g0      :     0.031119  g :     0.146917
      g+1     :     0.030279
      g-1     :     0.018173
      g+2     :     0.023744
      g-2     :     0.028023
      g+3     :     0.005741
      g-3     :     0.006045
      g+4     :     0.001494
      g-4     :     0.002299
  2 Cls       :     5.206331  s :     5.206331
      pz      :     2.847104  p :     9.761752
      px      :     3.457607
      py      :     3.457041
      dz2     :     0.152335  d :     0.358160
      dxz     :     0.089105
      dyz     :     0.115749
      dx2y2   :     0.000755
      dxy     :     0.000217
      f0      :     0.073089  f :     0.193419
      f+1     :     0.060603
      f-1     :     0.058302
      f+2     :     0.001202
      f-2     :     0.000156
      f+3     :     0.000054
      f-3     :     0.000014
      g0      :     0.036346  g :     0.114991
      g+1     :     0.040699
      g-1     :     0.035859
      g+2     :     0.001734
      g-2     :     0.000156
      g+3     :     0.000166
      g-3     :     0.000024
      g+4     :     0.000004
      g-4     :     0.000002
      h0      :     0.016117  h :     0.055925
      h+1     :     0.020357
      h-1     :     0.017297
      h+2     :     0.001583
      h-2     :     0.000088
      h+3     :     0.000350
      h-3     :     0.000080
      h+4     :     0.000034
      h-4     :     0.000018
      h+5     :     0.000002
      h-5     :     0.000000

SPIN
  0 O s       :     0.000000  s :     0.000000
      pz      :     0.000000  p :     0.000000
      px      :    -0.000000
      py      :     0.000000
      dz2     :     0.000000  d :     0.000000
      dxz     :     0.000000
      dyz     :     0.000000
      dx2y2   :    -0.000000
      dxy     :    -0.000000
      f0      :     0.000000  f :     0.000000
      f+1     :     0.000000
      f-1     :     0.000000
      f+2     :     0.000000
      f-2     :    -0.000000
      f+3     :     0.000000
      f-3     :    -0.000000
      g0      :    -0.000000  g :    -0.000000
      g+1     :     0.000000
      g-1     :     0.000000
      g+2     :     0.000000
      g-2     :     0.000000
      g+3     :     0.000000
      g-3     :    -0.000000
      g+4     :     0.000000
      g-4     :    -0.000000
      h0      :    -0.000000  h :    -0.000000
      h+1     :    -0.000000
      h-1     :     0.000000
      h+2     :     0.000000
      h-2     :     0.000000
      h+3     :     0.000000
      h-3     :    -0.000000
      h+4     :     0.000000
      h-4     :    -0.000000
      h+5     :    -0.000000
      h-5     :     0.000000
  1 H s       :     0.000000  s :     0.000000
      pz      :    -0.000000  p :    -0.000000
      px      :     0.000000
      py      :    -0.000000
      dz2     :     0.000000  d :     0.000000
      dxz     :     0.000000
      dyz     :     0.000000
      dx2y2   :     0.000000
      dxy     :     0.000000
      f0      :    -0.000000  f :     0.000000
      f+1     :     0.000000
      f-1     :    -0.000000
      f+2     :    -0.000000
      f-2     :     0.000000
      f+3     :    -0.000000
      f-3     :    -0.000000
      g0      :     0.000000  g :    -0.000000
      g+1     :    -0.000000
      g-1     :     0.000000
      g+2     :     0.000000
      g-2     :     0.000000
      g+3     :    -0.000000
      g-3     :     0.000000
      g+4     :     0.000000
      g-4     :    -0.000000
  2 Cls       :    -0.000000  s :    -0.000000
      pz      :    -0.000000  p :    -0.000000
      px      :     0.000000
      py      :     0.000000
      dz2     :     0.000000  d :     0.000000
      dxz     :     0.000000
      dyz     :     0.000000
      dx2y2   :     0.000000
      dxy     :     0.000000
      f0      :     0.000000  f :     0.000000
      f+1     :    -0.000000
      f-1     :    -0.000000
      f+2     :    -0.000000
      f-2     :     0.000000
      f+3     :     0.000000
      f-3     :    -0.000000
      g0      :     0.000000  g :     0.000000
      g+1     :    -0.000000
      g-1     :    -0.000000
      g+2     :     0.000000
      g-2     :    -0.000000
      g+3     :     0.000000
      g-3     :     0.000000
      g+4     :     0.000000
      g-4     :    -0.000000
      h0      :     0.000000  h :     0.000000
      h+1     :     0.000000
      h-1     :     0.000000
      h+2     :    -0.000000
      h-2     :     0.000000
      h+3     :     0.000000
      h-3     :     0.000000
      h+4     :    -0.000000
      h-4     :    -0.000000
      h+5     :    -0.000000
      h-5     :     0.000000


                      *****************************
                      * MAYER POPULATION ANALYSIS *
                      *****************************

  NA   - Mulliken gross atomic population
  ZA   - Total nuclear charge
  QA   - Mulliken gross atomic charge
  VA   - Mayer's total valence
  BVA  - Mayer's bonded valence
  FA   - Mayer's free valence

  ATOM       NA         ZA         QA         VA         BVA        FA
  0 O      8.0639     8.0000    -0.0639     2.0833     2.0833    -0.0000
  1 H      0.8322     1.0000     0.1678     1.0911     1.0911     0.0000
  2 Cl    17.1039    17.0000    -0.1039     1.2382     1.2382     0.0000

  Mayer bond orders larger than 0.1
B(  0-O ,  1-H ) :   0.9681 B(  0-O ,  2-Cl) :   1.1152 B(  1-H ,  2-Cl) :   0.1230 


-------
TIMINGS
-------

Total SCF time: 0 days 0 hours 13 min 0 sec 

Total time                  ....     780.998 sec
Sum of individual times     ....     780.149 sec  ( 99.9%)

Fock matrix formation       ....     777.308 sec  ( 99.5%)
  XC integration            ....      12.122 sec  (  1.6% of F)
    Basis function eval.    ....       0.844 sec  (  7.0% of XC)
    Density eval.           ....       2.448 sec  ( 20.2% of XC)
    XC-Functional eval.     ....       0.135 sec  (  1.1% of XC)
    XC-Potential eval.      ....       8.116 sec  ( 67.0% of XC)
Diagonalization             ....       1.085 sec  (  0.1%)
Density matrix formation    ....       0.019 sec  (  0.0%)
Population analysis         ....       0.159 sec  (  0.0%)
Initial guess               ....       0.625 sec  (  0.1%)
Orbital Transformation      ....       0.000 sec  (  0.0%)
Orbital Orthonormalization  ....       0.000 sec  (  0.0%)
DIIS solution               ....       0.615 sec  (  0.1%)
Grid generation             ....       0.338 sec  (  0.0%)

-------------------------   --------------------
FINAL SINGLE POINT ENERGY      -535.769460977159
-------------------------   --------------------


                            ***************************************
                            *     ORCA property calculations      *
                            ***************************************

                                    ---------------------
                                    Active property flags
                                    ---------------------
   (+) Dipole Moment
   (+) Polarizability


------------------------------------------------------------------------------
                       ORCA ELECTRIC PROPERTIES CALCULATION
------------------------------------------------------------------------------

Dipole Moment Calculation                       ... on
Quadrupole Moment Calculation                   ... off
Polarizability Calculation                      ... Analytic (CP-SCF)
GBWName                                         ... hocl_pbe.gbw
Electron density file                           ... hocl_pbe.scfp.tmp
The origin for moment calculation is the CENTER OF MASS  = ( 0.034240,  0.000000 -0.077702)

-------------
DIPOLE MOMENT
-------------
                                X             Y             Z
Electronic contribution:      0.32113      -0.00000      -1.86539
Nuclear contribution   :     -0.88986       0.00000       2.01931
                        -----------------------------------------
Total Dipole Moment    :     -0.56873      -0.00000       0.15391
                        -----------------------------------------
Magnitude (a.u.)       :      0.58919
Magnitude (Debye)      :      1.49761



--------------------
Rotational spectrum 
--------------------
 
Rotational constants in cm-1:    20.426292     0.505285     0.493087 
Rotational constants in MHz : 612364.820492 15148.056948 14782.385361 

 Dipole components along the rotational axes: 
x,y,z [a.u.] :     0.176117    -0.562255    -0.000000 
x,y,z [Debye]:     0.447654    -1.429139    -0.000000 

 
Transforming and storing MO dipole integrals   ... done

                ... starting polarizability calculation

Opening the Dipole integral file               ... (hocl_pbe.dmo.tmp) done
Reading Dipole-MO integrals                    ... done
Solving CP-SCF equations                       ... 

           ************************************************************
           *        Program running with 4 parallel MPI-processes     *
           *              working on a common directory               *
           ************************************************************

------------------------------------------------------------------------------
                           ORCA CP-SCF CALCULATION
------------------------------------------------------------------------------

Input orbitals are from        ... hocl_pbe.gbw
Input Perturbation             ... hocl_pbe.cpv.tmp
Wavefunction output            ... hocl_pbe.cpu.tmp
Perturbation mode              ... Real perturbation (singlet)
Solver                         ... POPLE
Max. number of iterations      ... 200
Convergence tolerance          ... 1.000e-06
Integral handling              ... Direct
Number of perturbations        ... 3
Number of operators            ... 2
Orbital ranges used for CP-SCF:
 Operator 0:  Orbitals   0... 12  to  13...373
 Operator 1:  Orbitals   0... 12  to  13...373
DFT calculation                         ... on
Exchange functional (SCF)               ... PBE
Exchange functional (CP-SCF)            ... PBE
   PBE kappa parameter  XKappa (SCF)    ...  0.804000
   PBE kappa parameter  XKappa (CP-SCF) ...  0.804000
   PBE mue parameter   XMuePBE (SCF)    ...  0.219520
   PBE mue parameter   XMuePBE (CP-SCF) ...  0.219520
Correlation functional (SCF)            ... PBE
Correlation functional (CP-SCF)         ... PBE
   PBE beta parameter CBetaPBE (SCF)    ...  0.066725
   PBE beta parameter CBetaPBE (CP-SCF) ...  0.066725
 LDA part of GGA corr.  LDAOpt (SCF)    ... PW91-LDA
 LDA part of GGA corr.  LDAOpt (CP-SCF) ... PW91-LDA
Variables per vector in CP-SCF ... 9386
Number of vectors sought       ... 3
Recalculating density on grid  ... done
Calculating the xc-kernel      ... done
     CP-SCF ITERATION   0: 
     CP-SCF ITERATION   1:      0.962898581040
     CP-SCF ITERATION   2:      0.020212681141
     CP-SCF ITERATION   3:      0.000974937388
     CP-SCF ITERATION   4:      0.000050054387
     CP-SCF ITERATION   5:      0.000001254128
     CP-SCF ITERATION   6:      0.000000880598
done
Reading CP-SCF coefficients                    ... done
Doing the polarizability tensor   ... done
Cleaning up                                    ... done

-------------------------
THE POLARIZABILITY TENSOR
-------------------------

The raw cartesian tensor (atomic units):
   21.26062     -0.00000     -0.93991  
   -0.00000     20.50176     -0.00000  
   -0.93991     -0.00000     29.33993  
diagonalized tensor: 
   20.50176     21.15272     29.44784  

   -0.00000      0.99347     -0.11405  
   -1.00000     -0.00000     -0.00000  
   -0.00000      0.11405      0.99347  

Isotropic polarizability :  23.70077


Timings for individual modules:

Sum of individual times         ...     1414.329 sec (=  23.572 min)
GTO integral calculation        ...        8.036 sec (=   0.134 min)   0.6 %
SCF iterations                  ...      789.506 sec (=  13.158 min)  55.8 %
Solution of CP-SCF eqns.        ...      616.787 sec (=  10.280 min)  43.6 %
                             ****ORCA TERMINATED NORMALLY****
TOTAL RUN TIME: 0 days 0 hours 23 minutes 40 seconds 990 msec
