
                                 *****************
                                 * O   R   C   A *
                                 *****************

           --- An Ab Initio, DFT and Semiempirical electronic structure package ---

                  #######################################################
                  #                        -***-                        #
                  #          Department of theory and spectroscopy      #
                  #               Directorship: Frank Neese             #
                  #        Max Planck Institute fuer Kohlenforschung    #
                  #                Kaiser Wilhelm Platz 1               #
                  #                 D-45470 Muelheim/Ruhr               #
                  #                      Germany                        #
                  #                                                     #
                  #                  All rights reserved                #
                  #                        -***-                        #
                  #######################################################


                         Program Version 4.1.2  - RELEASE  -


 With contributions from (in alphabetic order):
   Daniel Aravena         : Magnetic Properties
   Michael Atanasov       : Ab Initio Ligand Field Theory
   Alexander A. Auer      : GIAO ZORA
   Ute Becker             : Parallelization
   Giovanni Bistoni       : ED, Open-shell LED
   Martin Brehm           : Molecular dynamics
   Dmytro Bykov           : SCF Hessian
   Vijay G. Chilkuri      : MRCI spin determinant printing
   Dipayan Datta          : RHF DLPNO-CCSD density
   Achintya Kumar Dutta   : EOM-CC, STEOM-CC
   Dmitry Ganyushin       : Spin-Orbit,Spin-Spin,Magnetic field MRCI
   Miquel Garcia          : C-PCM Hessian
   Yang Guo               : DLPNO-NEVPT2, CIM, IAO-localization
   Andreas Hansen         : Spin unrestricted coupled pair/coupled cluster methods
   Benjamin Helmich-Paris : CASSCF linear response (MC-RPA)
   Lee Huntington         : MR-EOM, pCC
   Robert Izsak           : Overlap fitted RIJCOSX, COSX-SCS-MP3, EOM
   Christian Kollmar      : KDIIS, OOCD, Brueckner-CCSD(T), CCSD density
   Simone Kossmann        : Meta GGA functionals, TD-DFT gradient, OOMP2, MP2 Hessian
   Martin Krupicka        : AUTO-CI
   Lucas Lang             : DCDCAS
   Dagmar Lenk            : GEPOL surface, SMD
   Dimitrios Liakos       : Extrapolation schemes; parallel MDCI
   Dimitrios Manganas     : ROCIS; embedding schemes
   Dimitrios Pantazis     : SARC Basis sets
   Taras Petrenko         : DFT Hessian,TD-DFT gradient, ASA, ECA, R-Raman, ABS, FL, XAS/XES, NRVS
   Peter Pinski           : DLPNO-MP2, DLPNO-MP2 Gradient
   Christoph Reimann      : Effective Core Potentials
   Marius Retegan         : Local ZFS, SOC
   Christoph Riplinger    : Optimizer, TS searches, QM/MM, DLPNO-CCSD(T), (RO)-DLPNO pert. Triples
   Tobias Risthaus        : Range-separated hybrids, TD-DFT gradient, RPA, STAB
   Michael Roemelt        : Restricted open shell CIS
   Masaaki Saitow         : Open-shell DLPNO
   Barbara Sandhoefer     : DKH picture change effects
   Avijit Sen             : IP-ROCIS
   Kantharuban Sivalingam : CASSCF convergence, NEVPT2, FIC-MRCI
   Bernardo de Souza      : ESD, SOC TD-DFT
   Georgi Stoychev        : AutoAux, RI-MP2 NMR
   Willem Van den Heuvel  : Paramagnetic NMR
   Boris Wezisla          : Elementary symmetry handling
   Frank Wennmohs         : Technical directorship


 We gratefully acknowledge several colleagues who have allowed us to
 interface, adapt or use parts of their codes:
   Stefan Grimme, W. Hujo, H. Kruse,             : VdW corrections, initial TS optimization,
                  C. Bannwarth                     DFT functionals, gCP, sTDA/sTD-DF
   Ed Valeev                                     : LibInt (2-el integral package), F12 methods
   Garnet Chan, S. Sharma, J. Yang, R. Olivares  : DMRG
   Ulf Ekstrom                                   : XCFun DFT Library
   Mihaly Kallay                                 : mrcc  (arbitrary order and MRCC methods)
   Andreas Klamt, Michael Diedenhofen            : otool_cosmo (COSMO solvation model)
   Jiri Pittner, Ondrej Demel                    : Mk-CCSD
   Frank Weinhold                                : gennbo (NPA and NBO analysis)
   Christopher J. Cramer and Donald G. Truhlar   : smd solvation model
   Lars Goerigk                                  : TD-DFT with DH, B97 family of functionals
   V. Asgeirsson, H. Jonsson                     : NEB implementation
   FAccTs GmbH                                   : IRC, NEB, NEB-TS, Multilevel


 Your calculation uses the libint2 library for the computation of 2-el integrals
 For citations please refer to: http://libint.valeyev.net

 This ORCA versions uses:
   CBLAS   interface :  Fast vector & matrix operations
   LAPACKE interface :  Fast linear algebra routines
   SCALAPACK package :  Parallel linear algebra routines


----- Orbital basis set information -----
Your calculation utilizes the basis: aug-pc-4
   H, C-F              : F. Jensen, J. Chem. Phys. 115, 9113 (2001).
                         F. Jensen, J. Chem. Phys. 116, 7372 (2002).
                         F. Jensen, J. Chem. Phys. 117, 9234 (2002).
   Si-Cl               : F. Jensen, T. Helgaker, J. Chem. Phys. 121, 3463 (2004).
   He-B, Ne-Mg, Al, Ar : F. Jensen, J. Phys. Chem. A 111, 11198 (2007).
   K, Ca, Ga-Kr        : F. Jensen, J. Chem. Phys. 136, 094110 (2012).
   Sc-Zn               : F. Jensen, J. Chem. Phys. 138, 014107 (2013).

================================================================================
                                        WARNINGS
                       Please study these warnings very carefully!
================================================================================


INFO   : the flag for use of LIBINT has been found!

================================================================================
                                       INPUT FILE
================================================================================
NAME = hof_pbe.inp
|  1> !uks pbe nori aug-pc-4 grid5 nofinalgrid verytightscf
|  2> 
|  3> %maxcore 1500
|  4> 
|  5> %pal nprocs 4 end
|  6> 
|  7> %scf
|  8> 	maxiter 200
|  9> end
| 10> %elprop
| 11> 	dipole true
| 12> 	 polar 1
| 13> 	 maxiter 200
| 14> end
| 15> 
| 16> * xyz 0 1
| 17> O 0.0529 0 0.7143
| 18> H -0.8995 0 0.8346
| 19> F 0.0529 0 -0.7277
| 20> *
| 21> 
| 22>                          ****END OF INPUT****
================================================================================

                       ****************************
                       * Single Point Calculation *
                       ****************************

---------------------------------
CARTESIAN COORDINATES (ANGSTROEM)
---------------------------------
  O      0.052900    0.000000    0.714300
  H     -0.899500    0.000000    0.834600
  F      0.052900    0.000000   -0.727700

----------------------------
CARTESIAN COORDINATES (A.U.)
----------------------------
  NO LB      ZA    FRAG     MASS         X           Y           Z
   0 O     8.0000    0    15.999    0.099967    0.000000    1.349831
   1 H     1.0000    0     1.008   -1.699809    0.000000    1.577165
   2 F     9.0000    0    18.998    0.099967    0.000000   -1.375154

--------------------------------
INTERNAL COORDINATES (ANGSTROEM)
--------------------------------
 O      0   0   0     0.000000000000     0.00000000     0.00000000
 H      1   0   0     0.959967629663     0.00000000     0.00000000
 F      1   2   0     1.442000000000    97.19904664     0.00000000

---------------------------
INTERNAL COORDINATES (A.U.)
---------------------------
 O      0   0   0     0.000000000000     0.00000000     0.00000000
 H      1   0   0     1.814075917492     0.00000000     0.00000000
 F      1   2   0     2.724985085114    97.19904664     0.00000000

---------------------
BASIS SET INFORMATION
---------------------
There are 3 groups of distinct atoms

 Group   1 Type O   : 27s12p7d4f3g2h contracted to 9s8p7d4f3g2h pattern {1191111111/51111111/1111111/1111/111/11}
 Group   2 Type H   : 12s7p4d3f2g contracted to 8s7p4d3f2g pattern {51111111/1111111/1111/111/11}
 Group   3 Type F   : 27s12p7d4f3g2h contracted to 9s8p7d4f3g2h pattern {1191111111/51111111/1111111/1111/111/11}

Atom   0O    basis set group =>   1
Atom   1H    basis set group =>   2
Atom   2F    basis set group =>   3


           ************************************************************
           *        Program running with 4 parallel MPI-processes     *
           *              working on a common directory               *
           ************************************************************
------------------------------------------------------------------------------
                           ORCA GTO INTEGRAL CALCULATION
------------------------------------------------------------------------------

                         BASIS SET STATISTICS AND STARTUP INFO

 # of primitive gaussian shells          ...  138
 # of primitive gaussian functions       ...  442
 # of contracted shells                  ...   90
 # of contracted basis functions         ...  378
 Highest angular momentum                ...    5
 Maximum contraction depth               ...   11
 Integral package used                   ... LIBINT
 Integral threshhold            Thresh   ...  1.000e-12
 Primitive cut-off              TCut     ...  1.000e-14


------------------------------ INTEGRAL EVALUATION ----------------------------


 * One electron integrals 
 Pre-screening matrix                    ... done
 Shell pair data                         ... done (   0.001 sec)



           ************************************************************
           *        Program running with 4 parallel MPI-processes     *
           *              working on a common directory               *
           ************************************************************
-------------------------------------------------------------------------------
                                 ORCA SCF
-------------------------------------------------------------------------------

------------
SCF SETTINGS
------------
Hamiltonian:
 Density Functional     Method          .... DFT(GTOs)
 Exchange Functional    Exchange        .... PBE
   PBE kappa parameter   XKappa         ....  0.804000
   PBE mue parameter    XMuePBE         ....  0.219520
 Correlation Functional Correlation     .... PBE
   PBE beta parameter  CBetaPBE         ....  0.066725
 LDA part of GGA corr.  LDAOpt          .... PW91-LDA
 Gradients option       PostSCFGGA      .... off
   Density functional embedding theory  .... OFF
   NL short-range parameter             ....  6.400000


General Settings:
 Integral files         IntName         .... hof_pbe
 Hartree-Fock type      HFTyp           .... UHF
 Total Charge           Charge          ....    0
 Multiplicity           Mult            ....    1
 Number of Electrons    NEL             ....   18
 Basis Dimension        Dim             ....  378
 Nuclear Repulsion      ENuc            ....     33.4350418289 Eh

Convergence Acceleration:
 DIIS                   CNVDIIS         .... on
   Start iteration      DIISMaxIt       ....    12
   Startup error        DIISStart       ....  0.200000
   # of expansion vecs  DIISMaxEq       ....     5
   Bias factor          DIISBfac        ....   1.050
   Max. coefficient     DIISMaxC        ....  10.000
 Newton-Raphson         CNVNR           .... off
 SOSCF                  CNVSOSCF        .... off
 Level Shifting         CNVShift        .... on
   Level shift para.    LevelShift      ....    0.2500
   Turn off err/grad.   ShiftErr        ....    0.0010
 Zerner damping         CNVZerner       .... off
 Static damping         CNVDamp         .... on
   Fraction old density DampFac         ....    0.7000
   Max. Damping (<1)    DampMax         ....    0.9800
   Min. Damping (>=0)   DampMin         ....    0.0000
   Turn off err/grad.   DampErr         ....    0.1000
 Fernandez-Rico         CNVRico         .... off

SCF Procedure:
 Maximum # iterations   MaxIter         ....   200
 SCF integral mode      SCFMode         .... Direct
   Integral package                     .... LIBINT
 Reset frequency        DirectResetFreq ....    20
 Integral Threshold     Thresh          ....  1.000e-12 Eh
 Primitive CutOff       TCut            ....  1.000e-14 Eh

Convergence Tolerance:
 Convergence Check Mode ConvCheckMode   .... Total+1el-Energy
 Convergence forced     ConvForced      .... 0
 Energy Change          TolE            ....  1.000e-09 Eh
 1-El. energy change                    ....  1.000e-06 Eh
 DIIS Error             TolErr          ....  1.000e-08


Diagonalization of the overlap matrix:
Smallest eigenvalue                        ... 2.103e-06
Time for diagonalization                   ...    0.036 sec
Threshold for overlap eigenvalues          ... 1.000e-08
Number of eigenvalues below threshold      ... 0
Time for construction of square roots      ...    0.026 sec
Total time needed                          ...    0.062 sec

-------------------
DFT GRID GENERATION
-------------------

General Integration Accuracy     IntAcc      ...  5.010
Radial Grid Type                 RadialGrid  ... Gauss-Chebyshev
Angular Grid (max. acc.)         AngularGrid ... Lebedev-434
Angular grid pruning method      GridPruning ... 3 (G Style)
Weight generation scheme         WeightScheme... Becke
Basis function cutoff            BFCut       ...    1.0000e-12
Integration weight cutoff        WCut        ...    1.0000e-14
Grids for H and He will be reduced by one unit

# of grid points (after initial pruning)     ...  28352 (   0.0 sec)
# of grid points (after weights+screening)   ...  28094 (   0.0 sec)
nearest neighbour list constructed           ...    0.0 sec
Grid point re-assignment to atoms done       ...    0.0 sec
Grid point division into batches done        ...    0.2 sec
Reduced shell lists constructed in    0.3 sec

Total number of grid points                  ...    28094
Total number of batches                      ...      440
Average number of points per batch           ...       63
Average number of grid points per atom       ...     9365
Average number of shells per batch           ...    66.98 (74.42%)
Average number of basis functions per batch  ...   292.66 (77.42%)
Average number of large shells per batch     ...    60.51 (90.34%)
Average number of large basis fcns per batch ...   266.14 (90.94%)
Maximum spatial batch extension              ...  13.62, 16.29, 13.29 au
Average spatial batch extension              ...   0.68,  0.74,  0.66 au

Time for grid setup =    0.344 sec

------------------------------
INITIAL GUESS: MODEL POTENTIAL
------------------------------
Loading Hartree-Fock densities                     ... done
Calculating cut-offs                               ... done
Setting up the integral package                    ... done
Initializing the effective Hamiltonian             ... done
Starting the Coulomb interaction                   ... done (   0.0 sec)
Reading the grid                                   ... done
Mapping shells                                     ... done
Starting the XC term evaluation                    ... done (   0.5 sec)
  promolecular density results
     # of electrons  =     17.999513891
     EX              =    -18.372981832
     EC              =     -0.604029640
     EX+EC           =    -18.977011472
Transforming the Hamiltonian                       ... done (   0.0 sec)
Diagonalizing the Hamiltonian                      ... done (   0.0 sec)
Back transforming the eigenvectors                 ... done (   0.0 sec)
Now organizing SCF variables                       ... done
                      ------------------
                      INITIAL GUESS DONE (   1.1 sec)
                      ------------------
--------------
SCF ITERATIONS
--------------
ITER       Energy         Delta-E        Max-DP      RMS-DP      [F,P]     Damp
               ***  Starting incremental Fock matrix formation  ***
  0   -175.4447046365   0.000000000000 0.00614227  0.00007428  0.1248524 0.7000
  1   -175.4546553508  -0.009950714336 0.00436883  0.00005156  0.0480695 0.7000
                               ***Turning on DIIS***
  2   -175.4581730991  -0.003517748359 0.00664586  0.00008531  0.0238662 0.0000
  3   -175.4649258156  -0.006752716495 0.00277389  0.00003556  0.0256938 0.0000
  4   -175.4658166414  -0.000890825796 0.00088316  0.00001045  0.0106230 0.0000
  5   -175.4658962334  -0.000079591919 0.00026030  0.00000331  0.0048011 0.0000
  6   -175.4659111454  -0.000014912037 0.00005738  0.00000099  0.0011565 0.0000
  7   -175.4659122642  -0.000001118850 0.00003462  0.00000054  0.0001745 0.0000
  8   -175.4659123039  -0.000000039697 0.00000223  0.00000003  0.0000127 0.0000
  9   -175.4659123043  -0.000000000323 0.00000048  0.00000001  0.0000059 0.0000
 10   -175.4659123043  -0.000000000064 0.00000042  0.00000000  0.0000008 0.0000
 11   -175.4659123043  -0.000000000004 0.00000064  0.00000001  0.0000002 0.0000
 12   -175.4659123043  -0.000000000001 0.00000213  0.00000002  0.0000003 0.0000
                 **** Energy Check signals convergence ****

               *****************************************************
               *                     SUCCESS                       *
               *           SCF CONVERGED AFTER  13 CYCLES          *
               *****************************************************


----------------
TOTAL SCF ENERGY
----------------

Total Energy       :         -175.46591230 Eh           -4774.67021 eV

Components:
Nuclear Repulsion  :           33.43504183 Eh             909.81374 eV
Electronic Energy  :         -208.90095413 Eh           -5684.48396 eV
One Electron Energy:         -309.71970662 Eh           -8427.90168 eV
Two Electron Energy:          100.81875248 Eh            2743.41773 eV

Virial components:
Potential Energy   :         -350.45495829 Eh           -9536.36423 eV
Kinetic Energy     :          174.98904599 Eh            4761.69402 eV
Virial Ratio       :            2.00272512


DFT components:
N(Alpha)           :        8.999999967049 electrons
N(Beta)            :        8.999999967049 electrons
N(Total)           :       17.999999934098 electrons
E(X)               :      -18.523527187401 Eh       
E(C)               :       -0.604856172371 Eh       
E(XC)              :      -19.128383359772 Eh       
DFET-embed. en.    :        0.000000000000 Eh       

---------------
SCF CONVERGENCE
---------------

  Last Energy change         ...    7.6739e-12  Tolerance :   1.0000e-09
  Last MAX-Density change    ...    1.1779e-06  Tolerance :   1.0000e-08
  Last RMS-Density change    ...    1.5159e-08  Tolerance :   1.0000e-09
  Last DIIS Error            ...    6.8810e-08  Tolerance :   1.0000e-08

             **** THE GBW FILE WAS UPDATED (hof_pbe.gbw) ****
             **** DENSITY FILE WAS UPDATED (hof_pbe.scfp.tmp) ****
             **** ENERGY FILE WAS UPDATED (hof_pbe.en.tmp) ****
----------------------
UHF SPIN CONTAMINATION
----------------------

Warning: in a DFT calculation there is little theoretical justification to 
         calculate <S**2> as in Hartree-Fock theory. We will do it anyways
         but you should keep in mind that the values have only limited relevance

Expectation value of <S**2>     :     0.000000
Ideal value S*(S+1) for S=0.0   :     0.000000
Deviation                       :     0.000000

----------------
ORBITAL ENERGIES
----------------
                 SPIN UP ORBITALS
  NO   OCC          E(Eh)            E(eV) 
   0   1.0000     -24.303524      -661.3325 
   1   1.0000     -18.861187      -513.2390 
   2   1.0000      -1.152234       -31.3539 
   3   1.0000      -0.902057       -24.5462 
   4   1.0000      -0.526275       -14.3207 
   5   1.0000      -0.453384       -12.3372 
   6   1.0000      -0.411509       -11.1977 
   7   1.0000      -0.335890        -9.1400 
   8   1.0000      -0.270644        -7.3646 
   9   0.0000      -0.127114        -3.4589 
  10   0.0000      -0.029931        -0.8145 
  11   0.0000       0.025164         0.6848 
  12   0.0000       0.028764         0.7827 
  13   0.0000       0.029899         0.8136 
  14   0.0000       0.037641         1.0243 
  15   0.0000       0.065712         1.7881 
  16   0.0000       0.072395         1.9700 
  17   0.0000       0.075774         2.0619 
  18   0.0000       0.087951         2.3933 
  19   0.0000       0.088171         2.3992 
  20   0.0000       0.108516         2.9529 
  21   0.0000       0.119197         3.2435 
  22   0.0000       0.142003         3.8641 
  23   0.0000       0.148340         4.0365 
  24   0.0000       0.156691         4.2638 
  25   0.0000       0.171023         4.6538 
  26   0.0000       0.178854         4.8669 
  27   0.0000       0.197231         5.3669 
  28   0.0000       0.198966         5.4141 
  29   0.0000       0.200877         5.4661 
  30   0.0000       0.214197         5.8286 
  31   0.0000       0.216750         5.8981 
  32   0.0000       0.220738         6.0066 
  33   0.0000       0.234777         6.3886 
  34   0.0000       0.242166         6.5897 
  35   0.0000       0.242402         6.5961 
  36   0.0000       0.266851         7.2614 
  37   0.0000       0.284118         7.7312 
  38   0.0000       0.292567         7.9612 
  39   0.0000       0.307912         8.3787 
  40   0.0000       0.319424         8.6920 
  41   0.0000       0.325325         8.8526 
  42   0.0000       0.333225         9.0675 
  43   0.0000       0.345209         9.3936 
  44   0.0000       0.358363         9.7515 
  45   0.0000       0.360281         9.8037 
  46   0.0000       0.373370        10.1599 
  47   0.0000       0.384605        10.4656 
  48   0.0000       0.389531        10.5997 
  49   0.0000       0.402759        10.9596 
  50   0.0000       0.408338        11.1114 
  51   0.0000       0.428519        11.6606 
  52   0.0000       0.447063        12.1652 
  53   0.0000       0.448767        12.2116 
  54   0.0000       0.472855        12.8670 
  55   0.0000       0.479988        13.0611 
  56   0.0000       0.481746        13.1090 
  57   0.0000       0.487776        13.2731 
  58   0.0000       0.509104        13.8534 
  59   0.0000       0.511599        13.9213 
  60   0.0000       0.513768        13.9803 
  61   0.0000       0.516961        14.0672 
  62   0.0000       0.528586        14.3836 
  63   0.0000       0.555439        15.1143 
  64   0.0000       0.555997        15.1294 
  65   0.0000       0.569445        15.4954 
  66   0.0000       0.593833        16.1590 
  67   0.0000       0.595761        16.2115 
  68   0.0000       0.598596        16.2886 
  69   0.0000       0.609193        16.5770 
  70   0.0000       0.617565        16.8048 
  71   0.0000       0.619550        16.8588 
  72   0.0000       0.628868        17.1124 
  73   0.0000       0.645908        17.5760 
  74   0.0000       0.676859        18.4183 
  75   0.0000       0.679445        18.4886 
  76   0.0000       0.689530        18.7631 
  77   0.0000       0.692410        18.8414 
  78   0.0000       0.700620        19.0648 
  79   0.0000       0.716913        19.5082 
  80   0.0000       0.725892        19.7525 
  81   0.0000       0.734996        20.0003 
  82   0.0000       0.743114        20.2212 
  83   0.0000       0.751388        20.4463 
  84   0.0000       0.756065        20.5736 
  85   0.0000       0.778507        21.1842 
  86   0.0000       0.798692        21.7335 
  87   0.0000       0.812247        22.1024 
  88   0.0000       0.812342        22.1049 
  89   0.0000       0.830946        22.6112 
  90   0.0000       0.840420        22.8690 
  91   0.0000       0.873860        23.7789 
  92   0.0000       0.874694        23.8016 
  93   0.0000       0.890460        24.2307 
  94   0.0000       0.935353        25.4523 
  95   0.0000       0.935867        25.4662 
  96   0.0000       0.953568        25.9479 
  97   0.0000       0.959798        26.1174 
  98   0.0000       0.972859        26.4728 
  99   0.0000       0.974922        26.5290 
 100   0.0000       0.993860        27.0443 
 101   0.0000       0.994157        27.0524 
 102   0.0000       1.007502        27.4155 
 103   0.0000       1.027459        27.9586 
 104   0.0000       1.027902        27.9706 
 105   0.0000       1.042995        28.3813 
 106   0.0000       1.052661        28.6444 
 107   0.0000       1.061663        28.8893 
 108   0.0000       1.066450        29.0196 
 109   0.0000       1.068217        29.0677 
 110   0.0000       1.077993        29.3337 
 111   0.0000       1.099420        29.9167 
 112   0.0000       1.122220        30.5372 
 113   0.0000       1.127466        30.6799 
 114   0.0000       1.131761        30.7968 
 115   0.0000       1.148064        31.2404 
 116   0.0000       1.214180        33.0395 
 117   0.0000       1.233929        33.5769 
 118   0.0000       1.237069        33.6623 
 119   0.0000       1.289242        35.0821 
 120   0.0000       1.290239        35.1092 
 121   0.0000       1.292909        35.1818 
 122   0.0000       1.302354        35.4389 
 123   0.0000       1.307966        35.5916 
 124   0.0000       1.315410        35.7941 
 125   0.0000       1.319310        35.9002 
 126   0.0000       1.340620        36.4801 
 127   0.0000       1.364786        37.1377 
 128   0.0000       1.376236        37.4493 
 129   0.0000       1.424390        38.7596 
 130   0.0000       1.440016        39.1848 
 131   0.0000       1.443749        39.2864 
 132   0.0000       1.455684        39.6112 
 133   0.0000       1.459910        39.7262 
 134   0.0000       1.484083        40.3840 
 135   0.0000       1.503591        40.9148 
 136   0.0000       1.504711        40.9453 
 137   0.0000       1.530006        41.6336 
 138   0.0000       1.538461        41.8636 
 139   0.0000       1.588602        43.2281 
 140   0.0000       1.605629        43.6914 
 141   0.0000       1.687843        45.9285 
 142   0.0000       1.714786        46.6617 
 143   0.0000       1.752244        47.6810 
 144   0.0000       1.784671        48.5634 
 145   0.0000       1.792388        48.7734 
 146   0.0000       1.842279        50.1309 
 147   0.0000       1.872597        50.9559 
 148   0.0000       1.880095        51.1600 
 149   0.0000       1.945634        52.9434 
 150   0.0000       2.055738        55.9395 
 151   0.0000       2.089065        56.8463 
 152   0.0000       2.114285        57.5326 
 153   0.0000       2.183846        59.4255 
 154   0.0000       2.197420        59.7948 
 155   0.0000       2.227843        60.6227 
 156   0.0000       2.326299        63.3018 
 157   0.0000       2.341560        63.7171 
 158   0.0000       2.362765        64.2941 
 159   0.0000       2.400843        65.3303 
 160   0.0000       2.421566        65.8942 
 161   0.0000       2.427423        66.0535 
 162   0.0000       2.463716        67.0411 
 163   0.0000       2.502083        68.0851 
 164   0.0000       2.516372        68.4740 
 165   0.0000       2.532632        68.9164 
 166   0.0000       2.640221        71.8441 
 167   0.0000       2.698960        73.4424 
 168   0.0000       2.775111        75.5146 
 169   0.0000       2.795416        76.0671 
 170   0.0000       2.825454        76.8845 
 171   0.0000       2.886273        78.5395 
 172   0.0000       2.946843        80.1877 
 173   0.0000       3.013044        81.9891 
 174   0.0000       3.214651        87.4751 
 175   0.0000       3.224087        87.7319 
 176   0.0000       3.247975        88.3819 
 177   0.0000       3.359608        91.4196 
 178   0.0000       3.367144        91.6246 
 179   0.0000       3.461221        94.1846 
 180   0.0000       3.530480        96.0693 
 181   0.0000       3.591385        97.7266 
 182   0.0000       3.675018       100.0023 
 183   0.0000       3.745028       101.9074 
 184   0.0000       3.746940       101.9594 
 185   0.0000       3.879518       105.5670 
 186   0.0000       3.936508       107.1178 
 187   0.0000       4.080547       111.0373 
 188   0.0000       4.124613       112.2364 
 189   0.0000       4.203501       114.3831 
 190   0.0000       4.224979       114.9675 
 191   0.0000       4.324988       117.6889 
 192   0.0000       4.375042       119.0510 
 193   0.0000       4.402227       119.7907 
 194   0.0000       4.514407       122.8432 
 195   0.0000       4.515782       122.8807 
 196   0.0000       4.580943       124.6538 
 197   0.0000       4.871346       132.5561 
 198   0.0000       4.922850       133.9576 
 199   0.0000       5.181072       140.9841 
 200   0.0000       5.238161       142.5376 
 201   0.0000       5.309917       144.4902 
 202   0.0000       5.322046       144.8202 
 203   0.0000       5.344379       145.4279 
 204   0.0000       5.361163       145.8847 
 205   0.0000       5.416140       147.3807 
 206   0.0000       5.460819       148.5964 
 207   0.0000       5.504048       149.7728 
 208   0.0000       5.548915       150.9936 
 209   0.0000       5.628634       153.1629 
 210   0.0000       5.659811       154.0113 
 211   0.0000       5.808911       158.0685 
 212   0.0000       5.908743       160.7851 
 213   0.0000       5.965225       162.3220 
 214   0.0000       5.988795       162.9634 
 215   0.0000       6.058499       164.8601 
 216   0.0000       6.172603       167.9651 
 217   0.0000       6.175990       168.0572 
 218   0.0000       6.222083       169.3115 
 219   0.0000       6.232266       169.5886 
 220   0.0000       6.331623       172.2922 
 221   0.0000       6.357935       173.0082 
 222   0.0000       6.412410       174.4905 
 223   0.0000       6.432927       175.0489 
 224   0.0000       6.503115       176.9588 
 225   0.0000       6.816412       185.4840 
 226   0.0000       6.927629       188.5104 
 227   0.0000       6.959425       189.3756 
 228   0.0000       7.044446       191.6891 
 229   0.0000       7.125293       193.8891 
 230   0.0000       7.142262       194.3508 
 231   0.0000       7.160826       194.8560 
 232   0.0000       7.170251       195.1124 
 233   0.0000       7.336407       199.6338 
 234   0.0000       7.357645       200.2117 
 235   0.0000       7.440012       202.4530 
 236   0.0000       7.494204       203.9277 
 237   0.0000       7.772976       211.5134 
 238   0.0000       7.849315       213.5907 
 239   0.0000       7.945301       216.2026 
 240   0.0000       8.196129       223.0280 
 241   0.0000       8.512584       231.6392 
 242   0.0000       8.516641       231.7496 
 243   0.0000       8.725619       237.4362 
 244   0.0000       8.894935       242.0435 
 245   0.0000       9.004591       245.0274 
 246   0.0000       9.196674       250.2542 
 247   0.0000       9.261115       252.0078 
 248   0.0000       9.308917       253.3085 
 249   0.0000       9.502737       258.5826 
 250   0.0000       9.557309       260.0676 
 251   0.0000       9.641002       262.3450 
 252   0.0000      10.049093       273.4497 
 253   0.0000      10.330532       281.1081 
 254   0.0000      10.461518       284.6724 
 255   0.0000      10.627680       289.1939 
 256   0.0000      10.849164       295.2208 
 257   0.0000      11.175121       304.0905 
 258   0.0000      11.344912       308.7108 
 259   0.0000      11.595588       315.5320 
 260   0.0000      11.691661       318.1463 
 261   0.0000      11.738816       319.4294 
 262   0.0000      11.771962       320.3314 
 263   0.0000      11.778334       320.5048 
 264   0.0000      11.880270       323.2786 
 265   0.0000      11.892758       323.6184 
 266   0.0000      11.943552       325.0006 
 267   0.0000      12.005657       326.6905 
 268   0.0000      12.042274       327.6869 
 269   0.0000      12.259887       333.6085 
 270   0.0000      12.274297       334.0006 
 271   0.0000      12.352133       336.1186 
 272   0.0000      12.382045       336.9326 
 273   0.0000      12.388091       337.0971 
 274   0.0000      12.587515       342.5237 
 275   0.0000      12.589354       342.5737 
 276   0.0000      12.623433       343.5011 
 277   0.0000      12.658170       344.4463 
 278   0.0000      12.671255       344.8024 
 279   0.0000      12.680197       345.0457 
 280   0.0000      12.684120       345.1524 
 281   0.0000      12.764662       347.3441 
 282   0.0000      12.775357       347.6351 
 283   0.0000      12.809041       348.5517 
 284   0.0000      12.867320       350.1376 
 285   0.0000      12.931101       351.8732 
 286   0.0000      12.989611       353.4653 
 287   0.0000      13.162615       358.1730 
 288   0.0000      13.456393       366.1671 
 289   0.0000      13.579384       369.5138 
 290   0.0000      13.618370       370.5747 
 291   0.0000      13.782320       375.0360 
 292   0.0000      13.784286       375.0895 
 293   0.0000      13.932618       379.1258 
 294   0.0000      14.024367       381.6224 
 295   0.0000      14.045984       382.2107 
 296   0.0000      14.186843       386.0436 
 297   0.0000      14.392905       391.6509 
 298   0.0000      14.433208       392.7476 
 299   0.0000      14.451818       393.2540 
 300   0.0000      14.694034       399.8450 
 301   0.0000      14.838796       403.7842 
 302   0.0000      14.996386       408.0724 
 303   0.0000      15.015818       408.6012 
 304   0.0000      15.146601       412.1600 
 305   0.0000      15.182265       413.1304 
 306   0.0000      15.485727       421.3881 
 307   0.0000      15.573180       423.7678 
 308   0.0000      16.057360       436.9430 
 309   0.0000      16.058180       436.9653 
 310   0.0000      16.699412       454.4141 
 311   0.0000      16.747242       455.7156 
 312   0.0000      17.109368       465.5696 
 313   0.0000      17.163790       467.0505 
 314   0.0000      17.188262       467.7164 
 315   0.0000      17.189762       467.7572 
 316   0.0000      17.355069       472.2554 
 317   0.0000      17.423268       474.1112 
 318   0.0000      17.609570       479.1807 
 319   0.0000      17.620091       479.4670 
 320   0.0000      17.631324       479.7727 
 321   0.0000      17.754970       483.1373 
 322   0.0000      17.871330       486.3036 
 323   0.0000      18.228606       496.0256 
 324   0.0000      18.303269       498.0573 
 325   0.0000      18.962914       516.0071 
 326   0.0000      19.430509       528.7310 
 327   0.0000      19.754520       537.5478 
 328   0.0000      19.819895       539.3268 
 329   0.0000      20.101379       546.9863 
 330   0.0000      20.102394       547.0140 
 331   0.0000      20.135936       547.9267 
 332   0.0000      20.210058       549.9436 
 333   0.0000      20.526439       558.5528 
 334   0.0000      20.550231       559.2002 
 335   0.0000      20.836989       567.0033 
 336   0.0000      20.960439       570.3626 
 337   0.0000      21.118566       574.6654 
 338   0.0000      21.498095       584.9929 
 339   0.0000      21.843937       594.4037 
 340   0.0000      22.186436       603.7236 
 341   0.0000      23.163607       630.3138 
 342   0.0000      23.583671       641.7443 
 343   0.0000      23.699522       644.8968 
 344   0.0000      23.785017       647.2232 
 345   0.0000      23.907778       650.5637 
 346   0.0000      24.456249       665.4884 
 347   0.0000      26.875650       731.3236 
 348   0.0000      27.091299       737.1917 
 349   0.0000      30.372872       826.4879 
 350   0.0000      30.409470       827.4837 
 351   0.0000      30.519494       830.4777 
 352   0.0000      30.625347       833.3581 
 353   0.0000      30.665786       834.4585 
 354   0.0000      31.392262       854.2269 
 355   0.0000      31.983667       870.3198 
 356   0.0000      33.281630       905.6392 
 357   0.0000      34.103518       928.0039 
 358   0.0000      41.267780      1122.9534 
 359   0.0000      41.524152      1129.9296 
 360   0.0000      41.656478      1133.5304 
 361   0.0000      41.893317      1139.9751 
 362   0.0000      43.362478      1179.9530 
 363   0.0000      66.555826      1811.0761 
 364   0.0000      66.858326      1819.3075 
 365   0.0000      66.879700      1819.8892 
 366   0.0000      67.134685      1826.8277 
 367   0.0000      68.735342      1870.3837 
 368   0.0000      91.018034      2476.7266 
 369   0.0000      91.146528      2480.2231 
 370   0.0000      91.281857      2483.9056 
 371   0.0000      91.313913      2484.7779 
 372   0.0000      91.373819      2486.4080 
 373   0.0000      91.456444      2488.6564 
 374   0.0000      92.010454      2503.7317 
 375   0.0000      93.505150      2544.4045 
 376   0.0000     143.527746      3905.5885 
 377   0.0000     201.674944      5487.8542 

                 SPIN DOWN ORBITALS
  NO   OCC          E(Eh)            E(eV) 
   0   1.0000     -24.303524      -661.3325 
   1   1.0000     -18.861187      -513.2390 
   2   1.0000      -1.152234       -31.3539 
   3   1.0000      -0.902057       -24.5462 
   4   1.0000      -0.526275       -14.3207 
   5   1.0000      -0.453384       -12.3372 
   6   1.0000      -0.411509       -11.1977 
   7   1.0000      -0.335890        -9.1400 
   8   1.0000      -0.270644        -7.3646 
   9   0.0000      -0.127114        -3.4589 
  10   0.0000      -0.029931        -0.8145 
  11   0.0000       0.025164         0.6848 
  12   0.0000       0.028764         0.7827 
  13   0.0000       0.029899         0.8136 
  14   0.0000       0.037641         1.0243 
  15   0.0000       0.065712         1.7881 
  16   0.0000       0.072395         1.9700 
  17   0.0000       0.075774         2.0619 
  18   0.0000       0.087951         2.3933 
  19   0.0000       0.088171         2.3992 
  20   0.0000       0.108516         2.9529 
  21   0.0000       0.119197         3.2435 
  22   0.0000       0.142003         3.8641 
  23   0.0000       0.148340         4.0365 
  24   0.0000       0.156691         4.2638 
  25   0.0000       0.171023         4.6538 
  26   0.0000       0.178854         4.8669 
  27   0.0000       0.197231         5.3669 
  28   0.0000       0.198966         5.4141 
  29   0.0000       0.200877         5.4661 
  30   0.0000       0.214197         5.8286 
  31   0.0000       0.216750         5.8981 
  32   0.0000       0.220738         6.0066 
  33   0.0000       0.234777         6.3886 
  34   0.0000       0.242166         6.5897 
  35   0.0000       0.242402         6.5961 
  36   0.0000       0.266851         7.2614 
  37   0.0000       0.284118         7.7312 
  38   0.0000       0.292567         7.9612 
  39   0.0000       0.307912         8.3787 
  40   0.0000       0.319424         8.6920 
  41   0.0000       0.325325         8.8526 
  42   0.0000       0.333225         9.0675 
  43   0.0000       0.345209         9.3936 
  44   0.0000       0.358363         9.7515 
  45   0.0000       0.360281         9.8037 
  46   0.0000       0.373370        10.1599 
  47   0.0000       0.384605        10.4656 
  48   0.0000       0.389531        10.5997 
  49   0.0000       0.402759        10.9596 
  50   0.0000       0.408338        11.1114 
  51   0.0000       0.428519        11.6606 
  52   0.0000       0.447063        12.1652 
  53   0.0000       0.448767        12.2116 
  54   0.0000       0.472855        12.8670 
  55   0.0000       0.479988        13.0611 
  56   0.0000       0.481746        13.1090 
  57   0.0000       0.487776        13.2731 
  58   0.0000       0.509104        13.8534 
  59   0.0000       0.511599        13.9213 
  60   0.0000       0.513768        13.9803 
  61   0.0000       0.516961        14.0672 
  62   0.0000       0.528586        14.3836 
  63   0.0000       0.555439        15.1143 
  64   0.0000       0.555997        15.1294 
  65   0.0000       0.569445        15.4954 
  66   0.0000       0.593833        16.1590 
  67   0.0000       0.595761        16.2115 
  68   0.0000       0.598596        16.2886 
  69   0.0000       0.609193        16.5770 
  70   0.0000       0.617565        16.8048 
  71   0.0000       0.619550        16.8588 
  72   0.0000       0.628868        17.1124 
  73   0.0000       0.645908        17.5760 
  74   0.0000       0.676859        18.4183 
  75   0.0000       0.679445        18.4886 
  76   0.0000       0.689530        18.7631 
  77   0.0000       0.692410        18.8414 
  78   0.0000       0.700620        19.0648 
  79   0.0000       0.716913        19.5082 
  80   0.0000       0.725892        19.7525 
  81   0.0000       0.734996        20.0003 
  82   0.0000       0.743114        20.2212 
  83   0.0000       0.751388        20.4463 
  84   0.0000       0.756065        20.5736 
  85   0.0000       0.778507        21.1842 
  86   0.0000       0.798692        21.7335 
  87   0.0000       0.812247        22.1024 
  88   0.0000       0.812342        22.1049 
  89   0.0000       0.830946        22.6112 
  90   0.0000       0.840420        22.8690 
  91   0.0000       0.873860        23.7789 
  92   0.0000       0.874694        23.8016 
  93   0.0000       0.890460        24.2307 
  94   0.0000       0.935353        25.4523 
  95   0.0000       0.935867        25.4662 
  96   0.0000       0.953568        25.9479 
  97   0.0000       0.959798        26.1174 
  98   0.0000       0.972859        26.4728 
  99   0.0000       0.974922        26.5290 
 100   0.0000       0.993860        27.0443 
 101   0.0000       0.994157        27.0524 
 102   0.0000       1.007502        27.4155 
 103   0.0000       1.027459        27.9586 
 104   0.0000       1.027902        27.9706 
 105   0.0000       1.042995        28.3813 
 106   0.0000       1.052661        28.6444 
 107   0.0000       1.061663        28.8893 
 108   0.0000       1.066450        29.0196 
 109   0.0000       1.068217        29.0677 
 110   0.0000       1.077993        29.3337 
 111   0.0000       1.099420        29.9167 
 112   0.0000       1.122220        30.5372 
 113   0.0000       1.127466        30.6799 
 114   0.0000       1.131761        30.7968 
 115   0.0000       1.148064        31.2404 
 116   0.0000       1.214180        33.0395 
 117   0.0000       1.233929        33.5769 
 118   0.0000       1.237069        33.6623 
 119   0.0000       1.289242        35.0821 
 120   0.0000       1.290239        35.1092 
 121   0.0000       1.292909        35.1818 
 122   0.0000       1.302354        35.4389 
 123   0.0000       1.307966        35.5916 
 124   0.0000       1.315410        35.7941 
 125   0.0000       1.319310        35.9002 
 126   0.0000       1.340620        36.4801 
 127   0.0000       1.364786        37.1377 
 128   0.0000       1.376236        37.4493 
 129   0.0000       1.424390        38.7596 
 130   0.0000       1.440016        39.1848 
 131   0.0000       1.443749        39.2864 
 132   0.0000       1.455684        39.6112 
 133   0.0000       1.459910        39.7262 
 134   0.0000       1.484083        40.3840 
 135   0.0000       1.503591        40.9148 
 136   0.0000       1.504711        40.9453 
 137   0.0000       1.530006        41.6336 
 138   0.0000       1.538461        41.8636 
 139   0.0000       1.588602        43.2281 
 140   0.0000       1.605629        43.6914 
 141   0.0000       1.687843        45.9285 
 142   0.0000       1.714786        46.6617 
 143   0.0000       1.752244        47.6810 
 144   0.0000       1.784671        48.5634 
 145   0.0000       1.792388        48.7734 
 146   0.0000       1.842279        50.1309 
 147   0.0000       1.872597        50.9559 
 148   0.0000       1.880095        51.1600 
 149   0.0000       1.945634        52.9434 
 150   0.0000       2.055738        55.9395 
 151   0.0000       2.089065        56.8463 
 152   0.0000       2.114285        57.5326 
 153   0.0000       2.183846        59.4255 
 154   0.0000       2.197420        59.7948 
 155   0.0000       2.227843        60.6227 
 156   0.0000       2.326299        63.3018 
 157   0.0000       2.341560        63.7171 
 158   0.0000       2.362765        64.2941 
 159   0.0000       2.400843        65.3303 
 160   0.0000       2.421566        65.8942 
 161   0.0000       2.427423        66.0535 
 162   0.0000       2.463716        67.0411 
 163   0.0000       2.502083        68.0851 
 164   0.0000       2.516372        68.4740 
 165   0.0000       2.532632        68.9164 
 166   0.0000       2.640221        71.8441 
 167   0.0000       2.698960        73.4424 
 168   0.0000       2.775111        75.5146 
 169   0.0000       2.795416        76.0671 
 170   0.0000       2.825454        76.8845 
 171   0.0000       2.886273        78.5395 
 172   0.0000       2.946843        80.1877 
 173   0.0000       3.013044        81.9891 
 174   0.0000       3.214651        87.4751 
 175   0.0000       3.224087        87.7319 
 176   0.0000       3.247975        88.3819 
 177   0.0000       3.359608        91.4196 
 178   0.0000       3.367144        91.6246 
 179   0.0000       3.461221        94.1846 
 180   0.0000       3.530480        96.0693 
 181   0.0000       3.591385        97.7266 
 182   0.0000       3.675018       100.0023 
 183   0.0000       3.745028       101.9074 
 184   0.0000       3.746940       101.9594 
 185   0.0000       3.879518       105.5670 
 186   0.0000       3.936508       107.1178 
 187   0.0000       4.080547       111.0373 
 188   0.0000       4.124613       112.2364 
 189   0.0000       4.203501       114.3831 
 190   0.0000       4.224979       114.9675 
 191   0.0000       4.324988       117.6889 
 192   0.0000       4.375042       119.0510 
 193   0.0000       4.402227       119.7907 
 194   0.0000       4.514407       122.8432 
 195   0.0000       4.515782       122.8807 
 196   0.0000       4.580943       124.6538 
 197   0.0000       4.871346       132.5561 
 198   0.0000       4.922850       133.9576 
 199   0.0000       5.181072       140.9841 
 200   0.0000       5.238161       142.5376 
 201   0.0000       5.309917       144.4902 
 202   0.0000       5.322046       144.8202 
 203   0.0000       5.344379       145.4279 
 204   0.0000       5.361163       145.8847 
 205   0.0000       5.416140       147.3807 
 206   0.0000       5.460819       148.5964 
 207   0.0000       5.504048       149.7728 
 208   0.0000       5.548915       150.9936 
 209   0.0000       5.628634       153.1629 
 210   0.0000       5.659811       154.0113 
 211   0.0000       5.808911       158.0685 
 212   0.0000       5.908743       160.7851 
 213   0.0000       5.965225       162.3220 
 214   0.0000       5.988795       162.9634 
 215   0.0000       6.058499       164.8601 
 216   0.0000       6.172603       167.9651 
 217   0.0000       6.175990       168.0572 
 218   0.0000       6.222083       169.3115 
 219   0.0000       6.232266       169.5886 
 220   0.0000       6.331623       172.2922 
 221   0.0000       6.357935       173.0082 
 222   0.0000       6.412410       174.4905 
 223   0.0000       6.432927       175.0489 
 224   0.0000       6.503115       176.9588 
 225   0.0000       6.816412       185.4840 
 226   0.0000       6.927629       188.5104 
 227   0.0000       6.959425       189.3756 
 228   0.0000       7.044446       191.6891 
 229   0.0000       7.125293       193.8891 
 230   0.0000       7.142262       194.3508 
 231   0.0000       7.160826       194.8560 
 232   0.0000       7.170251       195.1124 
 233   0.0000       7.336407       199.6338 
 234   0.0000       7.357645       200.2117 
 235   0.0000       7.440012       202.4530 
 236   0.0000       7.494204       203.9277 
 237   0.0000       7.772976       211.5134 
 238   0.0000       7.849315       213.5907 
 239   0.0000       7.945301       216.2026 
 240   0.0000       8.196129       223.0280 
 241   0.0000       8.512584       231.6392 
 242   0.0000       8.516641       231.7496 
 243   0.0000       8.725619       237.4362 
 244   0.0000       8.894935       242.0435 
 245   0.0000       9.004591       245.0274 
 246   0.0000       9.196674       250.2542 
 247   0.0000       9.261115       252.0078 
 248   0.0000       9.308917       253.3085 
 249   0.0000       9.502737       258.5826 
 250   0.0000       9.557309       260.0676 
 251   0.0000       9.641002       262.3450 
 252   0.0000      10.049093       273.4497 
 253   0.0000      10.330532       281.1081 
 254   0.0000      10.461518       284.6724 
 255   0.0000      10.627680       289.1939 
 256   0.0000      10.849164       295.2208 
 257   0.0000      11.175121       304.0905 
 258   0.0000      11.344912       308.7108 
 259   0.0000      11.595588       315.5320 
 260   0.0000      11.691661       318.1463 
 261   0.0000      11.738816       319.4294 
 262   0.0000      11.771962       320.3314 
 263   0.0000      11.778334       320.5048 
 264   0.0000      11.880270       323.2786 
 265   0.0000      11.892758       323.6184 
 266   0.0000      11.943552       325.0006 
 267   0.0000      12.005657       326.6905 
 268   0.0000      12.042274       327.6869 
 269   0.0000      12.259887       333.6085 
 270   0.0000      12.274297       334.0006 
 271   0.0000      12.352133       336.1186 
 272   0.0000      12.382045       336.9326 
 273   0.0000      12.388091       337.0971 
 274   0.0000      12.587515       342.5237 
 275   0.0000      12.589354       342.5737 
 276   0.0000      12.623433       343.5011 
 277   0.0000      12.658170       344.4463 
 278   0.0000      12.671255       344.8024 
 279   0.0000      12.680197       345.0457 
 280   0.0000      12.684120       345.1524 
 281   0.0000      12.764662       347.3441 
 282   0.0000      12.775357       347.6351 
 283   0.0000      12.809041       348.5517 
 284   0.0000      12.867320       350.1376 
 285   0.0000      12.931101       351.8732 
 286   0.0000      12.989611       353.4653 
 287   0.0000      13.162615       358.1730 
 288   0.0000      13.456393       366.1671 
 289   0.0000      13.579384       369.5138 
 290   0.0000      13.618370       370.5747 
 291   0.0000      13.782320       375.0360 
 292   0.0000      13.784286       375.0895 
 293   0.0000      13.932618       379.1258 
 294   0.0000      14.024367       381.6224 
 295   0.0000      14.045984       382.2107 
 296   0.0000      14.186843       386.0436 
 297   0.0000      14.392905       391.6509 
 298   0.0000      14.433208       392.7476 
 299   0.0000      14.451818       393.2540 
 300   0.0000      14.694034       399.8450 
 301   0.0000      14.838796       403.7842 
 302   0.0000      14.996386       408.0724 
 303   0.0000      15.015818       408.6012 
 304   0.0000      15.146601       412.1600 
 305   0.0000      15.182265       413.1304 
 306   0.0000      15.485727       421.3881 
 307   0.0000      15.573180       423.7678 
 308   0.0000      16.057360       436.9430 
 309   0.0000      16.058180       436.9653 
 310   0.0000      16.699412       454.4141 
 311   0.0000      16.747242       455.7156 
 312   0.0000      17.109368       465.5696 
 313   0.0000      17.163790       467.0505 
 314   0.0000      17.188262       467.7164 
 315   0.0000      17.189762       467.7572 
 316   0.0000      17.355069       472.2554 
 317   0.0000      17.423268       474.1112 
 318   0.0000      17.609570       479.1807 
 319   0.0000      17.620091       479.4670 
 320   0.0000      17.631324       479.7727 
 321   0.0000      17.754970       483.1373 
 322   0.0000      17.871330       486.3036 
 323   0.0000      18.228606       496.0256 
 324   0.0000      18.303269       498.0573 
 325   0.0000      18.962914       516.0071 
 326   0.0000      19.430509       528.7310 
 327   0.0000      19.754520       537.5478 
 328   0.0000      19.819895       539.3268 
 329   0.0000      20.101379       546.9863 
 330   0.0000      20.102394       547.0140 
 331   0.0000      20.135936       547.9267 
 332   0.0000      20.210058       549.9436 
 333   0.0000      20.526439       558.5528 
 334   0.0000      20.550231       559.2002 
 335   0.0000      20.836989       567.0033 
 336   0.0000      20.960439       570.3626 
 337   0.0000      21.118566       574.6654 
 338   0.0000      21.498095       584.9929 
 339   0.0000      21.843937       594.4037 
 340   0.0000      22.186436       603.7236 
 341   0.0000      23.163607       630.3138 
 342   0.0000      23.583671       641.7443 
 343   0.0000      23.699522       644.8968 
 344   0.0000      23.785017       647.2232 
 345   0.0000      23.907778       650.5637 
 346   0.0000      24.456249       665.4884 
 347   0.0000      26.875650       731.3236 
 348   0.0000      27.091299       737.1917 
 349   0.0000      30.372872       826.4879 
 350   0.0000      30.409470       827.4837 
 351   0.0000      30.519494       830.4777 
 352   0.0000      30.625347       833.3581 
 353   0.0000      30.665786       834.4585 
 354   0.0000      31.392262       854.2269 
 355   0.0000      31.983667       870.3198 
 356   0.0000      33.281630       905.6392 
 357   0.0000      34.103518       928.0039 
 358   0.0000      41.267780      1122.9534 
 359   0.0000      41.524152      1129.9296 
 360   0.0000      41.656478      1133.5304 
 361   0.0000      41.893317      1139.9751 
 362   0.0000      43.362478      1179.9530 
 363   0.0000      66.555826      1811.0761 
 364   0.0000      66.858326      1819.3075 
 365   0.0000      66.879700      1819.8892 
 366   0.0000      67.134685      1826.8277 
 367   0.0000      68.735342      1870.3837 
 368   0.0000      91.018034      2476.7266 
 369   0.0000      91.146528      2480.2231 
 370   0.0000      91.281857      2483.9056 
 371   0.0000      91.313913      2484.7779 
 372   0.0000      91.373819      2486.4080 
 373   0.0000      91.456444      2488.6564 
 374   0.0000      92.010454      2503.7317 
 375   0.0000      93.505150      2544.4045 
 376   0.0000     143.527746      3905.5885 
 377   0.0000     201.674944      5487.8542 

                    ********************************
                    * MULLIKEN POPULATION ANALYSIS *
                    ********************************

--------------------------------------------
MULLIKEN ATOMIC CHARGES AND SPIN POPULATIONS
--------------------------------------------
   0 O :   -0.079828    0.000000
   1 H :    0.186967    0.000000
   2 F :   -0.107139   -0.000000
Sum of atomic charges         :    0.0000000
Sum of atomic spin populations:   -0.0000000

-----------------------------------------------------
MULLIKEN REDUCED ORBITAL CHARGES AND SPIN POPULATIONS
-----------------------------------------------------
CHARGE
  0 O s       :     3.882358  s :     3.882358
      pz      :     0.861445  p :     4.146749
      px      :     1.358178
      py      :     1.927126
      dz2     :     0.013546  d :     0.040061
      dxz     :     0.007979
      dyz     :     0.010859
      dx2y2   :     0.005130
      dxy     :     0.002549
      f0      :     0.001821  f :     0.008869
      f+1     :     0.003472
      f-1     :     0.003119
      f+2     :     0.000019
      f-2     :    -0.000000
      f+3     :     0.000351
      f-3     :     0.000089
      g0      :     0.000254  g :     0.001570
      g+1     :     0.000868
      g-1     :     0.000415
      g+2     :     0.000005
      g-2     :     0.000000
      g+3     :    -0.000002
      g-3     :     0.000002
      g+4     :     0.000023
      g-4     :     0.000004
      h0      :     0.000033  h :     0.000221
      h+1     :     0.000150
      h-1     :     0.000035
      h+2     :    -0.000000
      h-2     :     0.000000
      h+3     :     0.000000
      h-3     :     0.000000
      h+4     :     0.000000
      h-4     :    -0.000000
      h+5     :     0.000002
      h-5     :     0.000000
  1 H s       :     0.716237  s :     0.716237
      pz      :     0.019074  p :     0.082542
      px      :     0.025262
      py      :     0.038206
      dz2     :     0.000229  d :     0.011305
      dxz     :     0.004651
      dyz     :     0.000207
      dx2y2   :     0.001979
      dxy     :     0.004240
      f0      :     0.000561  f :     0.002386
      f+1     :     0.000494
      f-1     :    -0.000686
      f+2     :     0.000940
      f-2     :     0.000489
      f+3     :     0.000167
      f-3     :     0.000421
      g0      :     0.000135  g :     0.000563
      g+1     :     0.000055
      g-1     :    -0.000135
      g+2     :     0.000177
      g-2     :     0.000105
      g+3     :     0.000088
      g-3     :     0.000123
      g+4     :    -0.000000
      g-4     :     0.000016
  2 F s       :     3.938646  s :     3.938646
      pz      :     1.151639  p :     5.127946
      px      :     1.982538
      py      :     1.993768
      dz2     :     0.010843  d :     0.035748
      dxz     :     0.008226
      dyz     :     0.016665
      dx2y2   :    -0.000040
      dxy     :     0.000054
      f0      :     0.002242  f :     0.005065
      f+1     :     0.000714
      f-1     :     0.002281
      f+2     :    -0.000176
      f-2     :    -0.000016
      f+3     :    -0.000017
      f-3     :     0.000037
      g0      :     0.000146  g :    -0.000212
      g+1     :    -0.000245
      g-1     :    -0.000011
      g+2     :    -0.000108
      g-2     :     0.000001
      g+3     :    -0.000019
      g-3     :     0.000026
      g+4     :    -0.000001
      g-4     :    -0.000000
      h0      :    -0.000002  h :    -0.000054
      h+1     :    -0.000033
      h-1     :    -0.000000
      h+2     :    -0.000022
      h-2     :     0.000004
      h+3     :    -0.000008
      h-3     :     0.000009
      h+4     :    -0.000001
      h-4     :    -0.000000
      h+5     :    -0.000000
      h-5     :     0.000000

SPIN
  0 O s       :     0.000000  s :     0.000000
      pz      :     0.000000  p :     0.000000
      px      :     0.000000
      py      :    -0.000000
      dz2     :    -0.000000  d :     0.000000
      dxz     :     0.000000
      dyz     :     0.000000
      dx2y2   :    -0.000000
      dxy     :    -0.000000
      f0      :     0.000000  f :     0.000000
      f+1     :     0.000000
      f-1     :     0.000000
      f+2     :    -0.000000
      f-2     :    -0.000000
      f+3     :    -0.000000
      f-3     :     0.000000
      g0      :     0.000000  g :     0.000000
      g+1     :    -0.000000
      g-1     :     0.000000
      g+2     :     0.000000
      g-2     :    -0.000000
      g+3     :    -0.000000
      g-3     :    -0.000000
      g+4     :    -0.000000
      g-4     :     0.000000
      h0      :     0.000000  h :     0.000000
      h+1     :    -0.000000
      h-1     :     0.000000
      h+2     :    -0.000000
      h-2     :     0.000000
      h+3     :    -0.000000
      h-3     :     0.000000
      h+4     :    -0.000000
      h-4     :    -0.000000
      h+5     :     0.000000
      h-5     :     0.000000
  1 H s       :     0.000000  s :     0.000000
      pz      :    -0.000000  p :     0.000000
      px      :     0.000000
      py      :    -0.000000
      dz2     :     0.000000  d :     0.000000
      dxz     :     0.000000
      dyz     :    -0.000000
      dx2y2   :     0.000000
      dxy     :     0.000000
      f0      :     0.000000  f :     0.000000
      f+1     :     0.000000
      f-1     :    -0.000000
      f+2     :     0.000000
      f-2     :    -0.000000
      f+3     :     0.000000
      f-3     :     0.000000
      g0      :     0.000000  g :     0.000000
      g+1     :     0.000000
      g-1     :    -0.000000
      g+2     :     0.000000
      g-2     :    -0.000000
      g+3     :     0.000000
      g-3     :    -0.000000
      g+4     :     0.000000
      g-4     :     0.000000
  2 F s       :    -0.000000  s :    -0.000000
      pz      :    -0.000000  p :    -0.000000
      px      :    -0.000000
      py      :     0.000000
      dz2     :     0.000000  d :     0.000000
      dxz     :    -0.000000
      dyz     :     0.000000
      dx2y2   :    -0.000000
      dxy     :     0.000000
      f0      :     0.000000  f :     0.000000
      f+1     :    -0.000000
      f-1     :     0.000000
      f+2     :    -0.000000
      f-2     :     0.000000
      f+3     :    -0.000000
      f-3     :     0.000000
      g0      :     0.000000  g :     0.000000
      g+1     :    -0.000000
      g-1     :     0.000000
      g+2     :    -0.000000
      g-2     :     0.000000
      g+3     :    -0.000000
      g-3     :     0.000000
      g+4     :    -0.000000
      g-4     :    -0.000000
      h0      :     0.000000  h :     0.000000
      h+1     :    -0.000000
      h-1     :     0.000000
      h+2     :    -0.000000
      h-2     :     0.000000
      h+3     :    -0.000000
      h-3     :     0.000000
      h+4     :    -0.000000
      h-4     :    -0.000000
      h+5     :    -0.000000
      h-5     :     0.000000


                     *******************************
                     * LOEWDIN POPULATION ANALYSIS *
                     *******************************

-------------------------------------------
LOEWDIN ATOMIC CHARGES AND SPIN POPULATIONS
-------------------------------------------
   0 O :    0.755062   -0.000000
   1 H :   -0.825242   -0.000000
   2 F :    0.070180   -0.000000

----------------------------------------------------
LOEWDIN REDUCED ORBITAL CHARGES AND SPIN POPULATIONS
----------------------------------------------------
CHARGE
  0 O s       :     3.056506  s :     3.056506
      pz      :     0.808279  p :     3.510961
      px      :     1.269479
      py      :     1.433203
      dz2     :     0.167406  d :     0.362690
      dxz     :     0.090897
      dyz     :     0.084112
      dx2y2   :     0.018270
      dxy     :     0.002005
      f0      :     0.078249  f :     0.197673
      f+1     :     0.059772
      f-1     :     0.055379
      f+2     :     0.000619
      f-2     :     0.000079
      f+3     :     0.003080
      f-3     :     0.000495
      g0      :     0.028596  g :     0.077844
      g+1     :     0.024202
      g-1     :     0.024315
      g+2     :     0.000155
      g-2     :     0.000032
      g+3     :     0.000126
      g-3     :     0.000015
      g+4     :     0.000273
      g-4     :     0.000131
      h0      :     0.012779  h :     0.039264
      h+1     :     0.012726
      h-1     :     0.013215
      h+2     :     0.000076
      h-2     :     0.000019
      h+3     :     0.000083
      h-3     :     0.000052
      h+4     :     0.000071
      h-4     :     0.000044
      h+5     :     0.000106
      h-5     :     0.000091
  1 H s       :     0.615723  s :     0.615723
      pz      :     0.105509  p :     0.546487
      px      :     0.280752
      py      :     0.160227
      dz2     :     0.073193  d :     0.432886
      dxz     :     0.104611
      dyz     :     0.017442
      dx2y2   :     0.101937
      dxy     :     0.135702
      f0      :     0.022157  f :     0.163225
      f+1     :     0.035575
      f-1     :     0.012708
      f+2     :     0.023420
      f-2     :     0.011181
      f+3     :     0.015662
      f-3     :     0.042523
      g0      :     0.009276  g :     0.066921
      g+1     :     0.017572
      g-1     :     0.003298
      g+2     :     0.013183
      g-2     :     0.011586
      g+3     :     0.004230
      g-3     :     0.003942
      g+4     :     0.001481
      g-4     :     0.002352
  2 F s       :     3.495465  s :     3.495465
      pz      :     1.209874  p :     4.737693
      px      :     1.757694
      py      :     1.770125
      dz2     :     0.138394  d :     0.327744
      dxz     :     0.092110
      dyz     :     0.095926
      dx2y2   :     0.001111
      dxy     :     0.000203
      f0      :     0.067581  f :     0.208318
      f+1     :     0.072332
      f-1     :     0.066029
      f+2     :     0.002093
      f-2     :     0.000131
      f+3     :     0.000132
      f-3     :     0.000021
      g0      :     0.030039  g :     0.107770
      g+1     :     0.040027
      g-1     :     0.034610
      g+2     :     0.002499
      g-2     :     0.000087
      g+3     :     0.000394
      g-3     :     0.000073
      g+4     :     0.000025
      g-4     :     0.000015
      h0      :     0.012796  h :     0.052830
      h+1     :     0.019005
      h-1     :     0.018479
      h+2     :     0.001715
      h-2     :     0.000005
      h+3     :     0.000562
      h-3     :     0.000084
      h+4     :     0.000116
      h-4     :     0.000062
      h+5     :     0.000004
      h-5     :     0.000002

SPIN
  0 O s       :     0.000000  s :     0.000000
      pz      :    -0.000000  p :    -0.000000
      px      :    -0.000000
      py      :    -0.000000
      dz2     :     0.000000  d :     0.000000
      dxz     :     0.000000
      dyz     :    -0.000000
      dx2y2   :    -0.000000
      dxy     :    -0.000000
      f0      :     0.000000  f :     0.000000
      f+1     :    -0.000000
      f-1     :    -0.000000
      f+2     :     0.000000
      f-2     :     0.000000
      f+3     :    -0.000000
      f-3     :    -0.000000
      g0      :    -0.000000  g :    -0.000000
      g+1     :    -0.000000
      g-1     :     0.000000
      g+2     :    -0.000000
      g-2     :    -0.000000
      g+3     :     0.000000
      g-3     :     0.000000
      g+4     :    -0.000000
      g-4     :    -0.000000
      h0      :     0.000000  h :     0.000000
      h+1     :     0.000000
      h-1     :    -0.000000
      h+2     :    -0.000000
      h-2     :     0.000000
      h+3     :    -0.000000
      h-3     :    -0.000000
      h+4     :     0.000000
      h-4     :    -0.000000
      h+5     :    -0.000000
      h-5     :     0.000000
  1 H s       :     0.000000  s :     0.000000
      pz      :    -0.000000  p :    -0.000000
      px      :    -0.000000
      py      :    -0.000000
      dz2     :     0.000000  d :     0.000000
      dxz     :     0.000000
      dyz     :    -0.000000
      dx2y2   :    -0.000000
      dxy     :     0.000000
      f0      :     0.000000  f :    -0.000000
      f+1     :    -0.000000
      f-1     :    -0.000000
      f+2     :     0.000000
      f-2     :     0.000000
      f+3     :     0.000000
      f-3     :     0.000000
      g0      :    -0.000000  g :    -0.000000
      g+1     :    -0.000000
      g-1     :     0.000000
      g+2     :     0.000000
      g-2     :     0.000000
      g+3     :    -0.000000
      g-3     :    -0.000000
      g+4     :     0.000000
      g-4     :     0.000000
  2 F s       :    -0.000000  s :    -0.000000
      pz      :     0.000000  p :    -0.000000
      px      :    -0.000000
      py      :    -0.000000
      dz2     :     0.000000  d :     0.000000
      dxz     :    -0.000000
      dyz     :     0.000000
      dx2y2   :     0.000000
      dxy     :     0.000000
      f0      :     0.000000  f :     0.000000
      f+1     :     0.000000
      f-1     :     0.000000
      f+2     :     0.000000
      f-2     :    -0.000000
      f+3     :     0.000000
      f-3     :    -0.000000
      g0      :     0.000000  g :     0.000000
      g+1     :     0.000000
      g-1     :     0.000000
      g+2     :     0.000000
      g-2     :    -0.000000
      g+3     :     0.000000
      g-3     :    -0.000000
      g+4     :     0.000000
      g-4     :    -0.000000
      h0      :    -0.000000  h :    -0.000000
      h+1     :    -0.000000
      h-1     :    -0.000000
      h+2     :    -0.000000
      h-2     :    -0.000000
      h+3     :     0.000000
      h-3     :     0.000000
      h+4     :    -0.000000
      h-4     :    -0.000000
      h+5     :     0.000000
      h-5     :     0.000000


                      *****************************
                      * MAYER POPULATION ANALYSIS *
                      *****************************

  NA   - Mulliken gross atomic population
  ZA   - Total nuclear charge
  QA   - Mulliken gross atomic charge
  VA   - Mayer's total valence
  BVA  - Mayer's bonded valence
  FA   - Mayer's free valence

  ATOM       NA         ZA         QA         VA         BVA        FA
  0 O      8.0798     8.0000    -0.0798     1.9316     1.9316    -0.0000
  1 H      0.8130     1.0000     0.1870     1.0447     1.0447    -0.0000
  2 F      9.1071     9.0000    -0.1071     0.9638     0.9638     0.0000

  Mayer bond orders larger than 0.1
B(  0-O ,  1-H ) :   1.0063 B(  0-O ,  2-F ) :   0.9253 

-------
TIMINGS
-------

Total SCF time: 0 days 0 hours 11 min 3 sec 

Total time                  ....     663.707 sec
Sum of individual times     ....     662.817 sec  ( 99.9%)

Fock matrix formation       ....     659.566 sec  ( 99.4%)
  XC integration            ....      12.894 sec  (  2.0% of F)
    Basis function eval.    ....       0.854 sec  (  6.6% of XC)
    Density eval.           ....       2.729 sec  ( 21.2% of XC)
    XC-Functional eval.     ....       0.166 sec  (  1.3% of XC)
    XC-Potential eval.      ....       8.332 sec  ( 64.6% of XC)
Diagonalization             ....       1.290 sec  (  0.2%)
Density matrix formation    ....       0.021 sec  (  0.0%)
Population analysis         ....       0.128 sec  (  0.0%)
Initial guess               ....       0.707 sec  (  0.1%)
Orbital Transformation      ....       0.000 sec  (  0.0%)
Orbital Orthonormalization  ....       0.000 sec  (  0.0%)
DIIS solution               ....       0.761 sec  (  0.1%)
Grid generation             ....       0.344 sec  (  0.1%)

-------------------------   --------------------
FINAL SINGLE POINT ENERGY      -175.465912304324
-------------------------   --------------------


                            ***************************************
                            *     ORCA property calculations      *
                            ***************************************

                                    ---------------------
                                    Active property flags
                                    ---------------------
   (+) Dipole Moment
   (+) Polarizability


------------------------------------------------------------------------------
                       ORCA ELECTRIC PROPERTIES CALCULATION
------------------------------------------------------------------------------

Dipole Moment Calculation                       ... on
Quadrupole Moment Calculation                   ... off
Polarizability Calculation                      ... Analytic (CP-SCF)
GBWName                                         ... hof_pbe.gbw
Electron density file                           ... hof_pbe.scfp.tmp
The origin for moment calculation is the CENTER OF MASS  = ( 0.049580,  0.000000 -0.081640)

-------------
DIPOLE MOMENT
-------------
                                X             Y             Z
Electronic contribution:      0.25580      -0.00000      -1.14224
Nuclear contribution   :     -0.89281       0.00000       1.46895
                        -----------------------------------------
Total Dipole Moment    :     -0.63701      -0.00000       0.32671
                        -----------------------------------------
Magnitude (a.u.)       :      0.71591
Magnitude (Debye)      :      1.81969



--------------------
Rotational spectrum 
--------------------
 
Rotational constants in cm-1:    19.849065     0.892043     0.853678 
Rotational constants in MHz : 595059.996219 26742.790363 25592.623700 

 Dipole components along the rotational axes: 
x,y,z [a.u.] :    -0.356129    -0.621045     0.000000 
x,y,z [Debye]:    -0.905208    -1.578571     0.000000 

 
Transforming and storing MO dipole integrals   ... done

                ... starting polarizability calculation

Opening the Dipole integral file               ... (hof_pbe.dmo.tmp) done
Reading Dipole-MO integrals                    ... done
Solving CP-SCF equations                       ... 

           ************************************************************
           *        Program running with 4 parallel MPI-processes     *
           *              working on a common directory               *
           ************************************************************

------------------------------------------------------------------------------
                           ORCA CP-SCF CALCULATION
------------------------------------------------------------------------------

Input orbitals are from        ... hof_pbe.gbw
Input Perturbation             ... hof_pbe.cpv.tmp
Wavefunction output            ... hof_pbe.cpu.tmp
Perturbation mode              ... Real perturbation (singlet)
Solver                         ... POPLE
Max. number of iterations      ... 200
Convergence tolerance          ... 1.000e-06
Integral handling              ... Direct
Number of perturbations        ... 3
Number of operators            ... 2
Orbital ranges used for CP-SCF:
 Operator 0:  Orbitals   0...  8  to   9...377
 Operator 1:  Orbitals   0...  8  to   9...377
DFT calculation                         ... on
Exchange functional (SCF)               ... PBE
Exchange functional (CP-SCF)            ... PBE
   PBE kappa parameter  XKappa (SCF)    ...  0.804000
   PBE kappa parameter  XKappa (CP-SCF) ...  0.804000
   PBE mue parameter   XMuePBE (SCF)    ...  0.219520
   PBE mue parameter   XMuePBE (CP-SCF) ...  0.219520
Correlation functional (SCF)            ... PBE
Correlation functional (CP-SCF)         ... PBE
   PBE beta parameter CBetaPBE (SCF)    ...  0.066725
   PBE beta parameter CBetaPBE (CP-SCF) ...  0.066725
 LDA part of GGA corr.  LDAOpt (SCF)    ... PW91-LDA
 LDA part of GGA corr.  LDAOpt (CP-SCF) ... PW91-LDA
Variables per vector in CP-SCF ... 6642
Number of vectors sought       ... 3
Recalculating density on grid  ... done
Calculating the xc-kernel      ... done
     CP-SCF ITERATION   0: 
     CP-SCF ITERATION   1:      0.319374539749
     CP-SCF ITERATION   2:      0.021916617409
     CP-SCF ITERATION   3:      0.000845056202
     CP-SCF ITERATION   4:      0.000018016821
     CP-SCF ITERATION   5:      0.000000277181
done
Reading CP-SCF coefficients                    ... done
Doing the polarizability tensor   ... done
Cleaning up                                    ... done

-------------------------
THE POLARIZABILITY TENSOR
-------------------------

The raw cartesian tensor (atomic units):
   11.12511      0.00000     -0.78047  
    0.00000     10.12917     -0.00000  
   -0.78047     -0.00000     15.77381  
diagonalized tensor: 
   10.12917     10.99758     15.90135  

   -0.00000      0.98691     -0.16127  
   -1.00000     -0.00000     -0.00000  
   -0.00000      0.16127      0.98691  

Isotropic polarizability :  12.34270


Timings for individual modules:

Sum of individual times         ...     1154.670 sec (=  19.245 min)
GTO integral calculation        ...        3.249 sec (=   0.054 min)   0.3 %
SCF iterations                  ...      664.028 sec (=  11.067 min)  57.5 %
Solution of CP-SCF eqns.        ...      487.394 sec (=   8.123 min)  42.2 %
                             ****ORCA TERMINATED NORMALLY****
TOTAL RUN TIME: 0 days 0 hours 19 minutes 15 seconds 595 msec
