
                                 *****************
                                 * O   R   C   A *
                                 *****************

           --- An Ab Initio, DFT and Semiempirical electronic structure package ---

                  #######################################################
                  #                        -***-                        #
                  #          Department of theory and spectroscopy      #
                  #               Directorship: Frank Neese             #
                  #        Max Planck Institute fuer Kohlenforschung    #
                  #                Kaiser Wilhelm Platz 1               #
                  #                 D-45470 Muelheim/Ruhr               #
                  #                      Germany                        #
                  #                                                     #
                  #                  All rights reserved                #
                  #                        -***-                        #
                  #######################################################


                         Program Version 4.1.2  - RELEASE  -


 With contributions from (in alphabetic order):
   Daniel Aravena         : Magnetic Properties
   Michael Atanasov       : Ab Initio Ligand Field Theory
   Alexander A. Auer      : GIAO ZORA
   Ute Becker             : Parallelization
   Giovanni Bistoni       : ED, Open-shell LED
   Martin Brehm           : Molecular dynamics
   Dmytro Bykov           : SCF Hessian
   Vijay G. Chilkuri      : MRCI spin determinant printing
   Dipayan Datta          : RHF DLPNO-CCSD density
   Achintya Kumar Dutta   : EOM-CC, STEOM-CC
   Dmitry Ganyushin       : Spin-Orbit,Spin-Spin,Magnetic field MRCI
   Miquel Garcia          : C-PCM Hessian
   Yang Guo               : DLPNO-NEVPT2, CIM, IAO-localization
   Andreas Hansen         : Spin unrestricted coupled pair/coupled cluster methods
   Benjamin Helmich-Paris : CASSCF linear response (MC-RPA)
   Lee Huntington         : MR-EOM, pCC
   Robert Izsak           : Overlap fitted RIJCOSX, COSX-SCS-MP3, EOM
   Christian Kollmar      : KDIIS, OOCD, Brueckner-CCSD(T), CCSD density
   Simone Kossmann        : Meta GGA functionals, TD-DFT gradient, OOMP2, MP2 Hessian
   Martin Krupicka        : AUTO-CI
   Lucas Lang             : DCDCAS
   Dagmar Lenk            : GEPOL surface, SMD
   Dimitrios Liakos       : Extrapolation schemes; parallel MDCI
   Dimitrios Manganas     : ROCIS; embedding schemes
   Dimitrios Pantazis     : SARC Basis sets
   Taras Petrenko         : DFT Hessian,TD-DFT gradient, ASA, ECA, R-Raman, ABS, FL, XAS/XES, NRVS
   Peter Pinski           : DLPNO-MP2, DLPNO-MP2 Gradient
   Christoph Reimann      : Effective Core Potentials
   Marius Retegan         : Local ZFS, SOC
   Christoph Riplinger    : Optimizer, TS searches, QM/MM, DLPNO-CCSD(T), (RO)-DLPNO pert. Triples
   Tobias Risthaus        : Range-separated hybrids, TD-DFT gradient, RPA, STAB
   Michael Roemelt        : Restricted open shell CIS
   Masaaki Saitow         : Open-shell DLPNO
   Barbara Sandhoefer     : DKH picture change effects
   Avijit Sen             : IP-ROCIS
   Kantharuban Sivalingam : CASSCF convergence, NEVPT2, FIC-MRCI
   Bernardo de Souza      : ESD, SOC TD-DFT
   Georgi Stoychev        : AutoAux, RI-MP2 NMR
   Willem Van den Heuvel  : Paramagnetic NMR
   Boris Wezisla          : Elementary symmetry handling
   Frank Wennmohs         : Technical directorship


 We gratefully acknowledge several colleagues who have allowed us to
 interface, adapt or use parts of their codes:
   Stefan Grimme, W. Hujo, H. Kruse,             : VdW corrections, initial TS optimization,
                  C. Bannwarth                     DFT functionals, gCP, sTDA/sTD-DF
   Ed Valeev                                     : LibInt (2-el integral package), F12 methods
   Garnet Chan, S. Sharma, J. Yang, R. Olivares  : DMRG
   Ulf Ekstrom                                   : XCFun DFT Library
   Mihaly Kallay                                 : mrcc  (arbitrary order and MRCC methods)
   Andreas Klamt, Michael Diedenhofen            : otool_cosmo (COSMO solvation model)
   Jiri Pittner, Ondrej Demel                    : Mk-CCSD
   Frank Weinhold                                : gennbo (NPA and NBO analysis)
   Christopher J. Cramer and Donald G. Truhlar   : smd solvation model
   Lars Goerigk                                  : TD-DFT with DH, B97 family of functionals
   V. Asgeirsson, H. Jonsson                     : NEB implementation
   FAccTs GmbH                                   : IRC, NEB, NEB-TS, Multilevel


 Your calculation uses the libint2 library for the computation of 2-el integrals
 For citations please refer to: http://libint.valeyev.net

 This ORCA versions uses:
   CBLAS   interface :  Fast vector & matrix operations
   LAPACKE interface :  Fast linear algebra routines
   SCALAPACK package :  Parallel linear algebra routines


----- Orbital basis set information -----
Your calculation utilizes the basis: aug-pc-4
   H, C-F              : F. Jensen, J. Chem. Phys. 115, 9113 (2001).
                         F. Jensen, J. Chem. Phys. 116, 7372 (2002).
                         F. Jensen, J. Chem. Phys. 117, 9234 (2002).
   Si-Cl               : F. Jensen, T. Helgaker, J. Chem. Phys. 121, 3463 (2004).
   He-B, Ne-Mg, Al, Ar : F. Jensen, J. Phys. Chem. A 111, 11198 (2007).
   K, Ca, Ga-Kr        : F. Jensen, J. Chem. Phys. 136, 094110 (2012).
   Sc-Zn               : F. Jensen, J. Chem. Phys. 138, 014107 (2013).

================================================================================
                                        WARNINGS
                       Please study these warnings very carefully!
================================================================================


INFO   : the flag for use of LIBINT has been found!

================================================================================
                                       INPUT FILE
================================================================================
NAME = licn_pbe.inp
|  1> !uks pbe nori aug-pc-4 grid5 nofinalgrid verytightscf
|  2> 
|  3> %maxcore 1500
|  4> 
|  5> %pal nprocs 4 end
|  6> 
|  7> %scf
|  8> 	maxiter 200
|  9> end
| 10> %elprop
| 11> 	dipole true
| 12> 	 polar 1
| 13> 	 maxiter 200
| 14> end
| 15> 
| 16> * xyz 0 1
| 17> Li 1.4157454937 -0.6164252897 0.0000000000
| 18> C -0.6780148225 -0.3855159545 0.0000000000
| 19> N -0.0211306712 0.6069412443 0.0000000000
| 20> *
| 21> 
| 22>                          ****END OF INPUT****
================================================================================

                       ****************************
                       * Single Point Calculation *
                       ****************************

---------------------------------
CARTESIAN COORDINATES (ANGSTROEM)
---------------------------------
  Li     1.415745   -0.616425    0.000000
  C     -0.678015   -0.385516    0.000000
  N     -0.021131    0.606941    0.000000

----------------------------
CARTESIAN COORDINATES (A.U.)
----------------------------
  NO LB      ZA    FRAG     MASS         X           Y           Z
   0 Li    3.0000    0     6.941    2.675371   -1.164875    0.000000
   1 C     6.0000    0    12.011   -1.281262   -0.728520    0.000000
   2 N     7.0000    0    14.007   -0.039931    1.146953    0.000000

--------------------------------
INTERNAL COORDINATES (ANGSTROEM)
--------------------------------
 Li     0   0   0     0.000000000000     0.00000000     0.00000000
 C      1   0   0     2.106454695164     0.00000000     0.00000000
 N      2   1   0     1.190154645279    62.79376329     0.00000000

---------------------------
INTERNAL COORDINATES (A.U.)
---------------------------
 Li     0   0   0     0.000000000000     0.00000000     0.00000000
 C      1   0   0     3.980622487372     0.00000000     0.00000000
 N      2   1   0     2.249066336591    62.79376329     0.00000000

---------------------
BASIS SET INFORMATION
---------------------
There are 3 groups of distinct atoms

 Group   1 Type Li  : 31s9p4d3f2g contracted to 9s5p4d3f2g pattern {12121111111/51111/1111/111/11}
 Group   2 Type C   : 28s12p7d4f3g2h contracted to 9s8p7d4f3g2h pattern {11101111111/51111111/1111111/1111/111/11}
 Group   3 Type N   : 27s12p7d4f3g2h contracted to 9s8p7d4f3g2h pattern {1191111111/51111111/1111111/1111/111/11}

Atom   0Li   basis set group =>   1
Atom   1C    basis set group =>   2
Atom   2N    basis set group =>   3


           ************************************************************
           *        Program running with 4 parallel MPI-processes     *
           *              working on a common directory               *
           ************************************************************
------------------------------------------------------------------------------
                           ORCA GTO INTEGRAL CALCULATION
------------------------------------------------------------------------------

                         BASIS SET STATISTICS AND STARTUP INFO

 # of primitive gaussian shells          ...  160
 # of primitive gaussian functions       ...  468
 # of contracted shells                  ...   89
 # of contracted basis functions         ...  373
 Highest angular momentum                ...    5
 Maximum contraction depth               ...   12
 Integral package used                   ... LIBINT
 Integral threshhold            Thresh   ...  1.000e-12
 Primitive cut-off              TCut     ...  1.000e-14


------------------------------ INTEGRAL EVALUATION ----------------------------


 * One electron integrals 
 Pre-screening matrix                    ... done
 Shell pair data                         ... done (   0.002 sec)



           ************************************************************
           *        Program running with 4 parallel MPI-processes     *
           *              working on a common directory               *
           ************************************************************
-------------------------------------------------------------------------------
                                 ORCA SCF
-------------------------------------------------------------------------------

------------
SCF SETTINGS
------------
Hamiltonian:
 Density Functional     Method          .... DFT(GTOs)
 Exchange Functional    Exchange        .... PBE
   PBE kappa parameter   XKappa         ....  0.804000
   PBE mue parameter    XMuePBE         ....  0.219520
 Correlation Functional Correlation     .... PBE
   PBE beta parameter  CBetaPBE         ....  0.066725
 LDA part of GGA corr.  LDAOpt          .... PW91-LDA
 Gradients option       PostSCFGGA      .... off
   Density functional embedding theory  .... OFF
   NL short-range parameter             ....  6.400000


General Settings:
 Integral files         IntName         .... licn_pbe
 Hartree-Fock type      HFTyp           .... UHF
 Total Charge           Charge          ....    0
 Multiplicity           Mult            ....    1
 Number of Electrons    NEL             ....   16
 Basis Dimension        Dim             ....  373
 Nuclear Repulsion      ENuc            ....     29.0850277302 Eh

Convergence Acceleration:
 DIIS                   CNVDIIS         .... on
   Start iteration      DIISMaxIt       ....    12
   Startup error        DIISStart       ....  0.200000
   # of expansion vecs  DIISMaxEq       ....     5
   Bias factor          DIISBfac        ....   1.050
   Max. coefficient     DIISMaxC        ....  10.000
 Newton-Raphson         CNVNR           .... off
 SOSCF                  CNVSOSCF        .... off
 Level Shifting         CNVShift        .... on
   Level shift para.    LevelShift      ....    0.2500
   Turn off err/grad.   ShiftErr        ....    0.0010
 Zerner damping         CNVZerner       .... off
 Static damping         CNVDamp         .... on
   Fraction old density DampFac         ....    0.7000
   Max. Damping (<1)    DampMax         ....    0.9800
   Min. Damping (>=0)   DampMin         ....    0.0000
   Turn off err/grad.   DampErr         ....    0.1000
 Fernandez-Rico         CNVRico         .... off

SCF Procedure:
 Maximum # iterations   MaxIter         ....   200
 SCF integral mode      SCFMode         .... Direct
   Integral package                     .... LIBINT
 Reset frequency        DirectResetFreq ....    20
 Integral Threshold     Thresh          ....  1.000e-12 Eh
 Primitive CutOff       TCut            ....  1.000e-14 Eh

Convergence Tolerance:
 Convergence Check Mode ConvCheckMode   .... Total+1el-Energy
 Convergence forced     ConvForced      .... 0
 Energy Change          TolE            ....  1.000e-09 Eh
 1-El. energy change                    ....  1.000e-06 Eh
 DIIS Error             TolErr          ....  1.000e-08


Diagonalization of the overlap matrix:
Smallest eigenvalue                        ... 8.815e-07
Time for diagonalization                   ...    0.030 sec
Threshold for overlap eigenvalues          ... 1.000e-08
Number of eigenvalues below threshold      ... 0
Time for construction of square roots      ...    0.019 sec
Total time needed                          ...    0.050 sec

-------------------
DFT GRID GENERATION
-------------------

General Integration Accuracy     IntAcc      ...  5.010
Radial Grid Type                 RadialGrid  ... Gauss-Chebyshev
Angular Grid (max. acc.)         AngularGrid ... Lebedev-434
Angular grid pruning method      GridPruning ... 3 (G Style)
Weight generation scheme         WeightScheme... Becke
Basis function cutoff            BFCut       ...    1.0000e-12
Integration weight cutoff        WCut        ...    1.0000e-14
Grids for H and He will be reduced by one unit

# of grid points (after initial pruning)     ...  31650 (   0.0 sec)
# of grid points (after weights+screening)   ...  31407 (   0.0 sec)
nearest neighbour list constructed           ...    0.0 sec
Grid point re-assignment to atoms done       ...    0.0 sec
Grid point division into batches done        ...    0.3 sec
Reduced shell lists constructed in    0.4 sec

Total number of grid points                  ...    31407
Total number of batches                      ...      493
Average number of points per batch           ...       63
Average number of grid points per atom       ...    10469
Average number of shells per batch           ...    54.05 (60.73%)
Average number of basis functions per batch  ...   225.47 (60.45%)
Average number of large shells per batch     ...    46.73 (86.46%)
Average number of large basis fcns per batch ...   194.68 (86.34%)
Maximum spatial batch extension              ...  30.30, 32.58, 32.58 au
Average spatial batch extension              ...   1.55,  1.67,  1.66 au

Time for grid setup =    0.413 sec

------------------------------
INITIAL GUESS: MODEL POTENTIAL
------------------------------
Loading Hartree-Fock densities                     ... done
Calculating cut-offs                               ... done
Setting up the integral package                    ... done
Initializing the effective Hamiltonian             ... done
Starting the Coulomb interaction                   ... done (   0.0 sec)
Reading the grid                                   ... done
Mapping shells                                     ... done
Starting the XC term evaluation                    ... done (   0.7 sec)
  promolecular density results
     # of electrons  =     15.999997333
     EX              =    -13.283770326
     EC              =     -0.463352887
     EX+EC           =    -13.747123213
Transforming the Hamiltonian                       ... done (   0.0 sec)
Diagonalizing the Hamiltonian                      ... done (   0.0 sec)
Back transforming the eigenvectors                 ... done (   0.0 sec)
Now organizing SCF variables                       ... done
                      ------------------
                      INITIAL GUESS DONE (   1.3 sec)
                      ------------------
--------------
SCF ITERATIONS
--------------
ITER       Energy         Delta-E        Max-DP      RMS-DP      [F,P]     Damp
               ***  Starting incremental Fock matrix formation  ***
  0   -100.1660051928   0.000000000000 0.02002289  0.00021187  0.2748811 0.7000
  1   -100.2275690295  -0.061563836719 0.02107214  0.00016538  0.0926925 0.7000
                               ***Turning on DIIS***
  2   -100.2440156371  -0.016446607570 0.03195160  0.00029211  0.0421228 0.0000
  3   -100.2762917262  -0.032276089188 0.01666151  0.00011773  0.0445134 0.0000
  4   -100.2823484596  -0.006056733379 0.00475509  0.00003938  0.0407475 0.0000
  5   -100.2846274031  -0.002278943475 0.00263407  0.00002176  0.0116999 0.0000
  6   -100.2848289298  -0.000201526677 0.00171363  0.00001129  0.0026364 0.0000
  7   -100.2848439206  -0.000014990821 0.00126321  0.00000857  0.0007271 0.0000
  8   -100.2848471302  -0.000003209615 0.00019774  0.00000146  0.0001756 0.0000
  9   -100.2848471921  -0.000000061842 0.00002230  0.00000031  0.0001340 0.0000
 10   -100.2848472202  -0.000000028181 0.00000645  0.00000006  0.0000206 0.0000
 11   -100.2848472212  -0.000000000984 0.00000267  0.00000003  0.0000044 0.0000
 12   -100.2848472213  -0.000000000102 0.00000297  0.00000003  0.0000011 0.0000
                 **** Energy Check signals convergence ****

               *****************************************************
               *                     SUCCESS                       *
               *           SCF CONVERGED AFTER  13 CYCLES          *
               *****************************************************


----------------
TOTAL SCF ENERGY
----------------

Total Energy       :         -100.28484722 Eh           -2728.88943 eV

Components:
Nuclear Repulsion  :           29.08502773 Eh             791.44384 eV
Electronic Energy  :         -129.36987495 Eh           -3520.33327 eV
One Electron Energy:         -193.47961262 Eh           -5264.84792 eV
Two Electron Energy:           64.10973767 Eh            1744.51465 eV

Virial components:
Potential Energy   :         -200.12489210 Eh           -5445.67517 eV
Kinetic Energy     :           99.84004488 Eh            2716.78574 eV
Virial Ratio       :            2.00445515


DFT components:
N(Alpha)           :        7.999997413529 electrons
N(Beta)            :        7.999997413529 electrons
N(Total)           :       15.999994827058 electrons
E(X)               :      -13.532596129991 Eh       
E(C)               :       -0.482158026875 Eh       
E(XC)              :      -14.014754156866 Eh       
DFET-embed. en.    :        0.000000000000 Eh       

---------------
SCF CONVERGENCE
---------------

  Last Energy change         ...   -1.5916e-12  Tolerance :   1.0000e-09
  Last MAX-Density change    ...    1.4853e-06  Tolerance :   1.0000e-08
  Last RMS-Density change    ...    2.0357e-08  Tolerance :   1.0000e-09
  Last DIIS Error            ...    3.8501e-07  Tolerance :   1.0000e-08

             **** THE GBW FILE WAS UPDATED (licn_pbe.gbw) ****
             **** DENSITY FILE WAS UPDATED (licn_pbe.scfp.tmp) ****
             **** ENERGY FILE WAS UPDATED (licn_pbe.en.tmp) ****
----------------------
UHF SPIN CONTAMINATION
----------------------

Warning: in a DFT calculation there is little theoretical justification to 
         calculate <S**2> as in Hartree-Fock theory. We will do it anyways
         but you should keep in mind that the values have only limited relevance

Expectation value of <S**2>     :    -0.000000
Ideal value S*(S+1) for S=0.0   :     0.000000
Deviation                       :    -0.000000

----------------
ORBITAL ENERGIES
----------------
                 SPIN UP ORBITALS
  NO   OCC          E(Eh)            E(eV) 
   0   1.0000     -13.939663      -379.3175 
   1   1.0000      -9.860839      -268.3271 
   2   1.0000      -1.912408       -52.0393 
   3   1.0000      -0.778493       -21.1839 
   4   1.0000      -0.342771        -9.3273 
   5   1.0000      -0.288347        -7.8463 
   6   1.0000      -0.269416        -7.3312 
   7   1.0000      -0.216231        -5.8839 
   8   0.0000      -0.066774        -1.8170 
   9   0.0000      -0.028317        -0.7706 
  10   0.0000      -0.009881        -0.2689 
  11   0.0000       0.003100         0.0844 
  12   0.0000       0.008931         0.2430 
  13   0.0000       0.011529         0.3137 
  14   0.0000       0.018378         0.5001 
  15   0.0000       0.019332         0.5260 
  16   0.0000       0.029700         0.8082 
  17   0.0000       0.032894         0.8951 
  18   0.0000       0.037413         1.0181 
  19   0.0000       0.040032         1.0893 
  20   0.0000       0.041976         1.1422 
  21   0.0000       0.042772         1.1639 
  22   0.0000       0.046933         1.2771 
  23   0.0000       0.053916         1.4671 
  24   0.0000       0.065173         1.7734 
  25   0.0000       0.067902         1.8477 
  26   0.0000       0.072072         1.9612 
  27   0.0000       0.075350         2.0504 
  28   0.0000       0.079705         2.1689 
  29   0.0000       0.083444         2.2706 
  30   0.0000       0.088257         2.4016 
  31   0.0000       0.095351         2.5946 
  32   0.0000       0.098020         2.6673 
  33   0.0000       0.098256         2.6737 
  34   0.0000       0.105649         2.8749 
  35   0.0000       0.106711         2.9037 
  36   0.0000       0.114241         3.1086 
  37   0.0000       0.115820         3.1516 
  38   0.0000       0.127155         3.4601 
  39   0.0000       0.134818         3.6686 
  40   0.0000       0.135940         3.6991 
  41   0.0000       0.140255         3.8165 
  42   0.0000       0.140443         3.8217 
  43   0.0000       0.151275         4.1164 
  44   0.0000       0.158291         4.3073 
  45   0.0000       0.159054         4.3281 
  46   0.0000       0.160211         4.3595 
  47   0.0000       0.161265         4.3882 
  48   0.0000       0.163510         4.4493 
  49   0.0000       0.164340         4.4719 
  50   0.0000       0.169414         4.6100 
  51   0.0000       0.170966         4.6522 
  52   0.0000       0.176670         4.8074 
  53   0.0000       0.179246         4.8775 
  54   0.0000       0.184713         5.0263 
  55   0.0000       0.194130         5.2825 
  56   0.0000       0.201082         5.4717 
  57   0.0000       0.206035         5.6065 
  58   0.0000       0.209223         5.6933 
  59   0.0000       0.216801         5.8995 
  60   0.0000       0.229282         6.2391 
  61   0.0000       0.238406         6.4874 
  62   0.0000       0.256629         6.9832 
  63   0.0000       0.265773         7.2321 
  64   0.0000       0.267789         7.2869 
  65   0.0000       0.270593         7.3632 
  66   0.0000       0.272253         7.4084 
  67   0.0000       0.281462         7.6590 
  68   0.0000       0.281970         7.6728 
  69   0.0000       0.290187         7.8964 
  70   0.0000       0.296564         8.0699 
  71   0.0000       0.304816         8.2945 
  72   0.0000       0.309382         8.4187 
  73   0.0000       0.321187         8.7399 
  74   0.0000       0.327933         8.9235 
  75   0.0000       0.333672         9.0797 
  76   0.0000       0.338897         9.2219 
  77   0.0000       0.342453         9.3186 
  78   0.0000       0.356262         9.6944 
  79   0.0000       0.372199        10.1281 
  80   0.0000       0.378226        10.2921 
  81   0.0000       0.382650        10.4124 
  82   0.0000       0.386912        10.5284 
  83   0.0000       0.399189        10.8625 
  84   0.0000       0.399289        10.8652 
  85   0.0000       0.409653        11.1472 
  86   0.0000       0.420156        11.4330 
  87   0.0000       0.424507        11.5514 
  88   0.0000       0.430592        11.7170 
  89   0.0000       0.436130        11.8677 
  90   0.0000       0.447539        12.1782 
  91   0.0000       0.461730        12.5643 
  92   0.0000       0.473487        12.8842 
  93   0.0000       0.474617        12.9150 
  94   0.0000       0.490545        13.3484 
  95   0.0000       0.497670        13.5423 
  96   0.0000       0.506535        13.7835 
  97   0.0000       0.522261        14.2114 
  98   0.0000       0.534989        14.5578 
  99   0.0000       0.535499        14.5717 
 100   0.0000       0.538679        14.6582 
 101   0.0000       0.557010        15.1570 
 102   0.0000       0.564905        15.3718 
 103   0.0000       0.575451        15.6588 
 104   0.0000       0.575957        15.6726 
 105   0.0000       0.579829        15.7780 
 106   0.0000       0.592229        16.1154 
 107   0.0000       0.593098        16.1390 
 108   0.0000       0.612431        16.6651 
 109   0.0000       0.617329        16.7984 
 110   0.0000       0.626124        17.0377 
 111   0.0000       0.629401        17.1269 
 112   0.0000       0.634169        17.2566 
 113   0.0000       0.644734        17.5441 
 114   0.0000       0.652018        17.7423 
 115   0.0000       0.659918        17.9573 
 116   0.0000       0.666552        18.1378 
 117   0.0000       0.670888        18.2558 
 118   0.0000       0.677287        18.4299 
 119   0.0000       0.683918        18.6103 
 120   0.0000       0.684480        18.6256 
 121   0.0000       0.690482        18.7890 
 122   0.0000       0.690689        18.7946 
 123   0.0000       0.708552        19.2807 
 124   0.0000       0.735304        20.0086 
 125   0.0000       0.735917        20.0253 
 126   0.0000       0.760978        20.7073 
 127   0.0000       0.777616        21.1600 
 128   0.0000       0.790636        21.5143 
 129   0.0000       0.794409        21.6170 
 130   0.0000       0.795608        21.6496 
 131   0.0000       0.822685        22.3864 
 132   0.0000       0.835258        22.7285 
 133   0.0000       0.838303        22.8114 
 134   0.0000       0.842494        22.9254 
 135   0.0000       0.858199        23.3528 
 136   0.0000       0.874997        23.8099 
 137   0.0000       0.901441        24.5295 
 138   0.0000       0.908797        24.7296 
 139   0.0000       0.915958        24.9245 
 140   0.0000       0.924709        25.1626 
 141   0.0000       0.938106        25.5272 
 142   0.0000       0.944952        25.7134 
 143   0.0000       0.957411        26.0525 
 144   0.0000       0.966091        26.2887 
 145   0.0000       0.978039        26.6138 
 146   0.0000       0.997334        27.1388 
 147   0.0000       1.000016        27.2118 
 148   0.0000       1.012650        27.5556 
 149   0.0000       1.033339        28.1186 
 150   0.0000       1.036181        28.1959 
 151   0.0000       1.052435        28.6382 
 152   0.0000       1.056915        28.7601 
 153   0.0000       1.061148        28.8753 
 154   0.0000       1.092150        29.7189 
 155   0.0000       1.094315        29.7778 
 156   0.0000       1.095722        29.8161 
 157   0.0000       1.110512        30.2186 
 158   0.0000       1.132791        30.8248 
 159   0.0000       1.160034        31.5661 
 160   0.0000       1.163497        31.6604 
 161   0.0000       1.191441        32.4208 
 162   0.0000       1.199474        32.6393 
 163   0.0000       1.210728        32.9456 
 164   0.0000       1.244558        33.8661 
 165   0.0000       1.255064        34.1520 
 166   0.0000       1.260534        34.3009 
 167   0.0000       1.300615        35.3915 
 168   0.0000       1.339771        36.4570 
 169   0.0000       1.354921        36.8693 
 170   0.0000       1.406268        38.2665 
 171   0.0000       1.471769        40.0489 
 172   0.0000       1.485068        40.4107 
 173   0.0000       1.526268        41.5319 
 174   0.0000       1.570987        42.7487 
 175   0.0000       1.578685        42.9582 
 176   0.0000       1.615757        43.9670 
 177   0.0000       1.620063        44.0842 
 178   0.0000       1.655019        45.0353 
 179   0.0000       1.696874        46.1743 
 180   0.0000       1.755177        47.7608 
 181   0.0000       1.786236        48.6060 
 182   0.0000       1.804755        49.1099 
 183   0.0000       1.837411        49.9985 
 184   0.0000       1.867037        50.8047 
 185   0.0000       1.960506        53.3481 
 186   0.0000       1.996552        54.3289 
 187   0.0000       2.064511        56.1782 
 188   0.0000       2.090185        56.8768 
 189   0.0000       2.101845        57.1941 
 190   0.0000       2.122436        57.7544 
 191   0.0000       2.170706        59.0679 
 192   0.0000       2.192651        59.6651 
 193   0.0000       2.193543        59.6893 
 194   0.0000       2.220057        60.4108 
 195   0.0000       2.221947        60.4623 
 196   0.0000       2.276516        61.9472 
 197   0.0000       2.306137        62.7532 
 198   0.0000       2.345797        63.8324 
 199   0.0000       2.410136        65.5831 
 200   0.0000       2.459693        66.9316 
 201   0.0000       2.474857        67.3443 
 202   0.0000       2.493348        67.8475 
 203   0.0000       2.546650        69.2979 
 204   0.0000       2.555860        69.5485 
 205   0.0000       2.611964        71.0751 
 206   0.0000       2.613998        71.1305 
 207   0.0000       2.685424        73.0741 
 208   0.0000       2.699545        73.4584 
 209   0.0000       2.739580        74.5478 
 210   0.0000       2.748777        74.7980 
 211   0.0000       2.753134        74.9166 
 212   0.0000       2.829503        76.9947 
 213   0.0000       2.886185        78.5371 
 214   0.0000       2.916203        79.3539 
 215   0.0000       3.001118        81.6646 
 216   0.0000       3.036341        82.6230 
 217   0.0000       3.067808        83.4793 
 218   0.0000       3.072994        83.6204 
 219   0.0000       3.077681        83.7480 
 220   0.0000       3.118306        84.8534 
 221   0.0000       3.180695        86.5511 
 222   0.0000       3.199619        87.0660 
 223   0.0000       3.248147        88.3866 
 224   0.0000       3.323526        90.4377 
 225   0.0000       3.348906        91.1284 
 226   0.0000       3.448821        93.8472 
 227   0.0000       3.469196        94.4016 
 228   0.0000       3.544775        96.4582 
 229   0.0000       3.789230       103.1102 
 230   0.0000       3.855379       104.9102 
 231   0.0000       4.055247       110.3489 
 232   0.0000       4.126218       112.2801 
 233   0.0000       4.173015       113.5535 
 234   0.0000       4.183524       113.8395 
 235   0.0000       4.238214       115.3277 
 236   0.0000       4.252928       115.7280 
 237   0.0000       4.355487       118.5188 
 238   0.0000       4.438615       120.7809 
 239   0.0000       4.537008       123.4583 
 240   0.0000       4.550640       123.8292 
 241   0.0000       4.603012       125.2543 
 242   0.0000       4.617082       125.6372 
 243   0.0000       4.748738       129.2197 
 244   0.0000       4.768152       129.7480 
 245   0.0000       4.804798       130.7452 
 246   0.0000       4.831709       131.4775 
 247   0.0000       4.846903       131.8909 
 248   0.0000       4.872319       132.5825 
 249   0.0000       4.901525       133.3773 
 250   0.0000       4.965149       135.1086 
 251   0.0000       5.053188       137.5042 
 252   0.0000       5.139031       139.8402 
 253   0.0000       5.239988       142.5873 
 254   0.0000       5.256606       143.0395 
 255   0.0000       5.270872       143.4277 
 256   0.0000       5.328131       144.9858 
 257   0.0000       5.343467       145.4031 
 258   0.0000       5.407666       147.1501 
 259   0.0000       5.437494       147.9617 
 260   0.0000       5.543444       150.8448 
 261   0.0000       5.659598       154.0055 
 262   0.0000       5.668344       154.2435 
 263   0.0000       5.832912       158.7216 
 264   0.0000       5.923791       161.1946 
 265   0.0000       6.033917       164.1912 
 266   0.0000       6.044160       164.4699 
 267   0.0000       6.093721       165.8186 
 268   0.0000       6.276205       170.7842 
 269   0.0000       6.318039       171.9226 
 270   0.0000       6.414257       174.5408 
 271   0.0000       6.507906       177.0891 
 272   0.0000       6.655715       181.1112 
 273   0.0000       6.657450       181.1584 
 274   0.0000       6.815213       185.4514 
 275   0.0000       6.833811       185.9575 
 276   0.0000       6.905271       187.9020 
 277   0.0000       7.070646       192.4021 
 278   0.0000       7.102678       193.2737 
 279   0.0000       7.329634       199.4495 
 280   0.0000       7.858638       213.8444 
 281   0.0000       8.128177       221.1789 
 282   0.0000       8.270129       225.0416 
 283   0.0000       8.334496       226.7932 
 284   0.0000       9.175778       249.6856 
 285   0.0000       9.438047       256.8223 
 286   0.0000       9.782382       266.1921 
 287   0.0000      10.174324       276.8574 
 288   0.0000      10.189264       277.2640 
 289   0.0000      10.233289       278.4620 
 290   0.0000      10.274773       279.5908 
 291   0.0000      10.342851       281.4433 
 292   0.0000      10.431865       283.8655 
 293   0.0000      10.432316       283.8777 
 294   0.0000      10.448265       284.3117 
 295   0.0000      10.523363       286.3553 
 296   0.0000      10.625819       289.1432 
 297   0.0000      10.632292       289.3194 
 298   0.0000      10.735257       292.1212 
 299   0.0000      10.841922       295.0237 
 300   0.0000      10.844659       295.0982 
 301   0.0000      10.895856       296.4913 
 302   0.0000      11.050967       300.7121 
 303   0.0000      11.090873       301.7980 
 304   0.0000      11.386486       309.8420 
 305   0.0000      11.476011       312.2781 
 306   0.0000      11.483235       312.4747 
 307   0.0000      11.508459       313.1611 
 308   0.0000      11.526419       313.6498 
 309   0.0000      11.569830       314.8311 
 310   0.0000      11.577452       315.0385 
 311   0.0000      11.584876       315.2405 
 312   0.0000      11.632103       316.5256 
 313   0.0000      11.668334       317.5115 
 314   0.0000      11.722388       318.9824 
 315   0.0000      11.723789       319.0205 
 316   0.0000      11.835878       322.0706 
 317   0.0000      11.915219       324.2296 
 318   0.0000      11.950078       325.1782 
 319   0.0000      12.098707       329.2226 
 320   0.0000      12.123009       329.8838 
 321   0.0000      12.124976       329.9374 
 322   0.0000      12.269591       333.8726 
 323   0.0000      12.459236       339.0330 
 324   0.0000      12.507630       340.3499 
 325   0.0000      12.651582       344.2670 
 326   0.0000      12.725168       346.2694 
 327   0.0000      12.846605       349.5739 
 328   0.0000      12.964704       352.7875 
 329   0.0000      12.970348       352.9411 
 330   0.0000      13.537061       368.3622 
 331   0.0000      13.705052       372.9334 
 332   0.0000      13.768716       374.6658 
 333   0.0000      14.528420       395.3384 
 334   0.0000      14.561515       396.2390 
 335   0.0000      14.645929       398.5360 
 336   0.0000      14.751791       401.4166 
 337   0.0000      14.761745       401.6875 
 338   0.0000      15.005180       408.3117 
 339   0.0000      15.063096       409.8877 
 340   0.0000      15.374591       418.3639 
 341   0.0000      15.431836       419.9216 
 342   0.0000      15.593893       424.3314 
 343   0.0000      15.810274       430.2194 
 344   0.0000      15.890880       432.4128 
 345   0.0000      16.020489       435.9397 
 346   0.0000      16.728520       455.2062 
 347   0.0000      16.888664       459.5639 
 348   0.0000      16.971051       461.8058 
 349   0.0000      17.141494       466.4438 
 350   0.0000      17.685571       481.2489 
 351   0.0000      17.728060       482.4050 
 352   0.0000      17.771480       483.5866 
 353   0.0000      18.652690       507.5655 
 354   0.0000      19.070380       518.9314 
 355   0.0000      19.119202       520.2599 
 356   0.0000      21.469456       584.2136 
 357   0.0000      24.013154       653.4311 
 358   0.0000      26.138242       711.2577 
 359   0.0000      26.413987       718.7611 
 360   0.0000      27.945228       760.4283 
 361   0.0000      31.962521       869.7444 
 362   0.0000      32.050961       872.1510 
 363   0.0000      32.895904       895.1430 
 364   0.0000      32.914001       895.6355 
 365   0.0000      34.427420       936.8177 
 366   0.0000      47.761578      1299.6586 
 367   0.0000      47.882743      1302.9557 
 368   0.0000      48.013686      1306.5188 
 369   0.0000      48.069505      1308.0377 
 370   0.0000      48.952179      1332.0565 
 371   0.0000      74.272421      2021.0553 
 372   0.0000     104.191477      2835.1942 

                 SPIN DOWN ORBITALS
  NO   OCC          E(Eh)            E(eV) 
   0   1.0000     -13.939663      -379.3175 
   1   1.0000      -9.860839      -268.3271 
   2   1.0000      -1.912408       -52.0393 
   3   1.0000      -0.778493       -21.1839 
   4   1.0000      -0.342771        -9.3273 
   5   1.0000      -0.288347        -7.8463 
   6   1.0000      -0.269416        -7.3312 
   7   1.0000      -0.216231        -5.8839 
   8   0.0000      -0.066774        -1.8170 
   9   0.0000      -0.028317        -0.7706 
  10   0.0000      -0.009881        -0.2689 
  11   0.0000       0.003100         0.0844 
  12   0.0000       0.008931         0.2430 
  13   0.0000       0.011529         0.3137 
  14   0.0000       0.018378         0.5001 
  15   0.0000       0.019332         0.5260 
  16   0.0000       0.029700         0.8082 
  17   0.0000       0.032894         0.8951 
  18   0.0000       0.037413         1.0181 
  19   0.0000       0.040032         1.0893 
  20   0.0000       0.041976         1.1422 
  21   0.0000       0.042772         1.1639 
  22   0.0000       0.046933         1.2771 
  23   0.0000       0.053916         1.4671 
  24   0.0000       0.065173         1.7734 
  25   0.0000       0.067902         1.8477 
  26   0.0000       0.072072         1.9612 
  27   0.0000       0.075350         2.0504 
  28   0.0000       0.079705         2.1689 
  29   0.0000       0.083444         2.2706 
  30   0.0000       0.088257         2.4016 
  31   0.0000       0.095351         2.5946 
  32   0.0000       0.098020         2.6673 
  33   0.0000       0.098256         2.6737 
  34   0.0000       0.105649         2.8749 
  35   0.0000       0.106711         2.9037 
  36   0.0000       0.114241         3.1086 
  37   0.0000       0.115820         3.1516 
  38   0.0000       0.127155         3.4601 
  39   0.0000       0.134818         3.6686 
  40   0.0000       0.135940         3.6991 
  41   0.0000       0.140255         3.8165 
  42   0.0000       0.140443         3.8217 
  43   0.0000       0.151275         4.1164 
  44   0.0000       0.158291         4.3073 
  45   0.0000       0.159054         4.3281 
  46   0.0000       0.160211         4.3595 
  47   0.0000       0.161265         4.3882 
  48   0.0000       0.163510         4.4493 
  49   0.0000       0.164340         4.4719 
  50   0.0000       0.169414         4.6100 
  51   0.0000       0.170966         4.6522 
  52   0.0000       0.176670         4.8074 
  53   0.0000       0.179246         4.8775 
  54   0.0000       0.184713         5.0263 
  55   0.0000       0.194130         5.2825 
  56   0.0000       0.201082         5.4717 
  57   0.0000       0.206035         5.6065 
  58   0.0000       0.209223         5.6933 
  59   0.0000       0.216801         5.8995 
  60   0.0000       0.229282         6.2391 
  61   0.0000       0.238406         6.4874 
  62   0.0000       0.256629         6.9832 
  63   0.0000       0.265773         7.2321 
  64   0.0000       0.267789         7.2869 
  65   0.0000       0.270593         7.3632 
  66   0.0000       0.272253         7.4084 
  67   0.0000       0.281462         7.6590 
  68   0.0000       0.281970         7.6728 
  69   0.0000       0.290187         7.8964 
  70   0.0000       0.296564         8.0699 
  71   0.0000       0.304816         8.2945 
  72   0.0000       0.309382         8.4187 
  73   0.0000       0.321187         8.7399 
  74   0.0000       0.327933         8.9235 
  75   0.0000       0.333672         9.0797 
  76   0.0000       0.338897         9.2219 
  77   0.0000       0.342453         9.3186 
  78   0.0000       0.356262         9.6944 
  79   0.0000       0.372199        10.1281 
  80   0.0000       0.378226        10.2921 
  81   0.0000       0.382650        10.4124 
  82   0.0000       0.386912        10.5284 
  83   0.0000       0.399189        10.8625 
  84   0.0000       0.399289        10.8652 
  85   0.0000       0.409653        11.1472 
  86   0.0000       0.420156        11.4330 
  87   0.0000       0.424507        11.5514 
  88   0.0000       0.430592        11.7170 
  89   0.0000       0.436130        11.8677 
  90   0.0000       0.447539        12.1782 
  91   0.0000       0.461730        12.5643 
  92   0.0000       0.473487        12.8842 
  93   0.0000       0.474617        12.9150 
  94   0.0000       0.490545        13.3484 
  95   0.0000       0.497670        13.5423 
  96   0.0000       0.506535        13.7835 
  97   0.0000       0.522261        14.2114 
  98   0.0000       0.534989        14.5578 
  99   0.0000       0.535499        14.5717 
 100   0.0000       0.538679        14.6582 
 101   0.0000       0.557010        15.1570 
 102   0.0000       0.564905        15.3718 
 103   0.0000       0.575451        15.6588 
 104   0.0000       0.575957        15.6726 
 105   0.0000       0.579829        15.7780 
 106   0.0000       0.592229        16.1154 
 107   0.0000       0.593098        16.1390 
 108   0.0000       0.612431        16.6651 
 109   0.0000       0.617329        16.7984 
 110   0.0000       0.626124        17.0377 
 111   0.0000       0.629401        17.1269 
 112   0.0000       0.634169        17.2566 
 113   0.0000       0.644734        17.5441 
 114   0.0000       0.652018        17.7423 
 115   0.0000       0.659918        17.9573 
 116   0.0000       0.666552        18.1378 
 117   0.0000       0.670888        18.2558 
 118   0.0000       0.677287        18.4299 
 119   0.0000       0.683918        18.6103 
 120   0.0000       0.684480        18.6256 
 121   0.0000       0.690482        18.7890 
 122   0.0000       0.690689        18.7946 
 123   0.0000       0.708552        19.2807 
 124   0.0000       0.735304        20.0086 
 125   0.0000       0.735917        20.0253 
 126   0.0000       0.760978        20.7073 
 127   0.0000       0.777616        21.1600 
 128   0.0000       0.790636        21.5143 
 129   0.0000       0.794409        21.6170 
 130   0.0000       0.795608        21.6496 
 131   0.0000       0.822685        22.3864 
 132   0.0000       0.835258        22.7285 
 133   0.0000       0.838303        22.8114 
 134   0.0000       0.842494        22.9254 
 135   0.0000       0.858199        23.3528 
 136   0.0000       0.874997        23.8099 
 137   0.0000       0.901441        24.5295 
 138   0.0000       0.908797        24.7296 
 139   0.0000       0.915958        24.9245 
 140   0.0000       0.924709        25.1626 
 141   0.0000       0.938106        25.5272 
 142   0.0000       0.944952        25.7134 
 143   0.0000       0.957411        26.0525 
 144   0.0000       0.966091        26.2887 
 145   0.0000       0.978039        26.6138 
 146   0.0000       0.997334        27.1388 
 147   0.0000       1.000016        27.2118 
 148   0.0000       1.012650        27.5556 
 149   0.0000       1.033339        28.1186 
 150   0.0000       1.036181        28.1959 
 151   0.0000       1.052435        28.6382 
 152   0.0000       1.056915        28.7601 
 153   0.0000       1.061148        28.8753 
 154   0.0000       1.092150        29.7189 
 155   0.0000       1.094315        29.7778 
 156   0.0000       1.095722        29.8161 
 157   0.0000       1.110512        30.2186 
 158   0.0000       1.132791        30.8248 
 159   0.0000       1.160034        31.5661 
 160   0.0000       1.163497        31.6604 
 161   0.0000       1.191441        32.4208 
 162   0.0000       1.199474        32.6393 
 163   0.0000       1.210728        32.9456 
 164   0.0000       1.244558        33.8661 
 165   0.0000       1.255064        34.1520 
 166   0.0000       1.260534        34.3009 
 167   0.0000       1.300615        35.3915 
 168   0.0000       1.339771        36.4570 
 169   0.0000       1.354921        36.8693 
 170   0.0000       1.406268        38.2665 
 171   0.0000       1.471769        40.0489 
 172   0.0000       1.485068        40.4107 
 173   0.0000       1.526268        41.5319 
 174   0.0000       1.570987        42.7487 
 175   0.0000       1.578685        42.9582 
 176   0.0000       1.615757        43.9670 
 177   0.0000       1.620063        44.0842 
 178   0.0000       1.655019        45.0353 
 179   0.0000       1.696874        46.1743 
 180   0.0000       1.755177        47.7608 
 181   0.0000       1.786236        48.6060 
 182   0.0000       1.804755        49.1099 
 183   0.0000       1.837411        49.9985 
 184   0.0000       1.867037        50.8047 
 185   0.0000       1.960506        53.3481 
 186   0.0000       1.996552        54.3289 
 187   0.0000       2.064511        56.1782 
 188   0.0000       2.090185        56.8768 
 189   0.0000       2.101845        57.1941 
 190   0.0000       2.122436        57.7544 
 191   0.0000       2.170706        59.0679 
 192   0.0000       2.192651        59.6651 
 193   0.0000       2.193543        59.6893 
 194   0.0000       2.220057        60.4108 
 195   0.0000       2.221947        60.4623 
 196   0.0000       2.276516        61.9472 
 197   0.0000       2.306137        62.7532 
 198   0.0000       2.345797        63.8324 
 199   0.0000       2.410136        65.5831 
 200   0.0000       2.459693        66.9316 
 201   0.0000       2.474857        67.3443 
 202   0.0000       2.493348        67.8475 
 203   0.0000       2.546650        69.2979 
 204   0.0000       2.555860        69.5485 
 205   0.0000       2.611964        71.0751 
 206   0.0000       2.613998        71.1305 
 207   0.0000       2.685424        73.0741 
 208   0.0000       2.699545        73.4584 
 209   0.0000       2.739580        74.5478 
 210   0.0000       2.748777        74.7980 
 211   0.0000       2.753134        74.9166 
 212   0.0000       2.829503        76.9947 
 213   0.0000       2.886185        78.5371 
 214   0.0000       2.916203        79.3539 
 215   0.0000       3.001118        81.6646 
 216   0.0000       3.036341        82.6230 
 217   0.0000       3.067808        83.4793 
 218   0.0000       3.072994        83.6204 
 219   0.0000       3.077681        83.7480 
 220   0.0000       3.118306        84.8534 
 221   0.0000       3.180695        86.5511 
 222   0.0000       3.199619        87.0660 
 223   0.0000       3.248147        88.3866 
 224   0.0000       3.323526        90.4377 
 225   0.0000       3.348906        91.1284 
 226   0.0000       3.448821        93.8472 
 227   0.0000       3.469196        94.4016 
 228   0.0000       3.544775        96.4582 
 229   0.0000       3.789230       103.1102 
 230   0.0000       3.855379       104.9102 
 231   0.0000       4.055247       110.3489 
 232   0.0000       4.126218       112.2801 
 233   0.0000       4.173015       113.5535 
 234   0.0000       4.183524       113.8395 
 235   0.0000       4.238214       115.3277 
 236   0.0000       4.252928       115.7280 
 237   0.0000       4.355487       118.5188 
 238   0.0000       4.438615       120.7809 
 239   0.0000       4.537008       123.4583 
 240   0.0000       4.550640       123.8292 
 241   0.0000       4.603012       125.2543 
 242   0.0000       4.617082       125.6372 
 243   0.0000       4.748738       129.2197 
 244   0.0000       4.768152       129.7480 
 245   0.0000       4.804798       130.7452 
 246   0.0000       4.831709       131.4775 
 247   0.0000       4.846903       131.8909 
 248   0.0000       4.872319       132.5825 
 249   0.0000       4.901525       133.3773 
 250   0.0000       4.965149       135.1086 
 251   0.0000       5.053188       137.5042 
 252   0.0000       5.139031       139.8402 
 253   0.0000       5.239988       142.5873 
 254   0.0000       5.256606       143.0395 
 255   0.0000       5.270872       143.4277 
 256   0.0000       5.328131       144.9858 
 257   0.0000       5.343467       145.4031 
 258   0.0000       5.407666       147.1501 
 259   0.0000       5.437494       147.9617 
 260   0.0000       5.543444       150.8448 
 261   0.0000       5.659598       154.0055 
 262   0.0000       5.668344       154.2435 
 263   0.0000       5.832912       158.7216 
 264   0.0000       5.923791       161.1946 
 265   0.0000       6.033917       164.1912 
 266   0.0000       6.044160       164.4699 
 267   0.0000       6.093721       165.8186 
 268   0.0000       6.276205       170.7842 
 269   0.0000       6.318039       171.9226 
 270   0.0000       6.414257       174.5408 
 271   0.0000       6.507906       177.0891 
 272   0.0000       6.655715       181.1112 
 273   0.0000       6.657450       181.1584 
 274   0.0000       6.815213       185.4514 
 275   0.0000       6.833811       185.9575 
 276   0.0000       6.905271       187.9020 
 277   0.0000       7.070646       192.4021 
 278   0.0000       7.102678       193.2737 
 279   0.0000       7.329634       199.4495 
 280   0.0000       7.858638       213.8444 
 281   0.0000       8.128177       221.1789 
 282   0.0000       8.270129       225.0416 
 283   0.0000       8.334496       226.7932 
 284   0.0000       9.175778       249.6856 
 285   0.0000       9.438047       256.8223 
 286   0.0000       9.782382       266.1921 
 287   0.0000      10.174324       276.8574 
 288   0.0000      10.189264       277.2640 
 289   0.0000      10.233289       278.4620 
 290   0.0000      10.274773       279.5908 
 291   0.0000      10.342851       281.4433 
 292   0.0000      10.431865       283.8655 
 293   0.0000      10.432316       283.8777 
 294   0.0000      10.448265       284.3117 
 295   0.0000      10.523363       286.3553 
 296   0.0000      10.625819       289.1432 
 297   0.0000      10.632292       289.3194 
 298   0.0000      10.735257       292.1212 
 299   0.0000      10.841922       295.0237 
 300   0.0000      10.844659       295.0982 
 301   0.0000      10.895856       296.4913 
 302   0.0000      11.050967       300.7121 
 303   0.0000      11.090873       301.7980 
 304   0.0000      11.386486       309.8420 
 305   0.0000      11.476011       312.2781 
 306   0.0000      11.483235       312.4747 
 307   0.0000      11.508459       313.1611 
 308   0.0000      11.526419       313.6498 
 309   0.0000      11.569830       314.8311 
 310   0.0000      11.577452       315.0385 
 311   0.0000      11.584876       315.2405 
 312   0.0000      11.632103       316.5256 
 313   0.0000      11.668334       317.5115 
 314   0.0000      11.722388       318.9824 
 315   0.0000      11.723789       319.0205 
 316   0.0000      11.835878       322.0706 
 317   0.0000      11.915219       324.2296 
 318   0.0000      11.950078       325.1782 
 319   0.0000      12.098707       329.2226 
 320   0.0000      12.123009       329.8838 
 321   0.0000      12.124976       329.9374 
 322   0.0000      12.269591       333.8726 
 323   0.0000      12.459236       339.0330 
 324   0.0000      12.507630       340.3499 
 325   0.0000      12.651582       344.2670 
 326   0.0000      12.725168       346.2694 
 327   0.0000      12.846605       349.5739 
 328   0.0000      12.964704       352.7875 
 329   0.0000      12.970348       352.9411 
 330   0.0000      13.537061       368.3622 
 331   0.0000      13.705052       372.9334 
 332   0.0000      13.768716       374.6658 
 333   0.0000      14.528420       395.3384 
 334   0.0000      14.561515       396.2390 
 335   0.0000      14.645929       398.5360 
 336   0.0000      14.751791       401.4166 
 337   0.0000      14.761745       401.6875 
 338   0.0000      15.005180       408.3117 
 339   0.0000      15.063096       409.8877 
 340   0.0000      15.374591       418.3639 
 341   0.0000      15.431836       419.9216 
 342   0.0000      15.593893       424.3314 
 343   0.0000      15.810274       430.2194 
 344   0.0000      15.890880       432.4128 
 345   0.0000      16.020489       435.9397 
 346   0.0000      16.728520       455.2062 
 347   0.0000      16.888664       459.5639 
 348   0.0000      16.971051       461.8058 
 349   0.0000      17.141494       466.4438 
 350   0.0000      17.685571       481.2489 
 351   0.0000      17.728060       482.4050 
 352   0.0000      17.771480       483.5866 
 353   0.0000      18.652690       507.5655 
 354   0.0000      19.070380       518.9314 
 355   0.0000      19.119202       520.2599 
 356   0.0000      21.469456       584.2136 
 357   0.0000      24.013154       653.4311 
 358   0.0000      26.138242       711.2577 
 359   0.0000      26.413987       718.7611 
 360   0.0000      27.945228       760.4283 
 361   0.0000      31.962521       869.7444 
 362   0.0000      32.050961       872.1510 
 363   0.0000      32.895904       895.1430 
 364   0.0000      32.914001       895.6355 
 365   0.0000      34.427420       936.8177 
 366   0.0000      47.761578      1299.6586 
 367   0.0000      47.882743      1302.9557 
 368   0.0000      48.013686      1306.5188 
 369   0.0000      48.069505      1308.0377 
 370   0.0000      48.952179      1332.0565 
 371   0.0000      74.272421      2021.0553 
 372   0.0000     104.191477      2835.1942 

                    ********************************
                    * MULLIKEN POPULATION ANALYSIS *
                    ********************************

--------------------------------------------
MULLIKEN ATOMIC CHARGES AND SPIN POPULATIONS
--------------------------------------------
   0 Li:    0.703560   -0.000000
   1 C :   -0.385867   -0.000000
   2 N :   -0.317693    0.000000
Sum of atomic charges         :   -0.0000000
Sum of atomic spin populations:    0.0000000

-----------------------------------------------------
MULLIKEN REDUCED ORBITAL CHARGES AND SPIN POPULATIONS
-----------------------------------------------------
CHARGE
  0 Lis       :     2.065682  s :     2.065682
      pz      :     0.052032  p :     0.174967
      px      :     0.066469
      py      :     0.056466
      dz2     :     0.003034  d :     0.046341
      dxz     :     0.014147
      dyz     :     0.003549
      dx2y2   :     0.013354
      dxy     :     0.012255
      f0      :     0.001285  f :     0.009081
      f+1     :     0.000937
      f-1     :     0.000342
      f+2     :     0.000542
      f-2     :     0.001161
      f+3     :     0.002577
      f-3     :     0.002237
      g0      :     0.000062  g :     0.000370
      g+1     :    -0.000013
      g-1     :     0.000016
      g+2     :     0.000079
      g-2     :     0.000053
      g+3     :    -0.000006
      g-3     :     0.000034
      g+4     :     0.000035
      g-4     :     0.000109
  1 C s       :     3.826096  s :     3.826096
      pz      :     0.701199  p :     2.487141
      px      :     0.792282
      py      :     0.993660
      dz2     :     0.005434  d :     0.066589
      dxz     :     0.008341
      dyz     :     0.016735
      dx2y2   :     0.019798
      dxy     :     0.016282
      f0      :     0.001061  f :     0.005452
      f+1     :     0.000368
      f-1     :     0.000359
      f+2     :     0.000072
      f-2     :     0.001228
      f+3     :     0.000186
      f-3     :     0.002178
      g0      :     0.000003  g :     0.000606
      g+1     :     0.000043
      g-1     :     0.000143
      g+2     :    -0.000012
      g-2     :     0.000060
      g+3     :     0.000179
      g-3     :     0.000007
      g+4     :    -0.000077
      g-4     :     0.000262
      h0      :     0.000003  h :    -0.000016
      h+1     :    -0.000004
      h-1     :     0.000003
      h+2     :     0.000001
      h-2     :     0.000008
      h+3     :    -0.000024
      h-3     :     0.000012
      h+4     :     0.000006
      h-4     :     0.000002
      h+5     :    -0.000025
      h-5     :     0.000002
  2 N s       :     3.853456  s :     3.853456
      pz      :     1.179420  p :     3.428169
      px      :     1.133452
      py      :     1.115298
      dz2     :     0.005026  d :     0.034403
      dxz     :     0.001512
      dyz     :     0.015437
      dx2y2   :     0.009670
      dxy     :     0.002758
      f0      :     0.000819  f :     0.001050
      f+1     :     0.000528
      f-1     :     0.000375
      f+2     :     0.000332
      f-2     :     0.000471
      f+3     :    -0.003096
      f-3     :     0.001622
      g0      :     0.000024  g :     0.000407
      g+1     :     0.000052
      g-1     :     0.000090
      g+2     :     0.000123
      g-2     :     0.000002
      g+3     :     0.000119
      g-3     :    -0.000034
      g+4     :     0.000279
      g-4     :    -0.000248
      h0      :    -0.000000  h :     0.000206
      h+1     :    -0.000005
      h-1     :     0.000013
      h+2     :     0.000004
      h-2     :     0.000012
      h+3     :    -0.000008
      h-3     :     0.000045
      h+4     :    -0.000009
      h-4     :     0.000004
      h+5     :     0.000101
      h-5     :     0.000051

SPIN
  0 Lis       :    -0.000000  s :    -0.000000
      pz      :    -0.000000  p :    -0.000000
      px      :    -0.000000
      py      :    -0.000000
      dz2     :     0.000000  d :    -0.000000
      dxz     :    -0.000000
      dyz     :    -0.000000
      dx2y2   :    -0.000000
      dxy     :    -0.000000
      f0      :    -0.000000  f :    -0.000000
      f+1     :     0.000000
      f-1     :    -0.000000
      f+2     :    -0.000000
      f-2     :    -0.000000
      f+3     :    -0.000000
      f-3     :    -0.000000
      g0      :     0.000000  g :     0.000000
      g+1     :    -0.000000
      g-1     :    -0.000000
      g+2     :     0.000000
      g-2     :    -0.000000
      g+3     :    -0.000000
      g-3     :    -0.000000
      g+4     :    -0.000000
      g-4     :     0.000000
  1 C s       :    -0.000000  s :    -0.000000
      pz      :     0.000000  p :    -0.000000
      px      :    -0.000000
      py      :    -0.000000
      dz2     :    -0.000000  d :    -0.000000
      dxz     :     0.000000
      dyz     :     0.000000
      dx2y2   :    -0.000000
      dxy     :    -0.000000
      f0      :     0.000000  f :    -0.000000
      f+1     :    -0.000000
      f-1     :    -0.000000
      f+2     :     0.000000
      f-2     :     0.000000
      f+3     :    -0.000000
      f-3     :    -0.000000
      g0      :    -0.000000  g :    -0.000000
      g+1     :    -0.000000
      g-1     :     0.000000
      g+2     :    -0.000000
      g-2     :    -0.000000
      g+3     :     0.000000
      g-3     :    -0.000000
      g+4     :    -0.000000
      g-4     :    -0.000000
      h0      :     0.000000  h :    -0.000000
      h+1     :    -0.000000
      h-1     :    -0.000000
      h+2     :     0.000000
      h-2     :    -0.000000
      h+3     :    -0.000000
      h-3     :     0.000000
      h+4     :     0.000000
      h-4     :     0.000000
      h+5     :    -0.000000
      h-5     :    -0.000000
  2 N s       :     0.000000  s :     0.000000
      pz      :    -0.000000  p :    -0.000000
      px      :    -0.000000
      py      :    -0.000000
      dz2     :    -0.000000  d :    -0.000000
      dxz     :     0.000000
      dyz     :    -0.000000
      dx2y2   :    -0.000000
      dxy     :    -0.000000
      f0      :    -0.000000  f :    -0.000000
      f+1     :    -0.000000
      f-1     :    -0.000000
      f+2     :    -0.000000
      f-2     :     0.000000
      f+3     :    -0.000000
      f-3     :    -0.000000
      g0      :    -0.000000  g :    -0.000000
      g+1     :     0.000000
      g-1     :    -0.000000
      g+2     :     0.000000
      g-2     :    -0.000000
      g+3     :    -0.000000
      g-3     :     0.000000
      g+4     :     0.000000
      g-4     :     0.000000
      h0      :    -0.000000  h :     0.000000
      h+1     :     0.000000
      h-1     :    -0.000000
      h+2     :    -0.000000
      h-2     :     0.000000
      h+3     :    -0.000000
      h-3     :     0.000000
      h+4     :    -0.000000
      h-4     :    -0.000000
      h+5     :     0.000000
      h-5     :    -0.000000


                     *******************************
                     * LOEWDIN POPULATION ANALYSIS *
                     *******************************

-------------------------------------------
LOEWDIN ATOMIC CHARGES AND SPIN POPULATIONS
-------------------------------------------
   0 Li:    0.106568   -0.000000
   1 C :   -0.113620   -0.000000
   2 N :    0.007052    0.000000

----------------------------------------------------
LOEWDIN REDUCED ORBITAL CHARGES AND SPIN POPULATIONS
----------------------------------------------------
CHARGE
  0 Lis       :     2.066619  s :     2.066619
      pz      :     0.050693  p :     0.351116
      px      :     0.210278
      py      :     0.090145
      dz2     :     0.041320  d :     0.275184
      dxz     :     0.048407
      dyz     :     0.012261
      dx2y2   :     0.085525
      dxy     :     0.087671
      f0      :     0.020112  f :     0.175594
      f+1     :     0.020569
      f-1     :     0.010314
      f+2     :     0.007392
      f-2     :     0.015602
      f+3     :     0.058214
      f-3     :     0.043391
      g0      :     0.001882  g :     0.024918
      g+1     :     0.003140
      g-1     :     0.000854
      g+2     :     0.002342
      g-2     :     0.002679
      g+3     :     0.000074
      g-3     :     0.001336
      g+4     :     0.005799
      g-4     :     0.006813
  1 C s       :     3.006848  s :     3.006848
      pz      :     0.640183  p :     2.517639
      px      :     0.813510
      py      :     1.063946
      dz2     :     0.051755  d :     0.408867
      dxz     :     0.035427
      dyz     :     0.060419
      dx2y2   :     0.121990
      dxy     :     0.139277
      f0      :     0.015315  f :     0.129699
      f+1     :     0.008778
      f-1     :     0.013731
      f+2     :     0.003186
      f-2     :     0.019371
      f+3     :     0.033538
      f-3     :     0.035780
      g0      :     0.002217  g :     0.038263
      g+1     :     0.002265
      g-1     :     0.004027
      g+2     :     0.003464
      g-2     :     0.003207
      g+3     :     0.003943
      g-3     :     0.000134
      g+4     :     0.011037
      g-4     :     0.007970
      h0      :     0.000441  h :     0.012304
      h+1     :     0.001545
      h-1     :     0.000302
      h+2     :     0.000038
      h-2     :     0.000475
      h+3     :     0.002506
      h-3     :     0.000418
      h+4     :     0.000106
      h-4     :     0.000285
      h+5     :     0.004782
      h-5     :     0.001406
  2 N s       :     3.105439  s :     3.105439
      pz      :     0.980357  p :     3.441319
      px      :     1.138606
      py      :     1.322356
      dz2     :     0.045615  d :     0.287300
      dxz     :     0.010402
      dyz     :     0.036706
      dx2y2   :     0.060694
      dxy     :     0.133884
      f0      :     0.008960  f :     0.098934
      f+1     :     0.009525
      f-1     :     0.013745
      f+2     :     0.001841
      f-2     :     0.009284
      f+3     :     0.028625
      f-3     :     0.026955
      g0      :     0.003678  g :     0.039899
      g+1     :     0.000605
      g-1     :     0.002873
      g+2     :     0.001451
      g-2     :     0.008154
      g+3     :     0.001891
      g-3     :     0.000356
      g+4     :     0.015872
      g-4     :     0.005019
      h0      :     0.000378  h :     0.020058
      h+1     :     0.002255
      h-1     :     0.001922
      h+2     :     0.000064
      h-2     :     0.000218
      h+3     :     0.001947
      h-3     :     0.003575
      h+4     :     0.000348
      h-4     :     0.000235
      h+5     :     0.006439
      h-5     :     0.002678

SPIN
  0 Lis       :    -0.000000  s :    -0.000000
      pz      :    -0.000000  p :    -0.000000
      px      :     0.000000
      py      :    -0.000000
      dz2     :     0.000000  d :    -0.000000
      dxz     :    -0.000000
      dyz     :    -0.000000
      dx2y2   :    -0.000000
      dxy     :    -0.000000
      f0      :    -0.000000  f :     0.000000
      f+1     :     0.000000
      f-1     :    -0.000000
      f+2     :    -0.000000
      f-2     :    -0.000000
      f+3     :    -0.000000
      f-3     :     0.000000
      g0      :     0.000000  g :     0.000000
      g+1     :     0.000000
      g-1     :     0.000000
      g+2     :     0.000000
      g-2     :    -0.000000
      g+3     :    -0.000000
      g-3     :     0.000000
      g+4     :     0.000000
      g-4     :    -0.000000
  1 C s       :    -0.000000  s :    -0.000000
      pz      :    -0.000000  p :    -0.000000
      px      :    -0.000000
      py      :    -0.000000
      dz2     :     0.000000  d :    -0.000000
      dxz     :     0.000000
      dyz     :     0.000000
      dx2y2   :    -0.000000
      dxy     :    -0.000000
      f0      :     0.000000  f :    -0.000000
      f+1     :    -0.000000
      f-1     :     0.000000
      f+2     :     0.000000
      f-2     :     0.000000
      f+3     :    -0.000000
      f-3     :    -0.000000
      g0      :     0.000000  g :     0.000000
      g+1     :    -0.000000
      g-1     :     0.000000
      g+2     :    -0.000000
      g-2     :     0.000000
      g+3     :     0.000000
      g-3     :     0.000000
      g+4     :     0.000000
      g-4     :     0.000000
      h0      :     0.000000  h :     0.000000
      h+1     :     0.000000
      h-1     :     0.000000
      h+2     :     0.000000
      h-2     :    -0.000000
      h+3     :     0.000000
      h-3     :    -0.000000
      h+4     :     0.000000
      h-4     :    -0.000000
      h+5     :     0.000000
      h-5     :    -0.000000
  2 N s       :     0.000000  s :     0.000000
      pz      :     0.000000  p :    -0.000000
      px      :    -0.000000
      py      :    -0.000000
      dz2     :     0.000000  d :     0.000000
      dxz     :     0.000000
      dyz     :    -0.000000
      dx2y2   :     0.000000
      dxy     :    -0.000000
      f0      :    -0.000000  f :     0.000000
      f+1     :    -0.000000
      f-1     :    -0.000000
      f+2     :     0.000000
      f-2     :    -0.000000
      f+3     :     0.000000
      f-3     :     0.000000
      g0      :     0.000000  g :    -0.000000
      g+1     :     0.000000
      g-1     :    -0.000000
      g+2     :    -0.000000
      g-2     :     0.000000
      g+3     :     0.000000
      g-3     :    -0.000000
      g+4     :    -0.000000
      g-4     :    -0.000000
      h0      :     0.000000  h :     0.000000
      h+1     :     0.000000
      h-1     :     0.000000
      h+2     :     0.000000
      h-2     :    -0.000000
      h+3     :     0.000000
      h-3     :     0.000000
      h+4     :    -0.000000
      h-4     :    -0.000000
      h+5     :     0.000000
      h-5     :     0.000000


                      *****************************
                      * MAYER POPULATION ANALYSIS *
                      *****************************

  NA   - Mulliken gross atomic population
  ZA   - Total nuclear charge
  QA   - Mulliken gross atomic charge
  VA   - Mayer's total valence
  BVA  - Mayer's bonded valence
  FA   - Mayer's free valence

  ATOM       NA         ZA         QA         VA         BVA        FA
  0 Li     2.2964     3.0000     0.7036     0.4847     0.4847    -0.0000
  1 C      6.3859     6.0000    -0.3859     2.5837     2.5837    -0.0000
  2 N      7.3177     7.0000    -0.3177     2.8140     2.8140    -0.0000

  Mayer bond orders larger than 0.1
B(  0-Li,  1-C ) :   0.1272 B(  0-Li,  2-N ) :   0.3575 B(  1-C ,  2-N ) :   2.4565 


-------
TIMINGS
-------

Total SCF time: 0 days 0 hours 17 min 24 sec 

Total time                  ....    1044.002 sec
Sum of individual times     ....    1042.828 sec  ( 99.9%)

Fock matrix formation       ....    1038.650 sec  ( 99.5%)
  XC integration            ....      19.043 sec  (  1.8% of F)
    Basis function eval.    ....       1.240 sec  (  6.5% of XC)
    Density eval.           ....       4.087 sec  ( 21.5% of XC)
    XC-Functional eval.     ....       0.168 sec  (  0.9% of XC)
    XC-Potential eval.      ....      12.752 sec  ( 67.0% of XC)
Diagonalization             ....       1.576 sec  (  0.2%)
Density matrix formation    ....       0.027 sec  (  0.0%)
Population analysis         ....       0.125 sec  (  0.0%)
Initial guess               ....       0.897 sec  (  0.1%)
Orbital Transformation      ....       0.000 sec  (  0.0%)
Orbital Orthonormalization  ....       0.000 sec  (  0.0%)
DIIS solution               ....       1.140 sec  (  0.1%)
Grid generation             ....       0.413 sec  (  0.0%)

-------------------------   --------------------
FINAL SINGLE POINT ENERGY      -100.284847221319
-------------------------   --------------------


                            ***************************************
                            *     ORCA property calculations      *
                            ***************************************

                                    ---------------------
                                    Active property flags
                                    ---------------------
   (+) Dipole Moment
   (+) Polarizability


------------------------------------------------------------------------------
                       ORCA ELECTRIC PROPERTIES CALCULATION
------------------------------------------------------------------------------

Dipole Moment Calculation                       ... on
Quadrupole Moment Calculation                   ... off
Polarizability Calculation                      ... Analytic (CP-SCF)
GBWName                                         ... licn_pbe.gbw
Electron density file                           ... licn_pbe.scfp.tmp
The origin for moment calculation is the CENTER OF MASS  = ( 0.079529, -0.023371  0.000000)

-------------
DIPOLE MOMENT
-------------
                                X             Y             Z
Electronic contribution:      3.71928      -1.49217       0.00000
Nuclear contribution   :     -1.21344       0.53686       0.00000
                        -----------------------------------------
Total Dipole Moment    :      2.50584      -0.95531       0.00000
                        -----------------------------------------
Magnitude (a.u.)       :      2.68176
Magnitude (Debye)      :      6.81650



--------------------
Rotational spectrum 
--------------------
 
Rotational constants in cm-1:     1.939920     0.831697     0.582124 
Rotational constants in MHz : 58157.349324 24933.635650 17451.642424 

 Dipole components along the rotational axes: 
x,y,z [a.u.] :    -2.672373    -0.224220     0.000000 
x,y,z [Debye]:    -6.792633    -0.569922     0.000000 

 
Transforming and storing MO dipole integrals   ... done

                ... starting polarizability calculation

Opening the Dipole integral file               ... (licn_pbe.dmo.tmp) done
Reading Dipole-MO integrals                    ... done
Solving CP-SCF equations                       ... 

           ************************************************************
           *        Program running with 4 parallel MPI-processes     *
           *              working on a common directory               *
           ************************************************************

------------------------------------------------------------------------------
                           ORCA CP-SCF CALCULATION
------------------------------------------------------------------------------

Input orbitals are from        ... licn_pbe.gbw
Input Perturbation             ... licn_pbe.cpv.tmp
Wavefunction output            ... licn_pbe.cpu.tmp
Perturbation mode              ... Real perturbation (singlet)
Solver                         ... POPLE
Max. number of iterations      ... 200
Convergence tolerance          ... 1.000e-06
Integral handling              ... Direct
Number of perturbations        ... 3
Number of operators            ... 2
Orbital ranges used for CP-SCF:
 Operator 0:  Orbitals   0...  7  to   8...372
 Operator 1:  Orbitals   0...  7  to   8...372
DFT calculation                         ... on
Exchange functional (SCF)               ... PBE
Exchange functional (CP-SCF)            ... PBE
   PBE kappa parameter  XKappa (SCF)    ...  0.804000
   PBE kappa parameter  XKappa (CP-SCF) ...  0.804000
   PBE mue parameter   XMuePBE (SCF)    ...  0.219520
   PBE mue parameter   XMuePBE (CP-SCF) ...  0.219520
Correlation functional (SCF)            ... PBE
Correlation functional (CP-SCF)         ... PBE
   PBE beta parameter CBetaPBE (SCF)    ...  0.066725
   PBE beta parameter CBetaPBE (CP-SCF) ...  0.066725
 LDA part of GGA corr.  LDAOpt (SCF)    ... PW91-LDA
 LDA part of GGA corr.  LDAOpt (CP-SCF) ... PW91-LDA
Variables per vector in CP-SCF ... 5840
Number of vectors sought       ... 3
Recalculating density on grid  ... done
Calculating the xc-kernel      ... done
     CP-SCF ITERATION   0: 
     CP-SCF ITERATION   1:      2.469956638500
     CP-SCF ITERATION   2:      0.059379547708
     CP-SCF ITERATION   3:      0.004236768257
     CP-SCF ITERATION   4:      0.000025682882
     CP-SCF ITERATION   5:      0.000000604602
done
Reading CP-SCF coefficients                    ... done
Doing the polarizability tensor   ... done
Cleaning up                                    ... done

-------------------------
THE POLARIZABILITY TENSOR
-------------------------

The raw cartesian tensor (atomic units):
   28.45060      1.70698     -0.00000  
    1.70698     28.13549      0.00000  
   -0.00000      0.00000     23.07073  
diagonalized tensor: 
   23.07073     26.57881     30.00728  

    0.00000     -0.67383     -0.73889  
   -0.00000      0.73889     -0.67383  
    1.00000      0.00000     -0.00000  

Isotropic polarizability :  26.55227


Timings for individual modules:

Sum of individual times         ...     1708.715 sec (=  28.479 min)
GTO integral calculation        ...        2.460 sec (=   0.041 min)   0.1 %
SCF iterations                  ...     1044.354 sec (=  17.406 min)  61.1 %
Solution of CP-SCF eqns.        ...      661.900 sec (=  11.032 min)  38.7 %
                             ****ORCA TERMINATED NORMALLY****
TOTAL RUN TIME: 0 days 0 hours 28 minutes 29 seconds 641 msec
