
                                 *****************
                                 * O   R   C   A *
                                 *****************

           --- An Ab Initio, DFT and Semiempirical electronic structure package ---

                  #######################################################
                  #                        -***-                        #
                  #          Department of theory and spectroscopy      #
                  #               Directorship: Frank Neese             #
                  #        Max Planck Institute fuer Kohlenforschung    #
                  #                Kaiser Wilhelm Platz 1               #
                  #                 D-45470 Muelheim/Ruhr               #
                  #                      Germany                        #
                  #                                                     #
                  #                  All rights reserved                #
                  #                        -***-                        #
                  #######################################################


                         Program Version 4.1.2  - RELEASE  -


 With contributions from (in alphabetic order):
   Daniel Aravena         : Magnetic Properties
   Michael Atanasov       : Ab Initio Ligand Field Theory
   Alexander A. Auer      : GIAO ZORA
   Ute Becker             : Parallelization
   Giovanni Bistoni       : ED, Open-shell LED
   Martin Brehm           : Molecular dynamics
   Dmytro Bykov           : SCF Hessian
   Vijay G. Chilkuri      : MRCI spin determinant printing
   Dipayan Datta          : RHF DLPNO-CCSD density
   Achintya Kumar Dutta   : EOM-CC, STEOM-CC
   Dmitry Ganyushin       : Spin-Orbit,Spin-Spin,Magnetic field MRCI
   Miquel Garcia          : C-PCM Hessian
   Yang Guo               : DLPNO-NEVPT2, CIM, IAO-localization
   Andreas Hansen         : Spin unrestricted coupled pair/coupled cluster methods
   Benjamin Helmich-Paris : CASSCF linear response (MC-RPA)
   Lee Huntington         : MR-EOM, pCC
   Robert Izsak           : Overlap fitted RIJCOSX, COSX-SCS-MP3, EOM
   Christian Kollmar      : KDIIS, OOCD, Brueckner-CCSD(T), CCSD density
   Simone Kossmann        : Meta GGA functionals, TD-DFT gradient, OOMP2, MP2 Hessian
   Martin Krupicka        : AUTO-CI
   Lucas Lang             : DCDCAS
   Dagmar Lenk            : GEPOL surface, SMD
   Dimitrios Liakos       : Extrapolation schemes; parallel MDCI
   Dimitrios Manganas     : ROCIS; embedding schemes
   Dimitrios Pantazis     : SARC Basis sets
   Taras Petrenko         : DFT Hessian,TD-DFT gradient, ASA, ECA, R-Raman, ABS, FL, XAS/XES, NRVS
   Peter Pinski           : DLPNO-MP2, DLPNO-MP2 Gradient
   Christoph Reimann      : Effective Core Potentials
   Marius Retegan         : Local ZFS, SOC
   Christoph Riplinger    : Optimizer, TS searches, QM/MM, DLPNO-CCSD(T), (RO)-DLPNO pert. Triples
   Tobias Risthaus        : Range-separated hybrids, TD-DFT gradient, RPA, STAB
   Michael Roemelt        : Restricted open shell CIS
   Masaaki Saitow         : Open-shell DLPNO
   Barbara Sandhoefer     : DKH picture change effects
   Avijit Sen             : IP-ROCIS
   Kantharuban Sivalingam : CASSCF convergence, NEVPT2, FIC-MRCI
   Bernardo de Souza      : ESD, SOC TD-DFT
   Georgi Stoychev        : AutoAux, RI-MP2 NMR
   Willem Van den Heuvel  : Paramagnetic NMR
   Boris Wezisla          : Elementary symmetry handling
   Frank Wennmohs         : Technical directorship


 We gratefully acknowledge several colleagues who have allowed us to
 interface, adapt or use parts of their codes:
   Stefan Grimme, W. Hujo, H. Kruse,             : VdW corrections, initial TS optimization,
                  C. Bannwarth                     DFT functionals, gCP, sTDA/sTD-DF
   Ed Valeev                                     : LibInt (2-el integral package), F12 methods
   Garnet Chan, S. Sharma, J. Yang, R. Olivares  : DMRG
   Ulf Ekstrom                                   : XCFun DFT Library
   Mihaly Kallay                                 : mrcc  (arbitrary order and MRCC methods)
   Andreas Klamt, Michael Diedenhofen            : otool_cosmo (COSMO solvation model)
   Jiri Pittner, Ondrej Demel                    : Mk-CCSD
   Frank Weinhold                                : gennbo (NPA and NBO analysis)
   Christopher J. Cramer and Donald G. Truhlar   : smd solvation model
   Lars Goerigk                                  : TD-DFT with DH, B97 family of functionals
   V. Asgeirsson, H. Jonsson                     : NEB implementation
   FAccTs GmbH                                   : IRC, NEB, NEB-TS, Multilevel


 Your calculation uses the libint2 library for the computation of 2-el integrals
 For citations please refer to: http://libint.valeyev.net

 This ORCA versions uses:
   CBLAS   interface :  Fast vector & matrix operations
   LAPACKE interface :  Fast linear algebra routines
   SCALAPACK package :  Parallel linear algebra routines


----- Orbital basis set information -----
Your calculation utilizes the basis: aug-pc-4
   H, C-F              : F. Jensen, J. Chem. Phys. 115, 9113 (2001).
                         F. Jensen, J. Chem. Phys. 116, 7372 (2002).
                         F. Jensen, J. Chem. Phys. 117, 9234 (2002).
   Si-Cl               : F. Jensen, T. Helgaker, J. Chem. Phys. 121, 3463 (2004).
   He-B, Ne-Mg, Al, Ar : F. Jensen, J. Phys. Chem. A 111, 11198 (2007).
   K, Ca, Ga-Kr        : F. Jensen, J. Chem. Phys. 136, 094110 (2012).
   Sc-Zn               : F. Jensen, J. Chem. Phys. 138, 014107 (2013).

================================================================================
                                        WARNINGS
                       Please study these warnings very carefully!
================================================================================


INFO   : the flag for use of LIBINT has been found!

================================================================================
                                       INPUT FILE
================================================================================
NAME = lih_pbe.inp
|  1> !uks pbe nori aug-pc-4 grid5 nofinalgrid verytightscf
|  2> 
|  3> %maxcore 1500
|  4> 
|  5> %pal nprocs 4 end
|  6> 
|  7> %scf
|  8> 	maxiter 200
|  9> end
| 10> %elprop
| 11> 	dipole true
| 12> 	 polar 1
| 13> 	 maxiter 200
| 14> end
| 15> 
| 16> * xyz 0 1
| 17> Li 0.0000 0.0000 0.0000
| 18> H 0.0000 0.0000 1.5949
| 19> *
| 20> 
| 21>                          ****END OF INPUT****
================================================================================

                       ****************************
                       * Single Point Calculation *
                       ****************************

---------------------------------
CARTESIAN COORDINATES (ANGSTROEM)
---------------------------------
  Li     0.000000    0.000000    0.000000
  H      0.000000    0.000000    1.594900

----------------------------
CARTESIAN COORDINATES (A.U.)
----------------------------
  NO LB      ZA    FRAG     MASS         X           Y           Z
   0 Li    3.0000    0     6.941    0.000000    0.000000    0.000000
   1 H     1.0000    0     1.008    0.000000    0.000000    3.013924

--------------------------------
INTERNAL COORDINATES (ANGSTROEM)
--------------------------------
 Li     0   0   0     0.000000000000     0.00000000     0.00000000
 H      1   0   0     1.594900000000     0.00000000     0.00000000

---------------------------
INTERNAL COORDINATES (A.U.)
---------------------------
 Li     0   0   0     0.000000000000     0.00000000     0.00000000
 H      1   0   0     3.013924210991     0.00000000     0.00000000

---------------------
BASIS SET INFORMATION
---------------------
There are 2 groups of distinct atoms

 Group   1 Type Li  : 31s9p4d3f2g contracted to 9s5p4d3f2g pattern {12121111111/51111/1111/111/11}
 Group   2 Type H   : 12s7p4d3f2g contracted to 8s7p4d3f2g pattern {51111111/1111111/1111/111/11}

Atom   0Li   basis set group =>   1
Atom   1H    basis set group =>   2


           ************************************************************
           *        Program running with 4 parallel MPI-processes     *
           *              working on a common directory               *
           ************************************************************
------------------------------------------------------------------------------
                           ORCA GTO INTEGRAL CALCULATION
------------------------------------------------------------------------------

                         BASIS SET STATISTICS AND STARTUP INFO

 # of primitive gaussian shells          ...   77
 # of primitive gaussian functions       ...  209
 # of contracted shells                  ...   47
 # of contracted basis functions         ...  171
 Highest angular momentum                ...    4
 Maximum contraction depth               ...   12
 Integral package used                   ... LIBINT
 Integral threshhold            Thresh   ...  1.000e-12
 Primitive cut-off              TCut     ...  1.000e-14


------------------------------ INTEGRAL EVALUATION ----------------------------


 * One electron integrals 
 Pre-screening matrix                    ... done
 Shell pair data                         ... done (   0.000 sec)



           ************************************************************
           *        Program running with 4 parallel MPI-processes     *
           *              working on a common directory               *
           ************************************************************
-------------------------------------------------------------------------------
                                 ORCA SCF
-------------------------------------------------------------------------------

------------
SCF SETTINGS
------------
Hamiltonian:
 Density Functional     Method          .... DFT(GTOs)
 Exchange Functional    Exchange        .... PBE
   PBE kappa parameter   XKappa         ....  0.804000
   PBE mue parameter    XMuePBE         ....  0.219520
 Correlation Functional Correlation     .... PBE
   PBE beta parameter  CBetaPBE         ....  0.066725
 LDA part of GGA corr.  LDAOpt          .... PW91-LDA
 Gradients option       PostSCFGGA      .... off
   Density functional embedding theory  .... OFF
   NL short-range parameter             ....  6.400000


General Settings:
 Integral files         IntName         .... lih_pbe
 Hartree-Fock type      HFTyp           .... UHF
 Total Charge           Charge          ....    0
 Multiplicity           Mult            ....    1
 Number of Electrons    NEL             ....    4
 Basis Dimension        Dim             ....  171
 Nuclear Repulsion      ENuc            ....      0.9953800394 Eh

Convergence Acceleration:
 DIIS                   CNVDIIS         .... on
   Start iteration      DIISMaxIt       ....    12
   Startup error        DIISStart       ....  0.200000
   # of expansion vecs  DIISMaxEq       ....     5
   Bias factor          DIISBfac        ....   1.050
   Max. coefficient     DIISMaxC        ....  10.000
 Newton-Raphson         CNVNR           .... off
 SOSCF                  CNVSOSCF        .... off
 Level Shifting         CNVShift        .... on
   Level shift para.    LevelShift      ....    0.2500
   Turn off err/grad.   ShiftErr        ....    0.0010
 Zerner damping         CNVZerner       .... off
 Static damping         CNVDamp         .... on
   Fraction old density DampFac         ....    0.7000
   Max. Damping (<1)    DampMax         ....    0.9800
   Min. Damping (>=0)   DampMin         ....    0.0000
   Turn off err/grad.   DampErr         ....    0.1000
 Fernandez-Rico         CNVRico         .... off

SCF Procedure:
 Maximum # iterations   MaxIter         ....   200
 SCF integral mode      SCFMode         .... Direct
   Integral package                     .... LIBINT
 Reset frequency        DirectResetFreq ....    20
 Integral Threshold     Thresh          ....  1.000e-12 Eh
 Primitive CutOff       TCut            ....  1.000e-14 Eh

Convergence Tolerance:
 Convergence Check Mode ConvCheckMode   .... Total+1el-Energy
 Convergence forced     ConvForced      .... 0
 Energy Change          TolE            ....  1.000e-09 Eh
 1-El. energy change                    ....  1.000e-06 Eh
 DIIS Error             TolErr          ....  1.000e-08


Diagonalization of the overlap matrix:
Smallest eigenvalue                        ... 1.234e-05
Time for diagonalization                   ...    0.006 sec
Threshold for overlap eigenvalues          ... 1.000e-08
Number of eigenvalues below threshold      ... 0
Time for construction of square roots      ...    0.006 sec
Total time needed                          ...    0.012 sec

-------------------
DFT GRID GENERATION
-------------------

General Integration Accuracy     IntAcc      ...  5.010
Radial Grid Type                 RadialGrid  ... Gauss-Chebyshev
Angular Grid (max. acc.)         AngularGrid ... Lebedev-434
Angular grid pruning method      GridPruning ... 3 (G Style)
Weight generation scheme         WeightScheme... Becke
Basis function cutoff            BFCut       ...    1.0000e-12
Integration weight cutoff        WCut        ...    1.0000e-14
Grids for H and He will be reduced by one unit

# of grid points (after initial pruning)     ...  17054 (   0.0 sec)
# of grid points (after weights+screening)   ...  16987 (   0.0 sec)
nearest neighbour list constructed           ...    0.0 sec
Grid point re-assignment to atoms done       ...    0.0 sec
Grid point division into batches done        ...    0.1 sec
Reduced shell lists constructed in    0.1 sec

Total number of grid points                  ...    16987
Total number of batches                      ...      266
Average number of points per batch           ...       63
Average number of grid points per atom       ...     8494
Average number of shells per batch           ...    27.75 (59.04%)
Average number of basis functions per batch  ...    99.07 (57.94%)
Average number of large shells per batch     ...    23.99 (86.43%)
Average number of large basis fcns per batch ...    86.57 (87.38%)
Maximum spatial batch extension              ...  32.58, 32.58, 30.97 au
Average spatial batch extension              ...   2.87,  2.87,  2.36 au

Time for grid setup =    0.172 sec

------------------------------
INITIAL GUESS: MODEL POTENTIAL
------------------------------
Loading Hartree-Fock densities                     ... done
Calculating cut-offs                               ... done
Setting up the integral package                    ... done
Initializing the effective Hamiltonian             ... done
Starting the Coulomb interaction                   ... done (   0.0 sec)
Reading the grid                                   ... done
Mapping shells                                     ... done
Starting the XC term evaluation                    ... done (   0.1 sec)
  promolecular density results
     # of electrons  =      3.999512306
     EX              =     -2.015322660
     EC              =     -0.076066767
     EX+EC           =     -2.091389427
Transforming the Hamiltonian                       ... done (   0.0 sec)
Diagonalizing the Hamiltonian                      ... done (   0.0 sec)
Back transforming the eigenvectors                 ... done (   0.0 sec)
Now organizing SCF variables                       ... done
                      ------------------
                      INITIAL GUESS DONE (   0.4 sec)
                      ------------------
--------------
SCF ITERATIONS
--------------
ITER       Energy         Delta-E        Max-DP      RMS-DP      [F,P]     Damp
               ***  Starting incremental Fock matrix formation  ***
  0     -8.0106342371   0.000000000000 0.01438800  0.00022052  0.2033003 0.7000
  1     -8.0246754161  -0.014041178952 0.01224962  0.00018977  0.1316468 0.7000
                               ***Turning on DIIS***
  2     -8.0338253524  -0.009149936275 0.03343665  0.00045136  0.0688500 0.0000
  3     -8.0437131727  -0.009887820303 0.01416433  0.00015878  0.0636964 0.0000
  4     -8.0465012990  -0.002788126336 0.00798092  0.00007855  0.0273145 0.0000
  5     -8.0471240837  -0.000622784696 0.00338037  0.00003537  0.0120968 0.0000
  6     -8.0472724099  -0.000148326204 0.00120719  0.00001766  0.0055912 0.0000
  7     -8.0473091831  -0.000036773247 0.00070473  0.00001064  0.0026985 0.0000
  8     -8.0473194220  -0.000010238905 0.00043088  0.00000665  0.0013932 0.0000
  9     -8.0473225165  -0.000003094414 0.00054856  0.00001022  0.0008267 0.0000
 10     -8.0473244398  -0.000001923297 0.00006647  0.00000098  0.0001573 0.0000
 11     -8.0473244685  -0.000000028690 0.00001581  0.00000019  0.0000139 0.0000
 12     -8.0473244687  -0.000000000220 0.00000082  0.00000001  0.0000021 0.0000
                 **** Energy Check signals convergence ****

               *****************************************************
               *                     SUCCESS                       *
               *           SCF CONVERGED AFTER  13 CYCLES          *
               *****************************************************


----------------
TOTAL SCF ENERGY
----------------

Total Energy       :           -8.04732447 Eh            -218.97883 eV

Components:
Nuclear Repulsion  :            0.99538004 Eh              27.08567 eV
Electronic Energy  :           -9.04270451 Eh            -246.06450 eV
One Electron Energy:          -12.45166394 Eh            -338.82700 eV
Two Electron Energy:            3.40895943 Eh              92.76250 eV

Virial components:
Potential Energy   :          -16.02625597 Eh            -436.09660 eV
Kinetic Energy     :            7.97893150 Eh             217.11776 eV
Virial Ratio       :            2.00857170


DFT components:
N(Alpha)           :        2.000000869620 electrons
N(Beta)            :        2.000000869620 electrons
N(Total)           :        4.000001739240 electrons
E(X)               :       -2.105076842125 Eh       
E(C)               :       -0.083218273361 Eh       
E(XC)              :       -2.188295115486 Eh       
DFET-embed. en.    :        0.000000000000 Eh       

---------------
SCF CONVERGENCE
---------------

  Last Energy change         ...   -6.0698e-12  Tolerance :   1.0000e-09
  Last MAX-Density change    ...    1.7320e-07  Tolerance :   1.0000e-08
  Last RMS-Density change    ...    3.3832e-09  Tolerance :   1.0000e-09
  Last DIIS Error            ...    2.0383e-07  Tolerance :   1.0000e-08

             **** THE GBW FILE WAS UPDATED (lih_pbe.gbw) ****
             **** DENSITY FILE WAS UPDATED (lih_pbe.scfp.tmp) ****
             **** ENERGY FILE WAS UPDATED (lih_pbe.en.tmp) ****
----------------------
UHF SPIN CONTAMINATION
----------------------

Warning: in a DFT calculation there is little theoretical justification to 
         calculate <S**2> as in Hartree-Fock theory. We will do it anyways
         but you should keep in mind that the values have only limited relevance

Expectation value of <S**2>     :     0.000000
Ideal value S*(S+1) for S=0.0   :     0.000000
Deviation                       :     0.000000

----------------
ORBITAL ENERGIES
----------------
                 SPIN UP ORBITALS
  NO   OCC          E(Eh)            E(eV) 
   0   1.0000      -1.868417       -50.8422 
   1   1.0000      -0.160296        -4.3619 
   2   0.0000      -0.058843        -1.6012 
   3   0.0000      -0.016373        -0.4455 
   4   0.0000      -0.016373        -0.4455 
   5   0.0000       0.003641         0.0991 
   6   0.0000       0.011478         0.3123 
   7   0.0000       0.020786         0.5656 
   8   0.0000       0.020786         0.5656 
   9   0.0000       0.035111         0.9554 
  10   0.0000       0.040149         1.0925 
  11   0.0000       0.045493         1.2379 
  12   0.0000       0.045838         1.2473 
  13   0.0000       0.045838         1.2473 
  14   0.0000       0.047154         1.2831 
  15   0.0000       0.047154         1.2831 
  16   0.0000       0.087011         2.3677 
  17   0.0000       0.095639         2.6025 
  18   0.0000       0.095639         2.6025 
  19   0.0000       0.099495         2.7074 
  20   0.0000       0.099495         2.7074 
  21   0.0000       0.100218         2.7271 
  22   0.0000       0.100218         2.7271 
  23   0.0000       0.101444         2.7604 
  24   0.0000       0.101444         2.7604 
  25   0.0000       0.114614         3.1188 
  26   0.0000       0.117963         3.2099 
  27   0.0000       0.125341         3.4107 
  28   0.0000       0.144622         3.9354 
  29   0.0000       0.144622         3.9354 
  30   0.0000       0.158750         4.3198 
  31   0.0000       0.159587         4.3426 
  32   0.0000       0.159587         4.3426 
  33   0.0000       0.161683         4.3996 
  34   0.0000       0.161683         4.3996 
  35   0.0000       0.164368         4.4727 
  36   0.0000       0.164368         4.4727 
  37   0.0000       0.165980         4.5165 
  38   0.0000       0.165980         4.5165 
  39   0.0000       0.206656         5.6234 
  40   0.0000       0.206656         5.6234 
  41   0.0000       0.217811         5.9269 
  42   0.0000       0.262809         7.1514 
  43   0.0000       0.274297         7.4640 
  44   0.0000       0.275066         7.4849 
  45   0.0000       0.275066         7.4849 
  46   0.0000       0.317617         8.6428 
  47   0.0000       0.332711         9.0535 
  48   0.0000       0.332711         9.0535 
  49   0.0000       0.348940         9.4951 
  50   0.0000       0.348940         9.4951 
  51   0.0000       0.368719        10.0333 
  52   0.0000       0.368719        10.0333 
  53   0.0000       0.382965        10.4210 
  54   0.0000       0.382965        10.4210 
  55   0.0000       0.412008        11.2113 
  56   0.0000       0.442105        12.0303 
  57   0.0000       0.442105        12.0303 
  58   0.0000       0.446226        12.1424 
  59   0.0000       0.446226        12.1424 
  60   0.0000       0.459779        12.5112 
  61   0.0000       0.517887        14.0924 
  62   0.0000       0.517887        14.0924 
  63   0.0000       0.535854        14.5813 
  64   0.0000       0.545259        14.8373 
  65   0.0000       0.545259        14.8373 
  66   0.0000       0.583754        15.8848 
  67   0.0000       0.583755        15.8848 
  68   0.0000       0.596045        16.2192 
  69   0.0000       0.600362        16.3367 
  70   0.0000       0.600362        16.3367 
  71   0.0000       0.607527        16.5317 
  72   0.0000       0.622070        16.9274 
  73   0.0000       0.622070        16.9274 
  74   0.0000       0.756566        20.5872 
  75   0.0000       0.766581        20.8597 
  76   0.0000       0.766581        20.8597 
  77   0.0000       0.821635        22.3578 
  78   0.0000       0.867603        23.6087 
  79   0.0000       0.867603        23.6087 
  80   0.0000       0.956524        26.0283 
  81   0.0000       0.956524        26.0283 
  82   0.0000       1.034523        28.1508 
  83   0.0000       1.061648        28.8889 
  84   0.0000       1.061648        28.8889 
  85   0.0000       1.070921        29.1412 
  86   0.0000       1.070921        29.1412 
  87   0.0000       1.147020        31.2120 
  88   0.0000       1.191300        32.4169 
  89   0.0000       1.191300        32.4169 
  90   0.0000       1.215773        33.0829 
  91   0.0000       1.215773        33.0829 
  92   0.0000       1.404733        38.2247 
  93   0.0000       1.422554        38.7097 
  94   0.0000       1.422554        38.7097 
  95   0.0000       1.488058        40.4921 
  96   0.0000       1.550690        42.1964 
  97   0.0000       1.550690        42.1964 
  98   0.0000       1.671441        45.4822 
  99   0.0000       1.883362        51.2489 
 100   0.0000       2.212044        60.1928 
 101   0.0000       2.320584        63.1463 
 102   0.0000       2.320586        63.1463 
 103   0.0000       2.383123        64.8481 
 104   0.0000       2.383123        64.8481 
 105   0.0000       2.420300        65.8597 
 106   0.0000       2.420300        65.8597 
 107   0.0000       2.646658        72.0192 
 108   0.0000       2.668061        72.6016 
 109   0.0000       2.668061        72.6016 
 110   0.0000       2.685087        73.0649 
 111   0.0000       2.685088        73.0650 
 112   0.0000       2.749782        74.8254 
 113   0.0000       2.749786        74.8255 
 114   0.0000       3.009536        81.8936 
 115   0.0000       3.009536        81.8936 
 116   0.0000       3.062779        83.3425 
 117   0.0000       3.066379        83.4404 
 118   0.0000       3.066390        83.4407 
 119   0.0000       3.331893        90.6654 
 120   0.0000       3.418049        93.0098 
 121   0.0000       3.418049        93.0098 
 122   0.0000       3.604714        98.0893 
 123   0.0000       3.604714        98.0893 
 124   0.0000       3.667866        99.8077 
 125   0.0000       3.667866        99.8077 
 126   0.0000       3.760333       102.3238 
 127   0.0000       3.964910       107.8907 
 128   0.0000       4.169830       113.4668 
 129   0.0000       4.169859       113.4676 
 130   0.0000       4.500455       122.4636 
 131   0.0000       4.851222       132.0085 
 132   0.0000       4.851222       132.0085 
 133   0.0000       5.227739       142.2540 
 134   0.0000       5.227739       142.2540 
 135   0.0000       5.438559       147.9907 
 136   0.0000       5.438559       147.9907 
 137   0.0000       5.905472       160.6961 
 138   0.0000       8.357594       227.4217 
 139   0.0000       8.357594       227.4217 
 140   0.0000       8.743006       237.9093 
 141   0.0000       8.858223       241.0445 
 142   0.0000       8.858427       241.0500 
 143   0.0000       9.106924       247.8120 
 144   0.0000       9.106924       247.8120 
 145   0.0000       9.247848       251.6467 
 146   0.0000      10.306840       280.4634 
 147   0.0000      10.693247       290.9780 
 148   0.0000      12.383084       336.9609 
 149   0.0000      12.383084       336.9609 
 150   0.0000      12.579956       342.3180 
 151   0.0000      12.580484       342.3324 
 152   0.0000      12.854110       349.7781 
 153   0.0000      12.946693       352.2974 
 154   0.0000      12.946693       352.2974 
 155   0.0000      16.895070       459.7382 
 156   0.0000      16.895070       459.7382 
 157   0.0000      16.896720       459.7831 
 158   0.0000      16.898904       459.8425 
 159   0.0000      16.924144       460.5294 
 160   0.0000      16.925675       460.5710 
 161   0.0000      16.940106       460.9637 
 162   0.0000      17.002003       462.6480 
 163   0.0000      17.002003       462.6480 
 164   0.0000      23.254166       632.7780 
 165   0.0000      23.254166       632.7780 
 166   0.0000      23.644547       643.4008 
 167   0.0000      38.672511      1052.3325 
 168   0.0000      90.944834      2474.7347 
 169   0.0000      90.944834      2474.7347 
 170   0.0000      91.221729      2482.2694 

                 SPIN DOWN ORBITALS
  NO   OCC          E(Eh)            E(eV) 
   0   1.0000      -1.868417       -50.8422 
   1   1.0000      -0.160296        -4.3619 
   2   0.0000      -0.058843        -1.6012 
   3   0.0000      -0.016373        -0.4455 
   4   0.0000      -0.016373        -0.4455 
   5   0.0000       0.003641         0.0991 
   6   0.0000       0.011478         0.3123 
   7   0.0000       0.020786         0.5656 
   8   0.0000       0.020786         0.5656 
   9   0.0000       0.035111         0.9554 
  10   0.0000       0.040149         1.0925 
  11   0.0000       0.045493         1.2379 
  12   0.0000       0.045838         1.2473 
  13   0.0000       0.045838         1.2473 
  14   0.0000       0.047154         1.2831 
  15   0.0000       0.047154         1.2831 
  16   0.0000       0.087011         2.3677 
  17   0.0000       0.095639         2.6025 
  18   0.0000       0.095639         2.6025 
  19   0.0000       0.099495         2.7074 
  20   0.0000       0.099495         2.7074 
  21   0.0000       0.100218         2.7271 
  22   0.0000       0.100218         2.7271 
  23   0.0000       0.101444         2.7604 
  24   0.0000       0.101444         2.7604 
  25   0.0000       0.114614         3.1188 
  26   0.0000       0.117963         3.2099 
  27   0.0000       0.125341         3.4107 
  28   0.0000       0.144622         3.9354 
  29   0.0000       0.144622         3.9354 
  30   0.0000       0.158750         4.3198 
  31   0.0000       0.159587         4.3426 
  32   0.0000       0.159587         4.3426 
  33   0.0000       0.161683         4.3996 
  34   0.0000       0.161683         4.3996 
  35   0.0000       0.164368         4.4727 
  36   0.0000       0.164368         4.4727 
  37   0.0000       0.165980         4.5165 
  38   0.0000       0.165980         4.5165 
  39   0.0000       0.206656         5.6234 
  40   0.0000       0.206656         5.6234 
  41   0.0000       0.217811         5.9269 
  42   0.0000       0.262809         7.1514 
  43   0.0000       0.274297         7.4640 
  44   0.0000       0.275066         7.4849 
  45   0.0000       0.275066         7.4849 
  46   0.0000       0.317617         8.6428 
  47   0.0000       0.332711         9.0535 
  48   0.0000       0.332711         9.0535 
  49   0.0000       0.348940         9.4951 
  50   0.0000       0.348940         9.4951 
  51   0.0000       0.368719        10.0333 
  52   0.0000       0.368719        10.0333 
  53   0.0000       0.382965        10.4210 
  54   0.0000       0.382965        10.4210 
  55   0.0000       0.412008        11.2113 
  56   0.0000       0.442105        12.0303 
  57   0.0000       0.442105        12.0303 
  58   0.0000       0.446226        12.1424 
  59   0.0000       0.446226        12.1424 
  60   0.0000       0.459779        12.5112 
  61   0.0000       0.517887        14.0924 
  62   0.0000       0.517887        14.0924 
  63   0.0000       0.535854        14.5813 
  64   0.0000       0.545259        14.8373 
  65   0.0000       0.545259        14.8373 
  66   0.0000       0.583754        15.8848 
  67   0.0000       0.583755        15.8848 
  68   0.0000       0.596045        16.2192 
  69   0.0000       0.600362        16.3367 
  70   0.0000       0.600362        16.3367 
  71   0.0000       0.607527        16.5317 
  72   0.0000       0.622070        16.9274 
  73   0.0000       0.622070        16.9274 
  74   0.0000       0.756566        20.5872 
  75   0.0000       0.766581        20.8597 
  76   0.0000       0.766581        20.8597 
  77   0.0000       0.821635        22.3578 
  78   0.0000       0.867603        23.6087 
  79   0.0000       0.867603        23.6087 
  80   0.0000       0.956524        26.0283 
  81   0.0000       0.956524        26.0283 
  82   0.0000       1.034523        28.1508 
  83   0.0000       1.061648        28.8889 
  84   0.0000       1.061648        28.8889 
  85   0.0000       1.070921        29.1412 
  86   0.0000       1.070921        29.1412 
  87   0.0000       1.147020        31.2120 
  88   0.0000       1.191300        32.4169 
  89   0.0000       1.191300        32.4169 
  90   0.0000       1.215773        33.0829 
  91   0.0000       1.215773        33.0829 
  92   0.0000       1.404733        38.2247 
  93   0.0000       1.422554        38.7097 
  94   0.0000       1.422554        38.7097 
  95   0.0000       1.488058        40.4921 
  96   0.0000       1.550690        42.1964 
  97   0.0000       1.550690        42.1964 
  98   0.0000       1.671441        45.4822 
  99   0.0000       1.883362        51.2489 
 100   0.0000       2.212044        60.1928 
 101   0.0000       2.320584        63.1463 
 102   0.0000       2.320586        63.1463 
 103   0.0000       2.383123        64.8481 
 104   0.0000       2.383123        64.8481 
 105   0.0000       2.420300        65.8597 
 106   0.0000       2.420300        65.8597 
 107   0.0000       2.646658        72.0192 
 108   0.0000       2.668061        72.6016 
 109   0.0000       2.668061        72.6016 
 110   0.0000       2.685087        73.0649 
 111   0.0000       2.685088        73.0650 
 112   0.0000       2.749782        74.8254 
 113   0.0000       2.749786        74.8255 
 114   0.0000       3.009536        81.8936 
 115   0.0000       3.009536        81.8936 
 116   0.0000       3.062779        83.3425 
 117   0.0000       3.066379        83.4404 
 118   0.0000       3.066390        83.4407 
 119   0.0000       3.331893        90.6654 
 120   0.0000       3.418049        93.0098 
 121   0.0000       3.418049        93.0098 
 122   0.0000       3.604714        98.0893 
 123   0.0000       3.604714        98.0893 
 124   0.0000       3.667866        99.8077 
 125   0.0000       3.667866        99.8077 
 126   0.0000       3.760333       102.3238 
 127   0.0000       3.964910       107.8907 
 128   0.0000       4.169830       113.4668 
 129   0.0000       4.169859       113.4676 
 130   0.0000       4.500455       122.4636 
 131   0.0000       4.851222       132.0085 
 132   0.0000       4.851222       132.0085 
 133   0.0000       5.227739       142.2540 
 134   0.0000       5.227739       142.2540 
 135   0.0000       5.438559       147.9907 
 136   0.0000       5.438559       147.9907 
 137   0.0000       5.905472       160.6961 
 138   0.0000       8.357594       227.4217 
 139   0.0000       8.357594       227.4217 
 140   0.0000       8.743006       237.9093 
 141   0.0000       8.858223       241.0445 
 142   0.0000       8.858427       241.0500 
 143   0.0000       9.106924       247.8120 
 144   0.0000       9.106924       247.8120 
 145   0.0000       9.247848       251.6467 
 146   0.0000      10.306840       280.4634 
 147   0.0000      10.693247       290.9780 
 148   0.0000      12.383084       336.9609 
 149   0.0000      12.383084       336.9609 
 150   0.0000      12.579956       342.3180 
 151   0.0000      12.580484       342.3324 
 152   0.0000      12.854110       349.7781 
 153   0.0000      12.946693       352.2974 
 154   0.0000      12.946693       352.2974 
 155   0.0000      16.895070       459.7382 
 156   0.0000      16.895070       459.7382 
 157   0.0000      16.896720       459.7831 
 158   0.0000      16.898904       459.8425 
 159   0.0000      16.924144       460.5294 
 160   0.0000      16.925675       460.5710 
 161   0.0000      16.940106       460.9637 
 162   0.0000      17.002003       462.6480 
 163   0.0000      17.002003       462.6480 
 164   0.0000      23.254166       632.7780 
 165   0.0000      23.254166       632.7780 
 166   0.0000      23.644547       643.4008 
 167   0.0000      38.672511      1052.3325 
 168   0.0000      90.944834      2474.7347 
 169   0.0000      90.944834      2474.7347 
 170   0.0000      91.221729      2482.2694 

                    ********************************
                    * MULLIKEN POPULATION ANALYSIS *
                    ********************************

--------------------------------------------
MULLIKEN ATOMIC CHARGES AND SPIN POPULATIONS
--------------------------------------------
   0 Li:    0.560888    0.000000
   1 H :   -0.560888   -0.000000
Sum of atomic charges         :    0.0000000
Sum of atomic spin populations:   -0.0000000

-----------------------------------------------------
MULLIKEN REDUCED ORBITAL CHARGES AND SPIN POPULATIONS
-----------------------------------------------------
CHARGE
  0 Lis       :     2.260291  s :     2.260291
      pz      :     0.171468  p :     0.171468
      px      :     0.000000
      py      :    -0.000000
      dz2     :     0.006968  d :     0.006968
      dxz     :     0.000000
      dyz     :     0.000000
      dx2y2   :    -0.000000
      dxy     :     0.000000
      f0      :     0.000400  f :     0.000400
      f+1     :     0.000000
      f-1     :     0.000000
      f+2     :     0.000000
      f-2     :     0.000000
      f+3     :     0.000000
      f-3     :     0.000000
      g0      :    -0.000014  g :    -0.000014
      g+1     :     0.000000
      g-1     :     0.000000
      g+2     :     0.000000
      g-2     :     0.000000
      g+3     :     0.000000
      g-3     :     0.000000
      g+4     :     0.000000
      g-4     :     0.000000
  1 H s       :     1.537197  s :     1.537197
      pz      :     0.020316  p :     0.020316
      px      :    -0.000000
      py      :     0.000000
      dz2     :     0.003006  d :     0.003006
      dxz     :    -0.000000
      dyz     :    -0.000000
      dx2y2   :     0.000000
      dxy     :    -0.000000
      f0      :     0.000363  f :     0.000363
      f+1     :    -0.000000
      f-1     :     0.000000
      f+2     :     0.000000
      f-2     :    -0.000000
      f+3     :     0.000000
      f-3     :    -0.000000
      g0      :     0.000006  g :     0.000006
      g+1     :    -0.000000
      g-1     :    -0.000000
      g+2     :    -0.000000
      g-2     :     0.000000
      g+3     :     0.000000
      g-3     :     0.000000
      g+4     :     0.000000
      g-4     :     0.000000

SPIN
  0 Lis       :     0.000000  s :     0.000000
      pz      :     0.000000  p :     0.000000
      px      :     0.000000
      py      :    -0.000000
      dz2     :     0.000000  d :     0.000000
      dxz     :     0.000000
      dyz     :    -0.000000
      dx2y2   :     0.000000
      dxy     :    -0.000000
      f0      :    -0.000000  f :    -0.000000
      f+1     :    -0.000000
      f-1     :     0.000000
      f+2     :    -0.000000
      f-2     :    -0.000000
      f+3     :    -0.000000
      f-3     :    -0.000000
      g0      :    -0.000000  g :    -0.000000
      g+1     :     0.000000
      g-1     :    -0.000000
      g+2     :    -0.000000
      g-2     :    -0.000000
      g+3     :    -0.000000
      g-3     :     0.000000
      g+4     :    -0.000000
      g-4     :    -0.000000
  1 H s       :    -0.000000  s :    -0.000000
      pz      :     0.000000  p :     0.000000
      px      :    -0.000000
      py      :    -0.000000
      dz2     :     0.000000  d :     0.000000
      dxz     :    -0.000000
      dyz     :     0.000000
      dx2y2   :    -0.000000
      dxy     :     0.000000
      f0      :    -0.000000  f :    -0.000000
      f+1     :    -0.000000
      f-1     :     0.000000
      f+2     :     0.000000
      f-2     :     0.000000
      f+3     :     0.000000
      f-3     :     0.000000
      g0      :    -0.000000  g :    -0.000000
      g+1     :     0.000000
      g-1     :     0.000000
      g+2     :     0.000000
      g-2     :    -0.000000
      g+3     :     0.000000
      g-3     :     0.000000
      g+4     :    -0.000000
      g-4     :    -0.000000


                     *******************************
                     * LOEWDIN POPULATION ANALYSIS *
                     *******************************

-------------------------------------------
LOEWDIN ATOMIC CHARGES AND SPIN POPULATIONS
-------------------------------------------
   0 Li:    0.265623    0.000000
   1 H :   -0.265623   -0.000000

----------------------------------------------------
LOEWDIN REDUCED ORBITAL CHARGES AND SPIN POPULATIONS
----------------------------------------------------
CHARGE
  0 Lis       :     2.377597  s :     2.377597
      pz      :     0.284108  p :     0.284108
      px      :     0.000000
      py      :     0.000000
      dz2     :     0.056110  d :     0.056110
      dxz     :     0.000000
      dyz     :     0.000000
      dx2y2   :     0.000000
      dxy     :     0.000000
      f0      :     0.015060  f :     0.015060
      f+1     :     0.000000
      f-1     :     0.000000
      f+2     :     0.000000
      f-2     :     0.000000
      f+3     :     0.000000
      f-3     :     0.000000
      g0      :     0.001502  g :     0.001502
      g+1     :     0.000000
      g-1     :     0.000000
      g+2     :     0.000000
      g-2     :     0.000000
      g+3     :     0.000000
      g-3     :     0.000000
      g+4     :     0.000000
      g-4     :     0.000000
  1 H s       :     1.191374  s :     1.191374
      pz      :     0.026700  p :     0.026700
      px      :     0.000000
      py      :     0.000000
      dz2     :     0.027553  d :     0.027553
      dxz     :     0.000000
      dyz     :     0.000000
      dx2y2   :     0.000000
      dxy     :     0.000000
      f0      :     0.011686  f :     0.011686
      f+1     :     0.000000
      f-1     :     0.000000
      f+2     :     0.000000
      f-2     :     0.000000
      f+3     :     0.000000
      f-3     :     0.000000
      g0      :     0.008310  g :     0.008310
      g+1     :     0.000000
      g-1     :     0.000000
      g+2     :     0.000000
      g-2     :     0.000000
      g+3     :     0.000000
      g-3     :     0.000000
      g+4     :     0.000000
      g-4     :     0.000000

SPIN
  0 Lis       :     0.000000  s :     0.000000
      pz      :     0.000000  p :     0.000000
      px      :     0.000000
      py      :    -0.000000
      dz2     :    -0.000000  d :    -0.000000
      dxz     :    -0.000000
      dyz     :    -0.000000
      dx2y2   :     0.000000
      dxy     :    -0.000000
      f0      :     0.000000  f :     0.000000
      f+1     :     0.000000
      f-1     :    -0.000000
      f+2     :     0.000000
      f-2     :    -0.000000
      f+3     :    -0.000000
      f-3     :    -0.000000
      g0      :    -0.000000  g :    -0.000000
      g+1     :     0.000000
      g-1     :    -0.000000
      g+2     :    -0.000000
      g-2     :    -0.000000
      g+3     :    -0.000000
      g-3     :     0.000000
      g+4     :    -0.000000
      g-4     :    -0.000000
  1 H s       :    -0.000000  s :    -0.000000
      pz      :     0.000000  p :     0.000000
      px      :    -0.000000
      py      :    -0.000000
      dz2     :     0.000000  d :     0.000000
      dxz     :    -0.000000
      dyz     :     0.000000
      dx2y2   :    -0.000000
      dxy     :     0.000000
      f0      :     0.000000  f :     0.000000
      f+1     :     0.000000
      f-1     :    -0.000000
      f+2     :    -0.000000
      f-2     :     0.000000
      f+3     :     0.000000
      f-3     :    -0.000000
      g0      :     0.000000  g :     0.000000
      g+1     :     0.000000
      g-1     :     0.000000
      g+2     :    -0.000000
      g-2     :    -0.000000
      g+3     :     0.000000
      g-3     :     0.000000
      g+4     :    -0.000000
      g-4     :    -0.000000


                      *****************************
                      * MAYER POPULATION ANALYSIS *
                      *****************************

  NA   - Mulliken gross atomic population
  ZA   - Total nuclear charge
  QA   - Mulliken gross atomic charge
  VA   - Mayer's total valence
  BVA  - Mayer's bonded valence
  FA   - Mayer's free valence

  ATOM       NA         ZA         QA         VA         BVA        FA
  0 Li     2.4391     3.0000     0.5609     0.7346     0.7346     0.0000
  1 H      1.5609     1.0000    -0.5609     0.7346     0.7346     0.0000

  Mayer bond orders larger than 0.1
B(  0-Li,  1-H ) :   0.7346 

-------
TIMINGS
-------

Total SCF time: 0 days 0 hours 0 min 39 sec 

Total time                  ....      39.766 sec
Sum of individual times     ....      39.289 sec  ( 98.8%)

Fock matrix formation       ....      38.384 sec  ( 96.5%)
  XC integration            ....       2.895 sec  (  7.5% of F)
    Basis function eval.    ....       0.280 sec  (  9.7% of XC)
    Density eval.           ....       0.523 sec  ( 18.1% of XC)
    XC-Functional eval.     ....       0.110 sec  (  3.8% of XC)
    XC-Potential eval.      ....       1.580 sec  ( 54.6% of XC)
Diagonalization             ....       0.268 sec  (  0.7%)
Density matrix formation    ....       0.006 sec  (  0.0%)
Population analysis         ....       0.069 sec  (  0.2%)
Initial guess               ....       0.217 sec  (  0.5%)
Orbital Transformation      ....       0.000 sec  (  0.0%)
Orbital Orthonormalization  ....       0.000 sec  (  0.0%)
DIIS solution               ....       0.174 sec  (  0.4%)
Grid generation             ....       0.172 sec  (  0.4%)

-------------------------   --------------------
FINAL SINGLE POINT ENERGY        -8.047324468677
-------------------------   --------------------


                            ***************************************
                            *     ORCA property calculations      *
                            ***************************************

                                    ---------------------
                                    Active property flags
                                    ---------------------
   (+) Dipole Moment
   (+) Polarizability


------------------------------------------------------------------------------
                       ORCA ELECTRIC PROPERTIES CALCULATION
------------------------------------------------------------------------------

Dipole Moment Calculation                       ... on
Quadrupole Moment Calculation                   ... off
Polarizability Calculation                      ... Analytic (CP-SCF)
GBWName                                         ... lih_pbe.gbw
Electron density file                           ... lih_pbe.scfp.tmp
The origin for moment calculation is the CENTER OF MASS  = ( 0.000000,  0.000000  0.382191)

-------------
DIPOLE MOMENT
-------------
                                X             Y             Z
Electronic contribution:      0.00000      -0.00000      -3.69445
Nuclear contribution   :      0.00000       0.00000       1.48516
                        -----------------------------------------
Total Dipole Moment    :      0.00000      -0.00000      -2.20929
                        -----------------------------------------
Magnitude (a.u.)       :      2.20929
Magnitude (Debye)      :      5.61556



--------------------
Rotational spectrum 
--------------------
 
Rotational constants in cm-1:     0.000000     7.529392     7.529392 
Rotational constants in MHz :     0.000000 225725.492015 225725.492015 

 Dipole components along the rotational axes: 
x,y,z [a.u.] :    -2.209285    -0.000000     0.000000 
x,y,z [Debye]:    -5.615557    -0.000000     0.000000 

 
Transforming and storing MO dipole integrals   ... done

                ... starting polarizability calculation

Opening the Dipole integral file               ... (lih_pbe.dmo.tmp) done
Reading Dipole-MO integrals                    ... done
Solving CP-SCF equations                       ... 

           ************************************************************
           *        Program running with 4 parallel MPI-processes     *
           *              working on a common directory               *
           ************************************************************

------------------------------------------------------------------------------
                           ORCA CP-SCF CALCULATION
------------------------------------------------------------------------------

Input orbitals are from        ... lih_pbe.gbw
Input Perturbation             ... lih_pbe.cpv.tmp
Wavefunction output            ... lih_pbe.cpu.tmp
Perturbation mode              ... Real perturbation (singlet)
Solver                         ... POPLE
Max. number of iterations      ... 200
Convergence tolerance          ... 1.000e-06
Integral handling              ... Direct
Number of perturbations        ... 3
Number of operators            ... 2
Orbital ranges used for CP-SCF:
 Operator 0:  Orbitals   0...  1  to   2...170
 Operator 1:  Orbitals   0...  1  to   2...170
DFT calculation                         ... on
Exchange functional (SCF)               ... PBE
Exchange functional (CP-SCF)            ... PBE
   PBE kappa parameter  XKappa (SCF)    ...  0.804000
   PBE kappa parameter  XKappa (CP-SCF) ...  0.804000
   PBE mue parameter   XMuePBE (SCF)    ...  0.219520
   PBE mue parameter   XMuePBE (CP-SCF) ...  0.219520
Correlation functional (SCF)            ... PBE
Correlation functional (CP-SCF)         ... PBE
   PBE beta parameter CBetaPBE (SCF)    ...  0.066725
   PBE beta parameter CBetaPBE (CP-SCF) ...  0.066725
 LDA part of GGA corr.  LDAOpt (SCF)    ... PW91-LDA
 LDA part of GGA corr.  LDAOpt (CP-SCF) ... PW91-LDA
Variables per vector in CP-SCF ... 676
Number of vectors sought       ... 3
Recalculating density on grid  ... done
Calculating the xc-kernel      ... done
     CP-SCF ITERATION   0: 
     CP-SCF ITERATION   1:      0.230234255245
     CP-SCF ITERATION   2:      0.000513819015
     CP-SCF ITERATION   3:      0.000004477834
     CP-SCF ITERATION   4:      0.000000047723
done
Reading CP-SCF coefficients                    ... done
Doing the polarizability tensor   ... done
Cleaning up                                    ... done

-------------------------
THE POLARIZABILITY TENSOR
-------------------------

The raw cartesian tensor (atomic units):
   34.08407      0.00000      0.00000  
    0.00000     34.08407      0.00000  
    0.00000      0.00000     32.29048  
diagonalized tensor: 
   32.29048     34.08407     34.08407  

   -0.00000     -0.03380     -0.99943  
   -0.00000      0.99943     -0.03380  
    1.00000      0.00000     -0.00000  

Isotropic polarizability :  33.48621


Timings for individual modules:

Sum of individual times         ...       62.019 sec (=   1.034 min)
GTO integral calculation        ...        0.846 sec (=   0.014 min)   1.4 %
SCF iterations                  ...       40.167 sec (=   0.669 min)  64.8 %
Solution of CP-SCF eqns.        ...       21.007 sec (=   0.350 min)  33.9 %
                             ****ORCA TERMINATED NORMALLY****
TOTAL RUN TIME: 0 days 0 hours 1 minutes 2 seconds 750 msec
