
                                 *****************
                                 * O   R   C   A *
                                 *****************

           --- An Ab Initio, DFT and Semiempirical electronic structure package ---

                  #######################################################
                  #                        -***-                        #
                  #          Department of theory and spectroscopy      #
                  #               Directorship: Frank Neese             #
                  #        Max Planck Institute fuer Kohlenforschung    #
                  #                Kaiser Wilhelm Platz 1               #
                  #                 D-45470 Muelheim/Ruhr               #
                  #                      Germany                        #
                  #                                                     #
                  #                  All rights reserved                #
                  #                        -***-                        #
                  #######################################################


                         Program Version 4.1.2  - RELEASE  -


 With contributions from (in alphabetic order):
   Daniel Aravena         : Magnetic Properties
   Michael Atanasov       : Ab Initio Ligand Field Theory
   Alexander A. Auer      : GIAO ZORA
   Ute Becker             : Parallelization
   Giovanni Bistoni       : ED, Open-shell LED
   Martin Brehm           : Molecular dynamics
   Dmytro Bykov           : SCF Hessian
   Vijay G. Chilkuri      : MRCI spin determinant printing
   Dipayan Datta          : RHF DLPNO-CCSD density
   Achintya Kumar Dutta   : EOM-CC, STEOM-CC
   Dmitry Ganyushin       : Spin-Orbit,Spin-Spin,Magnetic field MRCI
   Miquel Garcia          : C-PCM Hessian
   Yang Guo               : DLPNO-NEVPT2, CIM, IAO-localization
   Andreas Hansen         : Spin unrestricted coupled pair/coupled cluster methods
   Benjamin Helmich-Paris : CASSCF linear response (MC-RPA)
   Lee Huntington         : MR-EOM, pCC
   Robert Izsak           : Overlap fitted RIJCOSX, COSX-SCS-MP3, EOM
   Christian Kollmar      : KDIIS, OOCD, Brueckner-CCSD(T), CCSD density
   Simone Kossmann        : Meta GGA functionals, TD-DFT gradient, OOMP2, MP2 Hessian
   Martin Krupicka        : AUTO-CI
   Lucas Lang             : DCDCAS
   Dagmar Lenk            : GEPOL surface, SMD
   Dimitrios Liakos       : Extrapolation schemes; parallel MDCI
   Dimitrios Manganas     : ROCIS; embedding schemes
   Dimitrios Pantazis     : SARC Basis sets
   Taras Petrenko         : DFT Hessian,TD-DFT gradient, ASA, ECA, R-Raman, ABS, FL, XAS/XES, NRVS
   Peter Pinski           : DLPNO-MP2, DLPNO-MP2 Gradient
   Christoph Reimann      : Effective Core Potentials
   Marius Retegan         : Local ZFS, SOC
   Christoph Riplinger    : Optimizer, TS searches, QM/MM, DLPNO-CCSD(T), (RO)-DLPNO pert. Triples
   Tobias Risthaus        : Range-separated hybrids, TD-DFT gradient, RPA, STAB
   Michael Roemelt        : Restricted open shell CIS
   Masaaki Saitow         : Open-shell DLPNO
   Barbara Sandhoefer     : DKH picture change effects
   Avijit Sen             : IP-ROCIS
   Kantharuban Sivalingam : CASSCF convergence, NEVPT2, FIC-MRCI
   Bernardo de Souza      : ESD, SOC TD-DFT
   Georgi Stoychev        : AutoAux, RI-MP2 NMR
   Willem Van den Heuvel  : Paramagnetic NMR
   Boris Wezisla          : Elementary symmetry handling
   Frank Wennmohs         : Technical directorship


 We gratefully acknowledge several colleagues who have allowed us to
 interface, adapt or use parts of their codes:
   Stefan Grimme, W. Hujo, H. Kruse,             : VdW corrections, initial TS optimization,
                  C. Bannwarth                     DFT functionals, gCP, sTDA/sTD-DF
   Ed Valeev                                     : LibInt (2-el integral package), F12 methods
   Garnet Chan, S. Sharma, J. Yang, R. Olivares  : DMRG
   Ulf Ekstrom                                   : XCFun DFT Library
   Mihaly Kallay                                 : mrcc  (arbitrary order and MRCC methods)
   Andreas Klamt, Michael Diedenhofen            : otool_cosmo (COSMO solvation model)
   Jiri Pittner, Ondrej Demel                    : Mk-CCSD
   Frank Weinhold                                : gennbo (NPA and NBO analysis)
   Christopher J. Cramer and Donald G. Truhlar   : smd solvation model
   Lars Goerigk                                  : TD-DFT with DH, B97 family of functionals
   V. Asgeirsson, H. Jonsson                     : NEB implementation
   FAccTs GmbH                                   : IRC, NEB, NEB-TS, Multilevel


 Your calculation uses the libint2 library for the computation of 2-el integrals
 For citations please refer to: http://libint.valeyev.net

 This ORCA versions uses:
   CBLAS   interface :  Fast vector & matrix operations
   LAPACKE interface :  Fast linear algebra routines
   SCALAPACK package :  Parallel linear algebra routines


----- Orbital basis set information -----
Your calculation utilizes the basis: aug-pc-4
   H, C-F              : F. Jensen, J. Chem. Phys. 115, 9113 (2001).
                         F. Jensen, J. Chem. Phys. 116, 7372 (2002).
                         F. Jensen, J. Chem. Phys. 117, 9234 (2002).
   Si-Cl               : F. Jensen, T. Helgaker, J. Chem. Phys. 121, 3463 (2004).
   He-B, Ne-Mg, Al, Ar : F. Jensen, J. Phys. Chem. A 111, 11198 (2007).
   K, Ca, Ga-Kr        : F. Jensen, J. Chem. Phys. 136, 094110 (2012).
   Sc-Zn               : F. Jensen, J. Chem. Phys. 138, 014107 (2013).

================================================================================
                                        WARNINGS
                       Please study these warnings very carefully!
================================================================================


INFO   : the flag for use of LIBINT has been found!

================================================================================
                                       INPUT FILE
================================================================================
NAME = n2_pbe.inp
|  1> !uks pbe nori aug-pc-4 grid5 nofinalgrid verytightscf
|  2> 
|  3> %maxcore 1500
|  4> 
|  5> %pal nprocs 4 end
|  6> 
|  7> %scf
|  8> 	maxiter 200
|  9> end
| 10> %elprop
| 11> 	dipole true
| 12> 	 polar 1
| 13> 	 maxiter 200
| 14> end
| 15> 
| 16> * xyz 0 1
| 17> N 0.0000 0.0000 0.5488
| 18> N 0.0000 0.0000 -0.5488
| 19> *
| 20> 
| 21>                          ****END OF INPUT****
================================================================================

                       ****************************
                       * Single Point Calculation *
                       ****************************

---------------------------------
CARTESIAN COORDINATES (ANGSTROEM)
---------------------------------
  N      0.000000    0.000000    0.548800
  N      0.000000    0.000000   -0.548800

----------------------------
CARTESIAN COORDINATES (A.U.)
----------------------------
  NO LB      ZA    FRAG     MASS         X           Y           Z
   0 N     7.0000    0    14.007    0.000000    0.000000    1.037082
   1 N     7.0000    0    14.007    0.000000    0.000000   -1.037082

--------------------------------
INTERNAL COORDINATES (ANGSTROEM)
--------------------------------
 N      0   0   0     0.000000000000     0.00000000     0.00000000
 N      1   0   0     1.097600000000     0.00000000     0.00000000

---------------------------
INTERNAL COORDINATES (A.U.)
---------------------------
 N      0   0   0     0.000000000000     0.00000000     0.00000000
 N      1   0   0     2.074163404592     0.00000000     0.00000000

---------------------
BASIS SET INFORMATION
---------------------
There are 1 groups of distinct atoms

 Group   1 Type N   : 27s12p7d4f3g2h contracted to 9s8p7d4f3g2h pattern {1191111111/51111111/1111111/1111/111/11}

Atom   0N    basis set group =>   1
Atom   1N    basis set group =>   1


           ************************************************************
           *        Program running with 4 parallel MPI-processes     *
           *              working on a common directory               *
           ************************************************************
------------------------------------------------------------------------------
                           ORCA GTO INTEGRAL CALCULATION
------------------------------------------------------------------------------

                         BASIS SET STATISTICS AND STARTUP INFO

 # of primitive gaussian shells          ...  110
 # of primitive gaussian functions       ...  350
 # of contracted shells                  ...   66
 # of contracted basis functions         ...  290
 Highest angular momentum                ...    5
 Maximum contraction depth               ...   11
 Integral package used                   ... LIBINT
 Integral threshhold            Thresh   ...  1.000e-12
 Primitive cut-off              TCut     ...  1.000e-14


------------------------------ INTEGRAL EVALUATION ----------------------------


 * One electron integrals 
 Pre-screening matrix                    ... done
 Shell pair data                         ... done (   0.001 sec)



           ************************************************************
           *        Program running with 4 parallel MPI-processes     *
           *              working on a common directory               *
           ************************************************************
-------------------------------------------------------------------------------
                                 ORCA SCF
-------------------------------------------------------------------------------

------------
SCF SETTINGS
------------
Hamiltonian:
 Density Functional     Method          .... DFT(GTOs)
 Exchange Functional    Exchange        .... PBE
   PBE kappa parameter   XKappa         ....  0.804000
   PBE mue parameter    XMuePBE         ....  0.219520
 Correlation Functional Correlation     .... PBE
   PBE beta parameter  CBetaPBE         ....  0.066725
 LDA part of GGA corr.  LDAOpt          .... PW91-LDA
 Gradients option       PostSCFGGA      .... off
   Density functional embedding theory  .... OFF
   NL short-range parameter             ....  6.400000


General Settings:
 Integral files         IntName         .... n2_pbe
 Hartree-Fock type      HFTyp           .... UHF
 Total Charge           Charge          ....    0
 Multiplicity           Mult            ....    1
 Number of Electrons    NEL             ....   14
 Basis Dimension        Dim             ....  290
 Nuclear Repulsion      ENuc            ....     23.6239825134 Eh

Convergence Acceleration:
 DIIS                   CNVDIIS         .... on
   Start iteration      DIISMaxIt       ....    12
   Startup error        DIISStart       ....  0.200000
   # of expansion vecs  DIISMaxEq       ....     5
   Bias factor          DIISBfac        ....   1.050
   Max. coefficient     DIISMaxC        ....  10.000
 Newton-Raphson         CNVNR           .... off
 SOSCF                  CNVSOSCF        .... off
 Level Shifting         CNVShift        .... on
   Level shift para.    LevelShift      ....    0.2500
   Turn off err/grad.   ShiftErr        ....    0.0010
 Zerner damping         CNVZerner       .... off
 Static damping         CNVDamp         .... on
   Fraction old density DampFac         ....    0.7000
   Max. Damping (<1)    DampMax         ....    0.9800
   Min. Damping (>=0)   DampMin         ....    0.0000
   Turn off err/grad.   DampErr         ....    0.1000
 Fernandez-Rico         CNVRico         .... off

SCF Procedure:
 Maximum # iterations   MaxIter         ....   200
 SCF integral mode      SCFMode         .... Direct
   Integral package                     .... LIBINT
 Reset frequency        DirectResetFreq ....    20
 Integral Threshold     Thresh          ....  1.000e-12 Eh
 Primitive CutOff       TCut            ....  1.000e-14 Eh

Convergence Tolerance:
 Convergence Check Mode ConvCheckMode   .... Total+1el-Energy
 Convergence forced     ConvForced      .... 0
 Energy Change          TolE            ....  1.000e-09 Eh
 1-El. energy change                    ....  1.000e-06 Eh
 DIIS Error             TolErr          ....  1.000e-08


Diagonalization of the overlap matrix:
Smallest eigenvalue                        ... 1.256e-06
Time for diagonalization                   ...    0.015 sec
Threshold for overlap eigenvalues          ... 1.000e-08
Number of eigenvalues below threshold      ... 0
Time for construction of square roots      ...    0.019 sec
Total time needed                          ...    0.034 sec

-------------------
DFT GRID GENERATION
-------------------

General Integration Accuracy     IntAcc      ...  5.010
Radial Grid Type                 RadialGrid  ... Gauss-Chebyshev
Angular Grid (max. acc.)         AngularGrid ... Lebedev-434
Angular grid pruning method      GridPruning ... 3 (G Style)
Weight generation scheme         WeightScheme... Becke
Basis function cutoff            BFCut       ...    1.0000e-12
Integration weight cutoff        WCut        ...    1.0000e-14
Grids for H and He will be reduced by one unit

# of grid points (after initial pruning)     ...  21180 (   0.0 sec)
# of grid points (after weights+screening)   ...  21082 (   0.0 sec)
nearest neighbour list constructed           ...    0.0 sec
Grid point re-assignment to atoms done       ...    0.0 sec
Grid point division into batches done        ...    0.2 sec
Reduced shell lists constructed in    0.2 sec

Total number of grid points                  ...    21082
Total number of batches                      ...      330
Average number of points per batch           ...       63
Average number of grid points per atom       ...    10541
Average number of shells per batch           ...    41.23 (62.46%)
Average number of basis functions per batch  ...   189.82 (65.46%)
Average number of large shells per batch     ...    35.55 (86.23%)
Average number of large basis fcns per batch ...   165.17 (87.01%)
Maximum spatial batch extension              ...  16.29, 16.29, 13.54 au
Average spatial batch extension              ...   1.37,  1.36,  1.18 au

Time for grid setup =    0.277 sec

------------------------------
INITIAL GUESS: MODEL POTENTIAL
------------------------------
Loading Hartree-Fock densities                     ... done
Calculating cut-offs                               ... done
Setting up the integral package                    ... done
Initializing the effective Hamiltonian             ... done
Starting the Coulomb interaction                   ... done (   0.0 sec)
Reading the grid                                   ... done
Mapping shells                                     ... done
Starting the XC term evaluation                    ... done (   0.3 sec)
  promolecular density results
     # of electrons  =     13.999996573
     EX              =    -12.973831913
     EC              =     -0.447156152
     EX+EC           =    -13.420988064
Transforming the Hamiltonian                       ... done (   0.0 sec)
Diagonalizing the Hamiltonian                      ... done (   0.0 sec)
Back transforming the eigenvectors                 ... done (   0.0 sec)
Now organizing SCF variables                       ... done
                      ------------------
                      INITIAL GUESS DONE (   0.7 sec)
                      ------------------
--------------
SCF ITERATIONS
--------------
ITER       Energy         Delta-E        Max-DP      RMS-DP      [F,P]     Damp
               ***  Starting incremental Fock matrix formation  ***
  0   -109.4464985969   0.000000000000 0.00717743  0.00007032  0.0650767 0.7000
  1   -109.4524336373  -0.005935040382 0.00426293  0.00004685  0.0385894 0.7000
                               ***Turning on DIIS***
  2   -109.4552289499  -0.002795312660 0.00570002  0.00008594  0.0211828 0.0000
  3   -109.4592850085  -0.004056058598 0.00394113  0.00004096  0.0160417 0.0000
  4   -109.4602096791  -0.000924670591 0.00041123  0.00000792  0.0016377 0.0000
  5   -109.4602248445  -0.000015165323 0.00037632  0.00000522  0.0003141 0.0000
  6   -109.4602255595  -0.000000715065 0.00004138  0.00000057  0.0000488 0.0000
  7   -109.4602255637  -0.000000004191 0.00000563  0.00000006  0.0000130 0.0000
  8   -109.4602255639  -0.000000000180 0.00000076  0.00000001  0.0000009 0.0000
  9   -109.4602255639  -0.000000000003 0.00000104  0.00000001  0.0000002 0.0000
                 **** Energy Check signals convergence ****

               *****************************************************
               *                     SUCCESS                       *
               *           SCF CONVERGED AFTER  10 CYCLES          *
               *****************************************************


----------------
TOTAL SCF ENERGY
----------------

Total Energy       :         -109.46022556 Eh           -2978.56416 eV

Components:
Nuclear Repulsion  :           23.62398251 Eh             642.84125 eV
Electronic Energy  :         -133.08420808 Eh           -3621.40541 eV
One Electron Energy:         -194.58799782 Eh           -5295.00861 eV
Two Electron Energy:           61.50378974 Eh            1673.60320 eV

Virial components:
Potential Energy   :         -218.57162044 Eh           -5947.63616 eV
Kinetic Energy     :          109.11139487 Eh            2969.07200 eV
Virial Ratio       :            2.00319701


DFT components:
N(Alpha)           :        6.999999383859 electrons
N(Beta)            :        6.999999383859 electrons
N(Total)           :       13.999998767719 electrons
E(X)               :      -13.127405392447 Eh       
E(C)               :       -0.451280455121 Eh       
E(XC)              :      -13.578685847568 Eh       
DFET-embed. en.    :        0.000000000000 Eh       

---------------
SCF CONVERGENCE
---------------

  Last Energy change         ...    4.9738e-13  Tolerance :   1.0000e-09
  Last MAX-Density change    ...    3.4249e-06  Tolerance :   1.0000e-08
  Last RMS-Density change    ...    5.3463e-08  Tolerance :   1.0000e-09
  Last DIIS Error            ...    1.3740e-08  Tolerance :   1.0000e-08

             **** THE GBW FILE WAS UPDATED (n2_pbe.gbw) ****
             **** DENSITY FILE WAS UPDATED (n2_pbe.scfp.tmp) ****
             **** ENERGY FILE WAS UPDATED (n2_pbe.en.tmp) ****
----------------------
UHF SPIN CONTAMINATION
----------------------

Warning: in a DFT calculation there is little theoretical justification to 
         calculate <S**2> as in Hartree-Fock theory. We will do it anyways
         but you should keep in mind that the values have only limited relevance

Expectation value of <S**2>     :    -0.000000
Ideal value S*(S+1) for S=0.0   :     0.000000
Deviation                       :    -0.000000

----------------
ORBITAL ENERGIES
----------------
                 SPIN UP ORBITALS
  NO   OCC          E(Eh)            E(eV) 
   0   1.0000     -14.082923      -383.2158 
   1   1.0000     -14.081593      -383.1796 
   2   1.0000      -1.038118       -28.2486 
   3   1.0000      -0.495823       -13.4920 
   4   1.0000      -0.427736       -11.6393 
   5   1.0000      -0.427736       -11.6393 
   6   1.0000      -0.377286       -10.2665 
   7   0.0000      -0.071911        -1.9568 
   8   0.0000      -0.071911        -1.9568 
   9   0.0000       0.005847         0.1591 
  10   0.0000       0.022005         0.5988 
  11   0.0000       0.026813         0.7296 
  12   0.0000       0.026813         0.7296 
  13   0.0000       0.055295         1.5047 
  14   0.0000       0.057224         1.5572 
  15   0.0000       0.057225         1.5572 
  16   0.0000       0.084955         2.3117 
  17   0.0000       0.122942         3.3454 
  18   0.0000       0.128999         3.5103 
  19   0.0000       0.128999         3.5103 
  20   0.0000       0.131193         3.5699 
  21   0.0000       0.131193         3.5699 
  22   0.0000       0.161391         4.3917 
  23   0.0000       0.161391         4.3917 
  24   0.0000       0.168786         4.5929 
  25   0.0000       0.175571         4.7775 
  26   0.0000       0.184219         5.0128 
  27   0.0000       0.184219         5.0128 
  28   0.0000       0.188867         5.1393 
  29   0.0000       0.188867         5.1393 
  30   0.0000       0.223866         6.0917 
  31   0.0000       0.285191         7.7604 
  32   0.0000       0.285191         7.7604 
  33   0.0000       0.310161         8.4399 
  34   0.0000       0.310161         8.4399 
  35   0.0000       0.312874         8.5137 
  36   0.0000       0.338368         9.2075 
  37   0.0000       0.338368         9.2075 
  38   0.0000       0.349659         9.5147 
  39   0.0000       0.349659         9.5147 
  40   0.0000       0.374055        10.1785 
  41   0.0000       0.374055        10.1785 
  42   0.0000       0.381218        10.3735 
  43   0.0000       0.381993        10.3945 
  44   0.0000       0.399622        10.8743 
  45   0.0000       0.399622        10.8743 
  46   0.0000       0.424808        11.5596 
  47   0.0000       0.424808        11.5596 
  48   0.0000       0.428041        11.6476 
  49   0.0000       0.428041        11.6476 
  50   0.0000       0.444911        12.1066 
  51   0.0000       0.464623        12.6430 
  52   0.0000       0.469417        12.7735 
  53   0.0000       0.469417        12.7735 
  54   0.0000       0.519318        14.1314 
  55   0.0000       0.519318        14.1314 
  56   0.0000       0.565104        15.3773 
  57   0.0000       0.571781        15.5590 
  58   0.0000       0.571781        15.5590 
  59   0.0000       0.618743        16.8368 
  60   0.0000       0.618743        16.8368 
  61   0.0000       0.620222        16.8771 
  62   0.0000       0.620222        16.8771 
  63   0.0000       0.640887        17.4394 
  64   0.0000       0.643040        17.4980 
  65   0.0000       0.643040        17.4980 
  66   0.0000       0.649586        17.6761 
  67   0.0000       0.649586        17.6761 
  68   0.0000       0.668781        18.1985 
  69   0.0000       0.724931        19.7264 
  70   0.0000       0.724931        19.7264 
  71   0.0000       0.757003        20.5991 
  72   0.0000       0.757003        20.5991 
  73   0.0000       0.760528        20.6950 
  74   0.0000       0.760528        20.6950 
  75   0.0000       0.788430        21.4543 
  76   0.0000       0.788430        21.4543 
  77   0.0000       0.792509        21.5653 
  78   0.0000       0.792509        21.5653 
  79   0.0000       0.799720        21.7615 
  80   0.0000       0.799720        21.7615 
  81   0.0000       0.833299        22.6752 
  82   0.0000       0.833299        22.6752 
  83   0.0000       0.876079        23.8393 
  84   0.0000       0.878602        23.9080 
  85   0.0000       0.878602        23.9080 
  86   0.0000       0.887070        24.1384 
  87   0.0000       0.894244        24.3336 
  88   0.0000       0.894244        24.3336 
  89   0.0000       0.911628        24.8067 
  90   0.0000       0.911628        24.8067 
  91   0.0000       0.933529        25.4026 
  92   0.0000       0.933529        25.4026 
  93   0.0000       0.937905        25.5217 
  94   0.0000       0.937905        25.5217 
  95   0.0000       0.943533        25.6748 
  96   0.0000       0.962666        26.1955 
  97   0.0000       1.015080        27.6217 
  98   0.0000       1.033968        28.1357 
  99   0.0000       1.033968        28.1357 
 100   0.0000       1.071961        29.1695 
 101   0.0000       1.071961        29.1696 
 102   0.0000       1.074621        29.2419 
 103   0.0000       1.092933        29.7402 
 104   0.0000       1.092933        29.7402 
 105   0.0000       1.096504        29.8374 
 106   0.0000       1.096505        29.8374 
 107   0.0000       1.204439        32.7745 
 108   0.0000       1.204439        32.7745 
 109   0.0000       1.348714        36.7004 
 110   0.0000       1.348714        36.7004 
 111   0.0000       1.433997        39.0211 
 112   0.0000       1.446438        39.3596 
 113   0.0000       1.474511        40.1235 
 114   0.0000       1.474511        40.1235 
 115   0.0000       1.571581        42.7649 
 116   0.0000       1.571581        42.7649 
 117   0.0000       1.592330        43.3295 
 118   0.0000       1.592330        43.3295 
 119   0.0000       1.729471        47.0613 
 120   0.0000       1.780654        48.4540 
 121   0.0000       1.780654        48.4540 
 122   0.0000       1.867226        50.8098 
 123   0.0000       1.867226        50.8098 
 124   0.0000       1.988546        54.1111 
 125   0.0000       2.009186        54.6727 
 126   0.0000       2.014142        54.8076 
 127   0.0000       2.014142        54.8076 
 128   0.0000       2.017173        54.8901 
 129   0.0000       2.017173        54.8901 
 130   0.0000       2.274587        61.8946 
 131   0.0000       2.274587        61.8946 
 132   0.0000       2.299754        62.5795 
 133   0.0000       2.299754        62.5795 
 134   0.0000       2.411793        65.6282 
 135   0.0000       2.637097        71.7590 
 136   0.0000       2.741927        74.6116 
 137   0.0000       2.741927        74.6116 
 138   0.0000       2.808529        76.4240 
 139   0.0000       2.808529        76.4240 
 140   0.0000       2.838581        77.2417 
 141   0.0000       2.838581        77.2417 
 142   0.0000       2.970803        80.8397 
 143   0.0000       3.164832        86.1195 
 144   0.0000       3.164833        86.1195 
 145   0.0000       3.273598        89.0791 
 146   0.0000       3.411136        92.8217 
 147   0.0000       3.431629        93.3794 
 148   0.0000       3.431629        93.3794 
 149   0.0000       3.518191        95.7349 
 150   0.0000       3.518191        95.7349 
 151   0.0000       3.840074       104.4937 
 152   0.0000       4.054175       110.3197 
 153   0.0000       4.072286       110.8125 
 154   0.0000       4.072286       110.8125 
 155   0.0000       4.260482       115.9336 
 156   0.0000       4.260482       115.9336 
 157   0.0000       4.401807       119.7793 
 158   0.0000       4.401807       119.7793 
 159   0.0000       4.699212       127.8721 
 160   0.0000       4.699213       127.8721 
 161   0.0000       4.718141       128.3871 
 162   0.0000       4.718141       128.3871 
 163   0.0000       4.722424       128.5037 
 164   0.0000       4.722424       128.5037 
 165   0.0000       4.753475       129.3486 
 166   0.0000       4.753475       129.3486 
 167   0.0000       4.930351       134.1617 
 168   0.0000       5.132167       139.6534 
 169   0.0000       5.132167       139.6534 
 170   0.0000       5.199074       141.4740 
 171   0.0000       5.199074       141.4740 
 172   0.0000       5.254062       142.9703 
 173   0.0000       5.640170       153.4768 
 174   0.0000       5.640171       153.4768 
 175   0.0000       5.962989       162.2612 
 176   0.0000       5.962989       162.2612 
 177   0.0000       5.982849       162.8016 
 178   0.0000       5.982849       162.8016 
 179   0.0000       6.166740       167.8055 
 180   0.0000       6.166740       167.8055 
 181   0.0000       6.279932       170.8856 
 182   0.0000       6.392501       173.9488 
 183   0.0000       6.630952       180.4374 
 184   0.0000       6.630953       180.4374 
 185   0.0000       6.803290       185.1269 
 186   0.0000       6.803291       185.1270 
 187   0.0000       7.005422       190.6272 
 188   0.0000       7.102454       193.2676 
 189   0.0000       7.102454       193.2676 
 190   0.0000       7.304639       198.7693 
 191   0.0000       7.427426       202.1105 
 192   0.0000       7.427426       202.1105 
 193   0.0000       7.477676       203.4779 
 194   0.0000       7.477676       203.4779 
 195   0.0000       7.558858       205.6870 
 196   0.0000       8.328404       226.6274 
 197   0.0000       8.721169       237.3151 
 198   0.0000       8.721169       237.3151 
 199   0.0000       8.835209       240.4183 
 200   0.0000       8.835209       240.4183 
 201   0.0000       9.116276       248.0665 
 202   0.0000       9.116276       248.0665 
 203   0.0000       9.734648       264.8932 
 204   0.0000      10.513196       286.0786 
 205   0.0000      10.636467       289.4330 
 206   0.0000      10.636468       289.4330 
 207   0.0000      10.682553       290.6870 
 208   0.0000      10.682553       290.6870 
 209   0.0000      10.743796       292.3536 
 210   0.0000      10.743798       292.3536 
 211   0.0000      10.772276       293.1285 
 212   0.0000      10.772276       293.1285 
 213   0.0000      11.160916       303.7040 
 214   0.0000      11.160916       303.7040 
 215   0.0000      11.195806       304.6534 
 216   0.0000      11.195806       304.6534 
 217   0.0000      11.261446       306.4395 
 218   0.0000      11.261446       306.4395 
 219   0.0000      11.302408       307.5542 
 220   0.0000      11.435368       311.1722 
 221   0.0000      11.435368       311.1722 
 222   0.0000      11.594278       315.4963 
 223   0.0000      11.594279       315.4964 
 224   0.0000      12.063078       328.2530 
 225   0.0000      12.085429       328.8612 
 226   0.0000      12.085431       328.8613 
 227   0.0000      12.144833       330.4777 
 228   0.0000      12.144834       330.4777 
 229   0.0000      12.540913       341.2556 
 230   0.0000      12.540913       341.2556 
 231   0.0000      12.699317       345.5660 
 232   0.0000      13.705127       372.9355 
 233   0.0000      13.705127       372.9355 
 234   0.0000      13.941241       379.3604 
 235   0.0000      13.941241       379.3604 
 236   0.0000      14.084025       383.2458 
 237   0.0000      14.084034       383.2461 
 238   0.0000      14.123651       384.3241 
 239   0.0000      14.123651       384.3241 
 240   0.0000      14.300859       389.1462 
 241   0.0000      14.300870       389.1465 
 242   0.0000      14.681790       399.5118 
 243   0.0000      14.681790       399.5118 
 244   0.0000      14.851103       404.1191 
 245   0.0000      14.917734       405.9322 
 246   0.0000      14.917736       405.9322 
 247   0.0000      15.008011       408.3887 
 248   0.0000      15.008011       408.3887 
 249   0.0000      15.029498       408.9734 
 250   0.0000      15.029501       408.9735 
 251   0.0000      15.469018       420.9334 
 252   0.0000      15.837059       430.9483 
 253   0.0000      15.837059       430.9483 
 254   0.0000      16.065349       437.1604 
 255   0.0000      16.300366       443.5555 
 256   0.0000      16.300366       443.5555 
 257   0.0000      16.310216       443.8236 
 258   0.0000      16.386185       445.8908 
 259   0.0000      16.386185       445.8908 
 260   0.0000      16.645492       452.9469 
 261   0.0000      16.645499       452.9471 
 262   0.0000      16.970451       461.7894 
 263   0.0000      16.970458       461.7896 
 264   0.0000      17.599972       478.9196 
 265   0.0000      17.944185       488.2861 
 266   0.0000      17.944185       488.2861 
 267   0.0000      19.500601       530.6383 
 268   0.0000      19.500601       530.6383 
 269   0.0000      20.883894       568.2797 
 270   0.0000      24.119072       656.3133 
 271   0.0000      24.277710       660.6301 
 272   0.0000      25.787056       701.7015 
 273   0.0000      25.787056       701.7015 
 274   0.0000      26.483719       720.6586 
 275   0.0000      26.483719       720.6586 
 276   0.0000      27.198474       740.1081 
 277   0.0000      30.491009       829.7025 
 278   0.0000      47.468603      1291.6864 
 279   0.0000      47.468657      1291.6878 
 280   0.0000      47.679080      1297.4137 
 281   0.0000      47.679135      1297.4152 
 282   0.0000      47.770068      1299.8896 
 283   0.0000      47.770068      1299.8896 
 284   0.0000      48.302952      1314.3901 
 285   0.0000      48.302952      1314.3901 
 286   0.0000      48.343467      1315.4926 
 287   0.0000      50.028230      1361.3374 
 288   0.0000     103.698728      2821.7858 
 289   0.0000     108.351307      2948.3890 

                 SPIN DOWN ORBITALS
  NO   OCC          E(Eh)            E(eV) 
   0   1.0000     -14.082923      -383.2158 
   1   1.0000     -14.081593      -383.1796 
   2   1.0000      -1.038118       -28.2486 
   3   1.0000      -0.495823       -13.4920 
   4   1.0000      -0.427736       -11.6393 
   5   1.0000      -0.427736       -11.6393 
   6   1.0000      -0.377286       -10.2665 
   7   0.0000      -0.071911        -1.9568 
   8   0.0000      -0.071911        -1.9568 
   9   0.0000       0.005847         0.1591 
  10   0.0000       0.022005         0.5988 
  11   0.0000       0.026813         0.7296 
  12   0.0000       0.026813         0.7296 
  13   0.0000       0.055295         1.5047 
  14   0.0000       0.057224         1.5572 
  15   0.0000       0.057225         1.5572 
  16   0.0000       0.084955         2.3117 
  17   0.0000       0.122942         3.3454 
  18   0.0000       0.128999         3.5103 
  19   0.0000       0.128999         3.5103 
  20   0.0000       0.131193         3.5699 
  21   0.0000       0.131193         3.5699 
  22   0.0000       0.161391         4.3917 
  23   0.0000       0.161391         4.3917 
  24   0.0000       0.168786         4.5929 
  25   0.0000       0.175571         4.7775 
  26   0.0000       0.184219         5.0128 
  27   0.0000       0.184219         5.0128 
  28   0.0000       0.188867         5.1393 
  29   0.0000       0.188867         5.1393 
  30   0.0000       0.223866         6.0917 
  31   0.0000       0.285191         7.7604 
  32   0.0000       0.285191         7.7604 
  33   0.0000       0.310161         8.4399 
  34   0.0000       0.310161         8.4399 
  35   0.0000       0.312874         8.5137 
  36   0.0000       0.338368         9.2075 
  37   0.0000       0.338368         9.2075 
  38   0.0000       0.349659         9.5147 
  39   0.0000       0.349659         9.5147 
  40   0.0000       0.374055        10.1785 
  41   0.0000       0.374055        10.1785 
  42   0.0000       0.381218        10.3735 
  43   0.0000       0.381993        10.3945 
  44   0.0000       0.399622        10.8743 
  45   0.0000       0.399622        10.8743 
  46   0.0000       0.424808        11.5596 
  47   0.0000       0.424808        11.5596 
  48   0.0000       0.428041        11.6476 
  49   0.0000       0.428041        11.6476 
  50   0.0000       0.444911        12.1066 
  51   0.0000       0.464623        12.6430 
  52   0.0000       0.469417        12.7735 
  53   0.0000       0.469417        12.7735 
  54   0.0000       0.519318        14.1314 
  55   0.0000       0.519318        14.1314 
  56   0.0000       0.565104        15.3773 
  57   0.0000       0.571781        15.5590 
  58   0.0000       0.571781        15.5590 
  59   0.0000       0.618743        16.8368 
  60   0.0000       0.618743        16.8368 
  61   0.0000       0.620222        16.8771 
  62   0.0000       0.620222        16.8771 
  63   0.0000       0.640887        17.4394 
  64   0.0000       0.643040        17.4980 
  65   0.0000       0.643040        17.4980 
  66   0.0000       0.649586        17.6761 
  67   0.0000       0.649586        17.6761 
  68   0.0000       0.668781        18.1985 
  69   0.0000       0.724931        19.7264 
  70   0.0000       0.724931        19.7264 
  71   0.0000       0.757003        20.5991 
  72   0.0000       0.757003        20.5991 
  73   0.0000       0.760528        20.6950 
  74   0.0000       0.760528        20.6950 
  75   0.0000       0.788430        21.4543 
  76   0.0000       0.788430        21.4543 
  77   0.0000       0.792509        21.5653 
  78   0.0000       0.792509        21.5653 
  79   0.0000       0.799720        21.7615 
  80   0.0000       0.799720        21.7615 
  81   0.0000       0.833299        22.6752 
  82   0.0000       0.833299        22.6752 
  83   0.0000       0.876079        23.8393 
  84   0.0000       0.878602        23.9080 
  85   0.0000       0.878602        23.9080 
  86   0.0000       0.887070        24.1384 
  87   0.0000       0.894244        24.3336 
  88   0.0000       0.894244        24.3336 
  89   0.0000       0.911628        24.8067 
  90   0.0000       0.911628        24.8067 
  91   0.0000       0.933529        25.4026 
  92   0.0000       0.933529        25.4026 
  93   0.0000       0.937905        25.5217 
  94   0.0000       0.937905        25.5217 
  95   0.0000       0.943533        25.6748 
  96   0.0000       0.962666        26.1955 
  97   0.0000       1.015080        27.6217 
  98   0.0000       1.033968        28.1357 
  99   0.0000       1.033968        28.1357 
 100   0.0000       1.071961        29.1695 
 101   0.0000       1.071961        29.1696 
 102   0.0000       1.074621        29.2419 
 103   0.0000       1.092933        29.7402 
 104   0.0000       1.092933        29.7402 
 105   0.0000       1.096504        29.8374 
 106   0.0000       1.096505        29.8374 
 107   0.0000       1.204439        32.7745 
 108   0.0000       1.204439        32.7745 
 109   0.0000       1.348714        36.7004 
 110   0.0000       1.348714        36.7004 
 111   0.0000       1.433997        39.0211 
 112   0.0000       1.446438        39.3596 
 113   0.0000       1.474511        40.1235 
 114   0.0000       1.474511        40.1235 
 115   0.0000       1.571581        42.7649 
 116   0.0000       1.571581        42.7649 
 117   0.0000       1.592330        43.3295 
 118   0.0000       1.592330        43.3295 
 119   0.0000       1.729471        47.0613 
 120   0.0000       1.780654        48.4540 
 121   0.0000       1.780654        48.4540 
 122   0.0000       1.867226        50.8098 
 123   0.0000       1.867226        50.8098 
 124   0.0000       1.988546        54.1111 
 125   0.0000       2.009186        54.6727 
 126   0.0000       2.014142        54.8076 
 127   0.0000       2.014142        54.8076 
 128   0.0000       2.017173        54.8901 
 129   0.0000       2.017173        54.8901 
 130   0.0000       2.274587        61.8946 
 131   0.0000       2.274587        61.8946 
 132   0.0000       2.299754        62.5795 
 133   0.0000       2.299754        62.5795 
 134   0.0000       2.411793        65.6282 
 135   0.0000       2.637097        71.7590 
 136   0.0000       2.741927        74.6116 
 137   0.0000       2.741927        74.6116 
 138   0.0000       2.808529        76.4240 
 139   0.0000       2.808529        76.4240 
 140   0.0000       2.838581        77.2417 
 141   0.0000       2.838581        77.2417 
 142   0.0000       2.970803        80.8397 
 143   0.0000       3.164832        86.1195 
 144   0.0000       3.164833        86.1195 
 145   0.0000       3.273598        89.0791 
 146   0.0000       3.411136        92.8217 
 147   0.0000       3.431629        93.3794 
 148   0.0000       3.431629        93.3794 
 149   0.0000       3.518191        95.7349 
 150   0.0000       3.518191        95.7349 
 151   0.0000       3.840074       104.4937 
 152   0.0000       4.054175       110.3197 
 153   0.0000       4.072286       110.8125 
 154   0.0000       4.072286       110.8125 
 155   0.0000       4.260482       115.9336 
 156   0.0000       4.260482       115.9336 
 157   0.0000       4.401807       119.7793 
 158   0.0000       4.401807       119.7793 
 159   0.0000       4.699212       127.8721 
 160   0.0000       4.699213       127.8721 
 161   0.0000       4.718141       128.3871 
 162   0.0000       4.718141       128.3871 
 163   0.0000       4.722424       128.5037 
 164   0.0000       4.722424       128.5037 
 165   0.0000       4.753475       129.3486 
 166   0.0000       4.753475       129.3486 
 167   0.0000       4.930351       134.1617 
 168   0.0000       5.132167       139.6534 
 169   0.0000       5.132167       139.6534 
 170   0.0000       5.199074       141.4740 
 171   0.0000       5.199074       141.4740 
 172   0.0000       5.254062       142.9703 
 173   0.0000       5.640170       153.4768 
 174   0.0000       5.640171       153.4768 
 175   0.0000       5.962989       162.2612 
 176   0.0000       5.962989       162.2612 
 177   0.0000       5.982849       162.8016 
 178   0.0000       5.982849       162.8016 
 179   0.0000       6.166740       167.8055 
 180   0.0000       6.166740       167.8055 
 181   0.0000       6.279932       170.8856 
 182   0.0000       6.392501       173.9488 
 183   0.0000       6.630952       180.4374 
 184   0.0000       6.630953       180.4374 
 185   0.0000       6.803290       185.1269 
 186   0.0000       6.803291       185.1270 
 187   0.0000       7.005422       190.6272 
 188   0.0000       7.102454       193.2676 
 189   0.0000       7.102454       193.2676 
 190   0.0000       7.304639       198.7693 
 191   0.0000       7.427426       202.1105 
 192   0.0000       7.427426       202.1105 
 193   0.0000       7.477676       203.4779 
 194   0.0000       7.477676       203.4779 
 195   0.0000       7.558858       205.6870 
 196   0.0000       8.328404       226.6274 
 197   0.0000       8.721169       237.3151 
 198   0.0000       8.721169       237.3151 
 199   0.0000       8.835209       240.4183 
 200   0.0000       8.835209       240.4183 
 201   0.0000       9.116276       248.0665 
 202   0.0000       9.116276       248.0665 
 203   0.0000       9.734648       264.8932 
 204   0.0000      10.513196       286.0786 
 205   0.0000      10.636467       289.4330 
 206   0.0000      10.636468       289.4330 
 207   0.0000      10.682553       290.6870 
 208   0.0000      10.682553       290.6870 
 209   0.0000      10.743796       292.3536 
 210   0.0000      10.743798       292.3536 
 211   0.0000      10.772276       293.1285 
 212   0.0000      10.772276       293.1285 
 213   0.0000      11.160916       303.7040 
 214   0.0000      11.160916       303.7040 
 215   0.0000      11.195806       304.6534 
 216   0.0000      11.195806       304.6534 
 217   0.0000      11.261446       306.4395 
 218   0.0000      11.261446       306.4395 
 219   0.0000      11.302408       307.5542 
 220   0.0000      11.435368       311.1722 
 221   0.0000      11.435368       311.1722 
 222   0.0000      11.594278       315.4963 
 223   0.0000      11.594279       315.4964 
 224   0.0000      12.063078       328.2530 
 225   0.0000      12.085429       328.8612 
 226   0.0000      12.085431       328.8613 
 227   0.0000      12.144833       330.4777 
 228   0.0000      12.144834       330.4777 
 229   0.0000      12.540913       341.2556 
 230   0.0000      12.540913       341.2556 
 231   0.0000      12.699317       345.5660 
 232   0.0000      13.705127       372.9355 
 233   0.0000      13.705127       372.9355 
 234   0.0000      13.941241       379.3604 
 235   0.0000      13.941241       379.3604 
 236   0.0000      14.084025       383.2458 
 237   0.0000      14.084034       383.2461 
 238   0.0000      14.123651       384.3241 
 239   0.0000      14.123651       384.3241 
 240   0.0000      14.300859       389.1462 
 241   0.0000      14.300870       389.1465 
 242   0.0000      14.681790       399.5118 
 243   0.0000      14.681790       399.5118 
 244   0.0000      14.851103       404.1191 
 245   0.0000      14.917734       405.9322 
 246   0.0000      14.917736       405.9322 
 247   0.0000      15.008011       408.3887 
 248   0.0000      15.008011       408.3887 
 249   0.0000      15.029498       408.9734 
 250   0.0000      15.029501       408.9735 
 251   0.0000      15.469018       420.9334 
 252   0.0000      15.837059       430.9483 
 253   0.0000      15.837059       430.9483 
 254   0.0000      16.065349       437.1604 
 255   0.0000      16.300366       443.5555 
 256   0.0000      16.300366       443.5555 
 257   0.0000      16.310216       443.8236 
 258   0.0000      16.386185       445.8908 
 259   0.0000      16.386185       445.8908 
 260   0.0000      16.645492       452.9469 
 261   0.0000      16.645499       452.9471 
 262   0.0000      16.970451       461.7894 
 263   0.0000      16.970458       461.7896 
 264   0.0000      17.599972       478.9196 
 265   0.0000      17.944185       488.2861 
 266   0.0000      17.944185       488.2861 
 267   0.0000      19.500601       530.6383 
 268   0.0000      19.500601       530.6383 
 269   0.0000      20.883894       568.2797 
 270   0.0000      24.119072       656.3133 
 271   0.0000      24.277710       660.6301 
 272   0.0000      25.787056       701.7015 
 273   0.0000      25.787056       701.7015 
 274   0.0000      26.483719       720.6586 
 275   0.0000      26.483719       720.6586 
 276   0.0000      27.198474       740.1081 
 277   0.0000      30.491009       829.7025 
 278   0.0000      47.468603      1291.6864 
 279   0.0000      47.468657      1291.6878 
 280   0.0000      47.679080      1297.4137 
 281   0.0000      47.679135      1297.4152 
 282   0.0000      47.770068      1299.8896 
 283   0.0000      47.770068      1299.8896 
 284   0.0000      48.302952      1314.3901 
 285   0.0000      48.302952      1314.3901 
 286   0.0000      48.343467      1315.4926 
 287   0.0000      50.028230      1361.3374 
 288   0.0000     103.698728      2821.7858 
 289   0.0000     108.351307      2948.3890 

                    ********************************
                    * MULLIKEN POPULATION ANALYSIS *
                    ********************************

--------------------------------------------
MULLIKEN ATOMIC CHARGES AND SPIN POPULATIONS
--------------------------------------------
   0 N :    0.000005   -0.000000
   1 N :   -0.000005    0.000000
Sum of atomic charges         :    0.0000000
Sum of atomic spin populations:    0.0000000

-----------------------------------------------------
MULLIKEN REDUCED ORBITAL CHARGES AND SPIN POPULATIONS
-----------------------------------------------------
CHARGE
  0 N s       :     3.856819  s :     3.856819
      pz      :     1.128139  p :     3.068708
      px      :     0.970285
      py      :     0.970285
      dz2     :     0.013360  d :     0.065813
      dxz     :     0.026226
      dyz     :     0.026226
      dx2y2   :     0.000000
      dxy     :    -0.000000
      f0      :     0.001378  f :     0.007551
      f+1     :     0.003086
      f-1     :     0.003086
      f+2     :     0.000000
      f-2     :    -0.000000
      f+3     :     0.000000
      f-3     :     0.000000
      g0      :     0.000269  g :     0.001042
      g+1     :     0.000386
      g-1     :     0.000386
      g+2     :    -0.000000
      g-2     :     0.000000
      g+3     :     0.000000
      g-3     :     0.000000
      g+4     :     0.000000
      g-4     :     0.000000
      h0      :     0.000029  h :     0.000062
      h+1     :     0.000016
      h-1     :     0.000016
      h+2     :    -0.000000
      h-2     :     0.000000
      h+3     :     0.000000
      h-3     :     0.000000
      h+4     :     0.000000
      h-4     :    -0.000000
      h+5     :     0.000000
      h-5     :     0.000000
  1 N s       :     3.856828  s :     3.856828
      pz      :     1.128140  p :     3.068710
      px      :     0.970285
      py      :     0.970285
      dz2     :     0.013361  d :     0.065813
      dxz     :     0.026226
      dyz     :     0.026226
      dx2y2   :     0.000000
      dxy     :     0.000000
      f0      :     0.001378  f :     0.007551
      f+1     :     0.003086
      f-1     :     0.003086
      f+2     :     0.000000
      f-2     :    -0.000000
      f+3     :     0.000000
      f-3     :     0.000000
      g0      :     0.000269  g :     0.001042
      g+1     :     0.000386
      g-1     :     0.000386
      g+2     :    -0.000000
      g-2     :    -0.000000
      g+3     :     0.000000
      g-3     :     0.000000
      g+4     :     0.000000
      g-4     :     0.000000
      h0      :     0.000029  h :     0.000062
      h+1     :     0.000016
      h-1     :     0.000016
      h+2     :     0.000000
      h-2     :    -0.000000
      h+3     :     0.000000
      h-3     :     0.000000
      h+4     :     0.000000
      h-4     :    -0.000000
      h+5     :     0.000000
      h-5     :     0.000000

SPIN
  0 N s       :    -0.000000  s :    -0.000000
      pz      :    -0.000000  p :    -0.000000
      px      :    -0.000000
      py      :     0.000000
      dz2     :    -0.000000  d :    -0.000000
      dxz     :    -0.000000
      dyz     :     0.000000
      dx2y2   :     0.000000
      dxy     :    -0.000000
      f0      :    -0.000000  f :    -0.000000
      f+1     :    -0.000000
      f-1     :    -0.000000
      f+2     :     0.000000
      f-2     :    -0.000000
      f+3     :    -0.000000
      f-3     :    -0.000000
      g0      :    -0.000000  g :    -0.000000
      g+1     :    -0.000000
      g-1     :    -0.000000
      g+2     :     0.000000
      g-2     :     0.000000
      g+3     :    -0.000000
      g-3     :     0.000000
      g+4     :    -0.000000
      g-4     :     0.000000
      h0      :    -0.000000  h :    -0.000000
      h+1     :    -0.000000
      h-1     :    -0.000000
      h+2     :     0.000000
      h-2     :     0.000000
      h+3     :     0.000000
      h-3     :     0.000000
      h+4     :     0.000000
      h-4     :    -0.000000
      h+5     :    -0.000000
      h-5     :    -0.000000
  1 N s       :     0.000000  s :     0.000000
      pz      :     0.000000  p :     0.000000
      px      :     0.000000
      py      :    -0.000000
      dz2     :     0.000000  d :     0.000000
      dxz     :     0.000000
      dyz     :    -0.000000
      dx2y2   :    -0.000000
      dxy     :     0.000000
      f0      :     0.000000  f :     0.000000
      f+1     :     0.000000
      f-1     :     0.000000
      f+2     :     0.000000
      f-2     :     0.000000
      f+3     :     0.000000
      f-3     :    -0.000000
      g0      :     0.000000  g :     0.000000
      g+1     :     0.000000
      g-1     :     0.000000
      g+2     :    -0.000000
      g-2     :    -0.000000
      g+3     :     0.000000
      g-3     :     0.000000
      g+4     :    -0.000000
      g-4     :     0.000000
      h0      :     0.000000  h :     0.000000
      h+1     :     0.000000
      h-1     :     0.000000
      h+2     :    -0.000000
      h-2     :     0.000000
      h+3     :    -0.000000
      h-3     :     0.000000
      h+4     :    -0.000000
      h-4     :    -0.000000
      h+5     :    -0.000000
      h-5     :    -0.000000


                     *******************************
                     * LOEWDIN POPULATION ANALYSIS *
                     *******************************

-------------------------------------------
LOEWDIN ATOMIC CHARGES AND SPIN POPULATIONS
-------------------------------------------
   0 N :    0.000000   -0.000000
   1 N :   -0.000000    0.000000

----------------------------------------------------
LOEWDIN REDUCED ORBITAL CHARGES AND SPIN POPULATIONS
----------------------------------------------------
CHARGE
  0 N s       :     3.248464  s :     3.248464
      pz      :     1.474099  p :     3.222235
      px      :     0.874068
      py      :     0.874068
      dz2     :     0.208248  d :     0.367031
      dxz     :     0.079391
      dyz     :     0.079391
      dx2y2   :     0.000000
      dxy     :     0.000000
      f0      :     0.052643  f :     0.123495
      f+1     :     0.035426
      f-1     :     0.035426
      f+2     :     0.000000
      f-2     :     0.000000
      f+3     :     0.000000
      f-3     :     0.000000
      g0      :     0.013547  g :     0.032448
      g+1     :     0.009450
      g-1     :     0.009450
      g+2     :     0.000000
      g-2     :     0.000000
      g+3     :     0.000000
      g-3     :     0.000000
      g+4     :     0.000000
      g-4     :     0.000000
      h0      :     0.002999  h :     0.006327
      h+1     :     0.001664
      h-1     :     0.001664
      h+2     :     0.000000
      h-2     :     0.000000
      h+3     :     0.000000
      h-3     :     0.000000
      h+4     :     0.000000
      h-4     :     0.000000
      h+5     :     0.000000
      h-5     :     0.000000
  1 N s       :     3.248464  s :     3.248464
      pz      :     1.474099  p :     3.222235
      px      :     0.874068
      py      :     0.874068
      dz2     :     0.208248  d :     0.367031
      dxz     :     0.079391
      dyz     :     0.079391
      dx2y2   :     0.000000
      dxy     :     0.000000
      f0      :     0.052643  f :     0.123495
      f+1     :     0.035426
      f-1     :     0.035426
      f+2     :     0.000000
      f-2     :     0.000000
      f+3     :     0.000000
      f-3     :     0.000000
      g0      :     0.013547  g :     0.032448
      g+1     :     0.009450
      g-1     :     0.009450
      g+2     :     0.000000
      g-2     :     0.000000
      g+3     :     0.000000
      g-3     :     0.000000
      g+4     :     0.000000
      g-4     :     0.000000
      h0      :     0.002999  h :     0.006327
      h+1     :     0.001664
      h-1     :     0.001664
      h+2     :     0.000000
      h-2     :     0.000000
      h+3     :     0.000000
      h-3     :     0.000000
      h+4     :     0.000000
      h-4     :     0.000000
      h+5     :     0.000000
      h-5     :     0.000000

SPIN
  0 N s       :     0.000000  s :     0.000000
      pz      :    -0.000000  p :    -0.000000
      px      :     0.000000
      py      :     0.000000
      dz2     :     0.000000  d :     0.000000
      dxz     :    -0.000000
      dyz     :     0.000000
      dx2y2   :     0.000000
      dxy     :    -0.000000
      f0      :     0.000000  f :     0.000000
      f+1     :     0.000000
      f-1     :    -0.000000
      f+2     :     0.000000
      f-2     :     0.000000
      f+3     :    -0.000000
      f-3     :    -0.000000
      g0      :     0.000000  g :     0.000000
      g+1     :     0.000000
      g-1     :    -0.000000
      g+2     :     0.000000
      g-2     :     0.000000
      g+3     :    -0.000000
      g-3     :     0.000000
      g+4     :    -0.000000
      g-4     :     0.000000
      h0      :     0.000000  h :     0.000000
      h+1     :     0.000000
      h-1     :     0.000000
      h+2     :     0.000000
      h-2     :     0.000000
      h+3     :     0.000000
      h-3     :     0.000000
      h+4     :     0.000000
      h-4     :    -0.000000
      h+5     :    -0.000000
      h-5     :    -0.000000
  1 N s       :     0.000000  s :     0.000000
      pz      :     0.000000  p :    -0.000000
      px      :    -0.000000
      py      :    -0.000000
      dz2     :    -0.000000  d :    -0.000000
      dxz     :     0.000000
      dyz     :    -0.000000
      dx2y2   :    -0.000000
      dxy     :    -0.000000
      f0      :    -0.000000  f :    -0.000000
      f+1     :     0.000000
      f-1     :     0.000000
      f+2     :     0.000000
      f-2     :    -0.000000
      f+3     :     0.000000
      f-3     :    -0.000000
      g0      :     0.000000  g :     0.000000
      g+1     :    -0.000000
      g-1     :     0.000000
      g+2     :    -0.000000
      g-2     :    -0.000000
      g+3     :     0.000000
      g-3     :     0.000000
      g+4     :    -0.000000
      g-4     :     0.000000
      h0      :    -0.000000  h :    -0.000000
      h+1     :    -0.000000
      h-1     :    -0.000000
      h+2     :     0.000000
      h-2     :    -0.000000
      h+3     :    -0.000000
      h-3     :     0.000000
      h+4     :    -0.000000
      h-4     :    -0.000000
      h+5     :    -0.000000
      h-5     :    -0.000000


                      *****************************
                      * MAYER POPULATION ANALYSIS *
                      *****************************

  NA   - Mulliken gross atomic population
  ZA   - Total nuclear charge
  QA   - Mulliken gross atomic charge
  VA   - Mayer's total valence
  BVA  - Mayer's bonded valence
  FA   - Mayer's free valence

  ATOM       NA         ZA         QA         VA         BVA        FA
  0 N      7.0000     7.0000     0.0000     2.6879     2.6879    -0.0000
  1 N      7.0000     7.0000    -0.0000     2.6879     2.6879     0.0000

  Mayer bond orders larger than 0.1
B(  0-N ,  1-N ) :   2.6879 

-------
TIMINGS
-------

Total SCF time: 0 days 0 hours 4 min 12 sec 

Total time                  ....     252.220 sec
Sum of individual times     ....     251.068 sec  ( 99.5%)

Fock matrix formation       ....     249.407 sec  ( 98.9%)
  XC integration            ....       5.820 sec  (  2.3% of F)
    Basis function eval.    ....       0.420 sec  (  7.2% of XC)
    Density eval.           ....       1.121 sec  ( 19.3% of XC)
    XC-Functional eval.     ....       0.080 sec  (  1.4% of XC)
    XC-Potential eval.      ....       3.630 sec  ( 62.4% of XC)
Diagonalization             ....       0.519 sec  (  0.2%)
Density matrix formation    ....       0.009 sec  (  0.0%)
Population analysis         ....       0.110 sec  (  0.0%)
Initial guess               ....       0.417 sec  (  0.2%)
Orbital Transformation      ....       0.000 sec  (  0.0%)
Orbital Orthonormalization  ....       0.000 sec  (  0.0%)
DIIS solution               ....       0.330 sec  (  0.1%)
Grid generation             ....       0.277 sec  (  0.1%)

-------------------------   --------------------
FINAL SINGLE POINT ENERGY      -109.460225563899
-------------------------   --------------------


                            ***************************************
                            *     ORCA property calculations      *
                            ***************************************

                                    ---------------------
                                    Active property flags
                                    ---------------------
   (+) Dipole Moment
   (+) Polarizability


------------------------------------------------------------------------------
                       ORCA ELECTRIC PROPERTIES CALCULATION
------------------------------------------------------------------------------

Dipole Moment Calculation                       ... on
Quadrupole Moment Calculation                   ... off
Polarizability Calculation                      ... Analytic (CP-SCF)
GBWName                                         ... n2_pbe.gbw
Electron density file                           ... n2_pbe.scfp.tmp
The origin for moment calculation is the CENTER OF MASS  = ( 0.000000,  0.000000  0.000000)

-------------
DIPOLE MOMENT
-------------
                                X             Y             Z
Electronic contribution:      0.00000      -0.00000       0.00000
Nuclear contribution   :      0.00000       0.00000       0.00000
                        -----------------------------------------
Total Dipole Moment    :      0.00000      -0.00000       0.00000
                        -----------------------------------------
Magnitude (a.u.)       :      0.00000
Magnitude (Debye)      :      0.00000



--------------------
Rotational spectrum 
--------------------
 
Rotational constants in cm-1:     0.000000     1.997991     1.997991 
Rotational constants in MHz :     0.000000 59898.269323 59898.269323 

 Dipole components along the rotational axes: 
x,y,z [a.u.] :     0.000000    -0.000000     0.000000 
x,y,z [Debye]:     0.000000    -0.000000     0.000000 

 
Transforming and storing MO dipole integrals   ... done

                ... starting polarizability calculation

Opening the Dipole integral file               ... (n2_pbe.dmo.tmp) done
Reading Dipole-MO integrals                    ... done
Solving CP-SCF equations                       ... 

           ************************************************************
           *        Program running with 4 parallel MPI-processes     *
           *              working on a common directory               *
           ************************************************************

------------------------------------------------------------------------------
                           ORCA CP-SCF CALCULATION
------------------------------------------------------------------------------

Input orbitals are from        ... n2_pbe.gbw
Input Perturbation             ... n2_pbe.cpv.tmp
Wavefunction output            ... n2_pbe.cpu.tmp
Perturbation mode              ... Real perturbation (singlet)
Solver                         ... POPLE
Max. number of iterations      ... 200
Convergence tolerance          ... 1.000e-06
Integral handling              ... Direct
Number of perturbations        ... 3
Number of operators            ... 2
Orbital ranges used for CP-SCF:
 Operator 0:  Orbitals   0...  6  to   7...289
 Operator 1:  Orbitals   0...  6  to   7...289
DFT calculation                         ... on
Exchange functional (SCF)               ... PBE
Exchange functional (CP-SCF)            ... PBE
   PBE kappa parameter  XKappa (SCF)    ...  0.804000
   PBE kappa parameter  XKappa (CP-SCF) ...  0.804000
   PBE mue parameter   XMuePBE (SCF)    ...  0.219520
   PBE mue parameter   XMuePBE (CP-SCF) ...  0.219520
Correlation functional (SCF)            ... PBE
Correlation functional (CP-SCF)         ... PBE
   PBE beta parameter CBetaPBE (SCF)    ...  0.066725
   PBE beta parameter CBetaPBE (CP-SCF) ...  0.066725
 LDA part of GGA corr.  LDAOpt (SCF)    ... PW91-LDA
 LDA part of GGA corr.  LDAOpt (CP-SCF) ... PW91-LDA
Variables per vector in CP-SCF ... 3962
Number of vectors sought       ... 3
Recalculating density on grid  ... done
Calculating the xc-kernel      ... done
     CP-SCF ITERATION   0: 
     CP-SCF ITERATION   1:      0.018107587134
     CP-SCF ITERATION   2:      0.000050180451
     CP-SCF ITERATION   3:      0.000000539165
done
Reading CP-SCF coefficients                    ... done
Doing the polarizability tensor   ... done
Cleaning up                                    ... done

-------------------------
THE POLARIZABILITY TENSOR
-------------------------

The raw cartesian tensor (atomic units):
   10.66829      0.00000      0.00000  
    0.00000     10.66829     -0.00000  
    0.00000     -0.00000     15.41376  
diagonalized tensor: 
   10.66829     10.66829     15.41376  

   -0.62595      0.77987      0.00000  
    0.77987      0.62595     -0.00000  
    0.00000     -0.00000      1.00000  

Isotropic polarizability :  12.25011


Timings for individual modules:

Sum of individual times         ...      390.947 sec (=   6.516 min)
GTO integral calculation        ...        1.637 sec (=   0.027 min)   0.4 %
SCF iterations                  ...      252.550 sec (=   4.209 min)  64.6 %
Solution of CP-SCF eqns.        ...      136.760 sec (=   2.279 min)  35.0 %
                             ****ORCA TERMINATED NORMALLY****
TOTAL RUN TIME: 0 days 0 hours 6 minutes 31 seconds 722 msec
