
                                 *****************
                                 * O   R   C   A *
                                 *****************

           --- An Ab Initio, DFT and Semiempirical electronic structure package ---

                  #######################################################
                  #                        -***-                        #
                  #          Department of theory and spectroscopy      #
                  #               Directorship: Frank Neese             #
                  #        Max Planck Institute fuer Kohlenforschung    #
                  #                Kaiser Wilhelm Platz 1               #
                  #                 D-45470 Muelheim/Ruhr               #
                  #                      Germany                        #
                  #                                                     #
                  #                  All rights reserved                #
                  #                        -***-                        #
                  #######################################################


                         Program Version 4.1.2  - RELEASE  -


 With contributions from (in alphabetic order):
   Daniel Aravena         : Magnetic Properties
   Michael Atanasov       : Ab Initio Ligand Field Theory
   Alexander A. Auer      : GIAO ZORA
   Ute Becker             : Parallelization
   Giovanni Bistoni       : ED, Open-shell LED
   Martin Brehm           : Molecular dynamics
   Dmytro Bykov           : SCF Hessian
   Vijay G. Chilkuri      : MRCI spin determinant printing
   Dipayan Datta          : RHF DLPNO-CCSD density
   Achintya Kumar Dutta   : EOM-CC, STEOM-CC
   Dmitry Ganyushin       : Spin-Orbit,Spin-Spin,Magnetic field MRCI
   Miquel Garcia          : C-PCM Hessian
   Yang Guo               : DLPNO-NEVPT2, CIM, IAO-localization
   Andreas Hansen         : Spin unrestricted coupled pair/coupled cluster methods
   Benjamin Helmich-Paris : CASSCF linear response (MC-RPA)
   Lee Huntington         : MR-EOM, pCC
   Robert Izsak           : Overlap fitted RIJCOSX, COSX-SCS-MP3, EOM
   Christian Kollmar      : KDIIS, OOCD, Brueckner-CCSD(T), CCSD density
   Simone Kossmann        : Meta GGA functionals, TD-DFT gradient, OOMP2, MP2 Hessian
   Martin Krupicka        : AUTO-CI
   Lucas Lang             : DCDCAS
   Dagmar Lenk            : GEPOL surface, SMD
   Dimitrios Liakos       : Extrapolation schemes; parallel MDCI
   Dimitrios Manganas     : ROCIS; embedding schemes
   Dimitrios Pantazis     : SARC Basis sets
   Taras Petrenko         : DFT Hessian,TD-DFT gradient, ASA, ECA, R-Raman, ABS, FL, XAS/XES, NRVS
   Peter Pinski           : DLPNO-MP2, DLPNO-MP2 Gradient
   Christoph Reimann      : Effective Core Potentials
   Marius Retegan         : Local ZFS, SOC
   Christoph Riplinger    : Optimizer, TS searches, QM/MM, DLPNO-CCSD(T), (RO)-DLPNO pert. Triples
   Tobias Risthaus        : Range-separated hybrids, TD-DFT gradient, RPA, STAB
   Michael Roemelt        : Restricted open shell CIS
   Masaaki Saitow         : Open-shell DLPNO
   Barbara Sandhoefer     : DKH picture change effects
   Avijit Sen             : IP-ROCIS
   Kantharuban Sivalingam : CASSCF convergence, NEVPT2, FIC-MRCI
   Bernardo de Souza      : ESD, SOC TD-DFT
   Georgi Stoychev        : AutoAux, RI-MP2 NMR
   Willem Van den Heuvel  : Paramagnetic NMR
   Boris Wezisla          : Elementary symmetry handling
   Frank Wennmohs         : Technical directorship


 We gratefully acknowledge several colleagues who have allowed us to
 interface, adapt or use parts of their codes:
   Stefan Grimme, W. Hujo, H. Kruse,             : VdW corrections, initial TS optimization,
                  C. Bannwarth                     DFT functionals, gCP, sTDA/sTD-DF
   Ed Valeev                                     : LibInt (2-el integral package), F12 methods
   Garnet Chan, S. Sharma, J. Yang, R. Olivares  : DMRG
   Ulf Ekstrom                                   : XCFun DFT Library
   Mihaly Kallay                                 : mrcc  (arbitrary order and MRCC methods)
   Andreas Klamt, Michael Diedenhofen            : otool_cosmo (COSMO solvation model)
   Jiri Pittner, Ondrej Demel                    : Mk-CCSD
   Frank Weinhold                                : gennbo (NPA and NBO analysis)
   Christopher J. Cramer and Donald G. Truhlar   : smd solvation model
   Lars Goerigk                                  : TD-DFT with DH, B97 family of functionals
   V. Asgeirsson, H. Jonsson                     : NEB implementation
   FAccTs GmbH                                   : IRC, NEB, NEB-TS, Multilevel


 Your calculation uses the libint2 library for the computation of 2-el integrals
 For citations please refer to: http://libint.valeyev.net

 This ORCA versions uses:
   CBLAS   interface :  Fast vector & matrix operations
   LAPACKE interface :  Fast linear algebra routines
   SCALAPACK package :  Parallel linear algebra routines


----- Orbital basis set information -----
Your calculation utilizes the basis: aug-pc-4
   H, C-F              : F. Jensen, J. Chem. Phys. 115, 9113 (2001).
                         F. Jensen, J. Chem. Phys. 116, 7372 (2002).
                         F. Jensen, J. Chem. Phys. 117, 9234 (2002).
   Si-Cl               : F. Jensen, T. Helgaker, J. Chem. Phys. 121, 3463 (2004).
   He-B, Ne-Mg, Al, Ar : F. Jensen, J. Phys. Chem. A 111, 11198 (2007).
   K, Ca, Ga-Kr        : F. Jensen, J. Chem. Phys. 136, 094110 (2012).
   Sc-Zn               : F. Jensen, J. Chem. Phys. 138, 014107 (2013).

================================================================================
                                        WARNINGS
                       Please study these warnings very carefully!
================================================================================


INFO   : the flag for use of LIBINT has been found!

================================================================================
                                       INPUT FILE
================================================================================
NAME = n2h2_pbe.inp
|  1> !uks pbe nori aug-pc-4 grid5 nofinalgrid verytightscf
|  2> 
|  3> %maxcore 1500
|  4> 
|  5> %pal nprocs 4 end
|  6> 
|  7> %scf
|  8> 	maxiter 200
|  9> end
| 10> %elprop
| 11> 	dipole true
| 12> 	 polar 1
| 13> 	 maxiter 200
| 14> end
| 15> 
| 16> * xyz 0 1
| 17> N 0.0000000000 0.0000000000 0.0000000000
| 18> H 0.0000000000 0.0000000000 1.0337770000
| 19> N 1.1649590602 0.0000000000 -0.4597566182
| 20> H 1.8709666930 0.0000000000 0.2953911212
| 21> *
| 22> 
| 23>                          ****END OF INPUT****
================================================================================

                       ****************************
                       * Single Point Calculation *
                       ****************************

---------------------------------
CARTESIAN COORDINATES (ANGSTROEM)
---------------------------------
  N      0.000000    0.000000    0.000000
  H      0.000000    0.000000    1.033777
  N      1.164959    0.000000   -0.459757
  H      1.870967    0.000000    0.295391

----------------------------
CARTESIAN COORDINATES (A.U.)
----------------------------
  NO LB      ZA    FRAG     MASS         X           Y           Z
   0 N     7.0000    0    14.007    0.000000    0.000000    0.000000
   1 H     1.0000    0     1.008    0.000000    0.000000    1.953555
   2 N     7.0000    0    14.007    2.201454    0.000000   -0.868814
   3 H     1.0000    0     1.008    3.535615    0.000000    0.558208

--------------------------------
INTERNAL COORDINATES (ANGSTROEM)
--------------------------------
 N      0   0   0     0.000000000000     0.00000000     0.00000000
 H      1   0   0     1.033777000000     0.00000000     0.00000000
 N      1   2   0     1.252399999968   111.53690600     0.00000000
 H      3   1   2     1.033777000079   111.53690600     0.00000000

---------------------------
INTERNAL COORDINATES (A.U.)
---------------------------
 N      0   0   0     0.000000000000     0.00000000     0.00000000
 H      1   0   0     1.953555413547     0.00000000     0.00000000
 N      1   2   0     2.366693010063   111.53690600     0.00000000
 H      3   1   2     1.953555413696   111.53690600     0.00000000

---------------------
BASIS SET INFORMATION
---------------------
There are 2 groups of distinct atoms

 Group   1 Type N   : 27s12p7d4f3g2h contracted to 9s8p7d4f3g2h pattern {1191111111/51111111/1111111/1111/111/11}
 Group   2 Type H   : 12s7p4d3f2g contracted to 8s7p4d3f2g pattern {51111111/1111111/1111/111/11}

Atom   0N    basis set group =>   1
Atom   1H    basis set group =>   2
Atom   2N    basis set group =>   1
Atom   3H    basis set group =>   2


           ************************************************************
           *        Program running with 4 parallel MPI-processes     *
           *              working on a common directory               *
           ************************************************************
------------------------------------------------------------------------------
                           ORCA GTO INTEGRAL CALCULATION
------------------------------------------------------------------------------

                         BASIS SET STATISTICS AND STARTUP INFO

 # of primitive gaussian shells          ...  166
 # of primitive gaussian functions       ...  534
 # of contracted shells                  ...  114
 # of contracted basis functions         ...  466
 Highest angular momentum                ...    5
 Maximum contraction depth               ...   11
 Integral package used                   ... LIBINT
 Integral threshhold            Thresh   ...  1.000e-12
 Primitive cut-off              TCut     ...  1.000e-14


------------------------------ INTEGRAL EVALUATION ----------------------------


 * One electron integrals 
 Pre-screening matrix                    ... done
 Shell pair data                         ... done (   0.002 sec)



           ************************************************************
           *        Program running with 4 parallel MPI-processes     *
           *              working on a common directory               *
           ************************************************************
-------------------------------------------------------------------------------
                                 ORCA SCF
-------------------------------------------------------------------------------

------------
SCF SETTINGS
------------
Hamiltonian:
 Density Functional     Method          .... DFT(GTOs)
 Exchange Functional    Exchange        .... PBE
   PBE kappa parameter   XKappa         ....  0.804000
   PBE mue parameter    XMuePBE         ....  0.219520
 Correlation Functional Correlation     .... PBE
   PBE beta parameter  CBetaPBE         ....  0.066725
 LDA part of GGA corr.  LDAOpt          .... PW91-LDA
 Gradients option       PostSCFGGA      .... off
   Density functional embedding theory  .... OFF
   NL short-range parameter             ....  6.400000


General Settings:
 Integral files         IntName         .... n2h2_pbe
 Hartree-Fock type      HFTyp           .... UHF
 Total Charge           Charge          ....    0
 Multiplicity           Mult            ....    1
 Number of Electrons    NEL             ....   16
 Basis Dimension        Dim             ....  466
 Nuclear Repulsion      ENuc            ....     32.0447650164 Eh

Convergence Acceleration:
 DIIS                   CNVDIIS         .... on
   Start iteration      DIISMaxIt       ....    12
   Startup error        DIISStart       ....  0.200000
   # of expansion vecs  DIISMaxEq       ....     5
   Bias factor          DIISBfac        ....   1.050
   Max. coefficient     DIISMaxC        ....  10.000
 Newton-Raphson         CNVNR           .... off
 SOSCF                  CNVSOSCF        .... off
 Level Shifting         CNVShift        .... on
   Level shift para.    LevelShift      ....    0.2500
   Turn off err/grad.   ShiftErr        ....    0.0010
 Zerner damping         CNVZerner       .... off
 Static damping         CNVDamp         .... on
   Fraction old density DampFac         ....    0.7000
   Max. Damping (<1)    DampMax         ....    0.9800
   Min. Damping (>=0)   DampMin         ....    0.0000
   Turn off err/grad.   DampErr         ....    0.1000
 Fernandez-Rico         CNVRico         .... off

SCF Procedure:
 Maximum # iterations   MaxIter         ....   200
 SCF integral mode      SCFMode         .... Direct
   Integral package                     .... LIBINT
 Reset frequency        DirectResetFreq ....    20
 Integral Threshold     Thresh          ....  1.000e-12 Eh
 Primitive CutOff       TCut            ....  1.000e-14 Eh

Convergence Tolerance:
 Convergence Check Mode ConvCheckMode   .... Total+1el-Energy
 Convergence forced     ConvForced      .... 0
 Energy Change          TolE            ....  1.000e-09 Eh
 1-El. energy change                    ....  1.000e-06 Eh
 DIIS Error             TolErr          ....  1.000e-08


Diagonalization of the overlap matrix:
Smallest eigenvalue                        ... 1.226e-07
Time for diagonalization                   ...    0.141 sec
Threshold for overlap eigenvalues          ... 1.000e-08
Number of eigenvalues below threshold      ... 0
Time for construction of square roots      ...    0.042 sec
Total time needed                          ...    0.184 sec

-------------------
DFT GRID GENERATION
-------------------

General Integration Accuracy     IntAcc      ...  5.010
Radial Grid Type                 RadialGrid  ... Gauss-Chebyshev
Angular Grid (max. acc.)         AngularGrid ... Lebedev-434
Angular grid pruning method      GridPruning ... 3 (G Style)
Weight generation scheme         WeightScheme... Becke
Basis function cutoff            BFCut       ...    1.0000e-12
Integration weight cutoff        WCut        ...    1.0000e-14
Grids for H and He will be reduced by one unit

# of grid points (after initial pruning)     ...  34564 (   0.0 sec)
# of grid points (after weights+screening)   ...  34000 (   0.0 sec)
nearest neighbour list constructed           ...    0.0 sec
Grid point re-assignment to atoms done       ...    0.0 sec
Grid point division into batches done        ...    0.2 sec
Reduced shell lists constructed in    0.4 sec

Total number of grid points                  ...    34000
Total number of batches                      ...      534
Average number of points per batch           ...       63
Average number of grid points per atom       ...     8500
Average number of shells per batch           ...    90.54 (79.42%)
Average number of basis functions per batch  ...   382.33 (82.05%)
Average number of large shells per batch     ...    82.24 (90.83%)
Average number of large basis fcns per batch ...   350.10 (91.57%)
Maximum spatial batch extension              ...  12.33, 16.52, 12.44 au
Average spatial batch extension              ...   0.56,  0.62,  0.53 au

Time for grid setup =    0.392 sec

------------------------------
INITIAL GUESS: MODEL POTENTIAL
------------------------------
Loading Hartree-Fock densities                     ... done
Calculating cut-offs                               ... done
Setting up the integral package                    ... done
Initializing the effective Hamiltonian             ... done
Starting the Coulomb interaction                   ... done (   0.0 sec)
Reading the grid                                   ... done
Mapping shells                                     ... done
Starting the XC term evaluation                    ... done (   0.9 sec)
  promolecular density results
     # of electrons  =     15.999014775
     EX              =    -13.589616646
     EC              =     -0.511350354
     EX+EC           =    -14.100967000
Transforming the Hamiltonian                       ... done (   0.0 sec)
Diagonalizing the Hamiltonian                      ... done (   0.1 sec)
Back transforming the eigenvectors                 ... done (   0.0 sec)
Now organizing SCF variables                       ... done
                      ------------------
                      INITIAL GUESS DONE (   1.5 sec)
                      ------------------
--------------
SCF ITERATIONS
--------------
ITER       Energy         Delta-E        Max-DP      RMS-DP      [F,P]     Damp
               ***  Starting incremental Fock matrix formation  ***
  0   -110.5193173853   0.000000000000 0.01537545  0.00017476  0.1506481 0.7000
  1   -110.5422814182  -0.022964032848 0.01549890  0.00013934  0.0660116 0.7000
                               ***Turning on DIIS***
  2   -110.5501129325  -0.007831514326 0.02246019  0.00020401  0.0149049 0.0000
  3   -110.5613784372  -0.011265504673 0.01388501  0.00010882  0.0461720 0.0000
  4   -110.5652484879  -0.003870050721 0.00616955  0.00004731  0.0079013 0.0000
  5   -110.5654533666  -0.000204878697 0.00100741  0.00001151  0.0018142 0.0000
  6   -110.5654692234  -0.000015856799 0.00067819  0.00001076  0.0004181 0.0000
  7   -110.5654711166  -0.000001893242 0.00019900  0.00000139  0.0000861 0.0000
  8   -110.5654711341  -0.000000017429 0.00000744  0.00000007  0.0000198 0.0000
  9   -110.5654711348  -0.000000000723 0.00000606  0.00000006  0.0000035 0.0000
 10   -110.5654711348  -0.000000000040 0.00000575  0.00000006  0.0000008 0.0000
                 **** Energy Check signals convergence ****

               *****************************************************
               *                     SUCCESS                       *
               *           SCF CONVERGED AFTER  11 CYCLES          *
               *****************************************************


----------------
TOTAL SCF ENERGY
----------------

Total Energy       :         -110.56547113 Eh           -3008.63943 eV

Components:
Nuclear Repulsion  :           32.04476502 Eh             871.98239 eV
Electronic Energy  :         -142.61023615 Eh           -3880.62181 eV
One Electron Energy:         -212.72529254 Eh           -5788.54949 eV
Two Electron Energy:           70.11505639 Eh            1907.92768 eV

Virial components:
Potential Energy   :         -220.73164500 Eh           -6006.41342 eV
Kinetic Energy     :          110.16617386 Eh            2997.77399 eV
Virial Ratio       :            2.00362450


DFT components:
N(Alpha)           :        7.999998281367 electrons
N(Beta)            :        7.999998281367 electrons
N(Total)           :       15.999996562734 electrons
E(X)               :      -13.822188989866 Eh       
E(C)               :       -0.516247736588 Eh       
E(XC)              :      -14.338436726454 Eh       
DFET-embed. en.    :        0.000000000000 Eh       

---------------
SCF CONVERGENCE
---------------

  Last Energy change         ...   -2.2595e-12  Tolerance :   1.0000e-09
  Last MAX-Density change    ...    4.8267e-06  Tolerance :   1.0000e-08
  Last RMS-Density change    ...    4.3856e-08  Tolerance :   1.0000e-09
  Last DIIS Error            ...    1.6561e-06  Tolerance :   1.0000e-08

             **** THE GBW FILE WAS UPDATED (n2h2_pbe.gbw) ****
             **** DENSITY FILE WAS UPDATED (n2h2_pbe.scfp.tmp) ****
             **** ENERGY FILE WAS UPDATED (n2h2_pbe.en.tmp) ****
----------------------
UHF SPIN CONTAMINATION
----------------------

Warning: in a DFT calculation there is little theoretical justification to 
         calculate <S**2> as in Hartree-Fock theory. We will do it anyways
         but you should keep in mind that the values have only limited relevance

Expectation value of <S**2>     :    -0.000000
Ideal value S*(S+1) for S=0.0   :     0.000000
Deviation                       :    -0.000000

----------------
ORBITAL ENERGIES
----------------
                 SPIN UP ORBITALS
  NO   OCC          E(Eh)            E(eV) 
   0   1.0000     -14.049879      -382.3167 
   1   1.0000     -14.049617      -382.3095 
   2   1.0000      -0.954469       -25.9724 
   3   1.0000      -0.628062       -17.0904 
   4   1.0000      -0.518151       -14.0996 
   5   1.0000      -0.367984       -10.0133 
   6   1.0000      -0.337023        -9.1709 
   7   1.0000      -0.215481        -5.8635 
   8   0.0000      -0.115512        -3.1432 
   9   0.0000      -0.037831        -1.0294 
  10   0.0000       0.003266         0.0889 
  11   0.0000       0.020096         0.5469 
  12   0.0000       0.022374         0.6088 
  13   0.0000       0.035316         0.9610 
  14   0.0000       0.040982         1.1152 
  15   0.0000       0.044860         1.2207 
  16   0.0000       0.049391         1.3440 
  17   0.0000       0.052362         1.4249 
  18   0.0000       0.066187         1.8010 
  19   0.0000       0.072996         1.9863 
  20   0.0000       0.092998         2.5306 
  21   0.0000       0.103700         2.8218 
  22   0.0000       0.107475         2.9246 
  23   0.0000       0.108624         2.9558 
  24   0.0000       0.113395         3.0856 
  25   0.0000       0.124316         3.3828 
  26   0.0000       0.129670         3.5285 
  27   0.0000       0.134055         3.6478 
  28   0.0000       0.136438         3.7127 
  29   0.0000       0.148935         4.0527 
  30   0.0000       0.155186         4.2228 
  31   0.0000       0.163204         4.4410 
  32   0.0000       0.172009         4.6806 
  33   0.0000       0.184571         5.0224 
  34   0.0000       0.186069         5.0632 
  35   0.0000       0.187859         5.1119 
  36   0.0000       0.208367         5.6700 
  37   0.0000       0.209633         5.7044 
  38   0.0000       0.215406         5.8615 
  39   0.0000       0.218092         5.9346 
  40   0.0000       0.225192         6.1278 
  41   0.0000       0.228914         6.2291 
  42   0.0000       0.229168         6.2360 
  43   0.0000       0.231359         6.2956 
  44   0.0000       0.241475         6.5709 
  45   0.0000       0.245748         6.6871 
  46   0.0000       0.251879         6.8540 
  47   0.0000       0.259700         7.0668 
  48   0.0000       0.270514         7.3611 
  49   0.0000       0.286441         7.7944 
  50   0.0000       0.296801         8.0764 
  51   0.0000       0.302536         8.2324 
  52   0.0000       0.325991         8.8707 
  53   0.0000       0.332182         9.0391 
  54   0.0000       0.332388         9.0447 
  55   0.0000       0.335857         9.1391 
  56   0.0000       0.341168         9.2836 
  57   0.0000       0.352059         9.5800 
  58   0.0000       0.369111        10.0440 
  59   0.0000       0.369984        10.0678 
  60   0.0000       0.370922        10.0933 
  61   0.0000       0.378513        10.2999 
  62   0.0000       0.379659        10.3310 
  63   0.0000       0.390396        10.6232 
  64   0.0000       0.393618        10.7109 
  65   0.0000       0.400046        10.8858 
  66   0.0000       0.407854        11.0983 
  67   0.0000       0.411000        11.1839 
  68   0.0000       0.420584        11.4447 
  69   0.0000       0.427760        11.6399 
  70   0.0000       0.430928        11.7261 
  71   0.0000       0.439284        11.9535 
  72   0.0000       0.458500        12.4764 
  73   0.0000       0.459880        12.5140 
  74   0.0000       0.463148        12.6029 
  75   0.0000       0.469474        12.7750 
  76   0.0000       0.470121        12.7926 
  77   0.0000       0.472587        12.8597 
  78   0.0000       0.484030        13.1711 
  79   0.0000       0.485612        13.2142 
  80   0.0000       0.491010        13.3611 
  81   0.0000       0.496057        13.4984 
  82   0.0000       0.503027        13.6881 
  83   0.0000       0.525551        14.3010 
  84   0.0000       0.529778        14.4160 
  85   0.0000       0.538942        14.6654 
  86   0.0000       0.539012        14.6673 
  87   0.0000       0.545987        14.8571 
  88   0.0000       0.564736        15.3673 
  89   0.0000       0.572016        15.5653 
  90   0.0000       0.591347        16.0914 
  91   0.0000       0.591884        16.1060 
  92   0.0000       0.592595        16.1253 
  93   0.0000       0.608605        16.5610 
  94   0.0000       0.611034        16.6271 
  95   0.0000       0.626856        17.0576 
  96   0.0000       0.630269        17.1505 
  97   0.0000       0.654550        17.8112 
  98   0.0000       0.662524        18.0282 
  99   0.0000       0.664529        18.0828 
 100   0.0000       0.664916        18.0933 
 101   0.0000       0.666776        18.1439 
 102   0.0000       0.670096        18.2342 
 103   0.0000       0.674676        18.3589 
 104   0.0000       0.687793        18.7158 
 105   0.0000       0.700422        19.0594 
 106   0.0000       0.710731        19.3400 
 107   0.0000       0.713351        19.4113 
 108   0.0000       0.722537        19.6612 
 109   0.0000       0.728233        19.8162 
 110   0.0000       0.744528        20.2596 
 111   0.0000       0.752307        20.4713 
 112   0.0000       0.761155        20.7121 
 113   0.0000       0.764901        20.8140 
 114   0.0000       0.775706        21.1080 
 115   0.0000       0.778936        21.1959 
 116   0.0000       0.780445        21.2370 
 117   0.0000       0.795157        21.6373 
 118   0.0000       0.799556        21.7570 
 119   0.0000       0.808298        21.9949 
 120   0.0000       0.814336        22.1592 
 121   0.0000       0.829938        22.5838 
 122   0.0000       0.834028        22.6951 
 123   0.0000       0.846945        23.0465 
 124   0.0000       0.847976        23.0746 
 125   0.0000       0.854680        23.2570 
 126   0.0000       0.862422        23.4677 
 127   0.0000       0.871295        23.7091 
 128   0.0000       0.885659        24.1000 
 129   0.0000       0.886589        24.1253 
 130   0.0000       0.888328        24.1726 
 131   0.0000       0.889393        24.2016 
 132   0.0000       0.891654        24.2631 
 133   0.0000       0.892142        24.2764 
 134   0.0000       0.912524        24.8310 
 135   0.0000       0.915960        24.9245 
 136   0.0000       0.923962        25.1423 
 137   0.0000       0.930362        25.3164 
 138   0.0000       0.938675        25.5427 
 139   0.0000       0.946203        25.7475 
 140   0.0000       0.976668        26.5765 
 141   0.0000       0.983866        26.7723 
 142   0.0000       0.985901        26.8277 
 143   0.0000       0.994210        27.0538 
 144   0.0000       0.997544        27.1445 
 145   0.0000       1.000799        27.2331 
 146   0.0000       1.003968        27.3194 
 147   0.0000       1.010530        27.4979 
 148   0.0000       1.023901        27.8618 
 149   0.0000       1.032191        28.0873 
 150   0.0000       1.042936        28.3797 
 151   0.0000       1.053348        28.6630 
 152   0.0000       1.098704        29.8973 
 153   0.0000       1.106028        30.0966 
 154   0.0000       1.157040        31.4847 
 155   0.0000       1.158689        31.5295 
 156   0.0000       1.163966        31.6731 
 157   0.0000       1.190958        32.4076 
 158   0.0000       1.203441        32.7473 
 159   0.0000       1.205796        32.8114 
 160   0.0000       1.206602        32.8333 
 161   0.0000       1.226497        33.3747 
 162   0.0000       1.237407        33.6716 
 163   0.0000       1.242544        33.8113 
 164   0.0000       1.264134        34.3988 
 165   0.0000       1.274015        34.6677 
 166   0.0000       1.289935        35.1009 
 167   0.0000       1.310617        35.6637 
 168   0.0000       1.320555        35.9341 
 169   0.0000       1.339975        36.4626 
 170   0.0000       1.371998        37.3340 
 171   0.0000       1.380354        37.5613 
 172   0.0000       1.388548        37.7843 
 173   0.0000       1.461185        39.7609 
 174   0.0000       1.484344        40.3910 
 175   0.0000       1.510774        41.1103 
 176   0.0000       1.534315        41.7508 
 177   0.0000       1.541971        41.9592 
 178   0.0000       1.547012        42.0963 
 179   0.0000       1.563775        42.5525 
 180   0.0000       1.597758        43.4772 
 181   0.0000       1.634513        44.4774 
 182   0.0000       1.644153        44.7397 
 183   0.0000       1.660353        45.1805 
 184   0.0000       1.669923        45.4409 
 185   0.0000       1.681535        45.7569 
 186   0.0000       1.711141        46.5625 
 187   0.0000       1.727919        47.0191 
 188   0.0000       1.760738        47.9121 
 189   0.0000       1.807007        49.1712 
 190   0.0000       1.836123        49.9635 
 191   0.0000       1.842480        50.1364 
 192   0.0000       1.854077        50.4520 
 193   0.0000       1.909308        51.9549 
 194   0.0000       1.935778        52.6752 
 195   0.0000       1.968367        53.5620 
 196   0.0000       2.003454        54.5168 
 197   0.0000       2.062692        56.1287 
 198   0.0000       2.066615        56.2355 
 199   0.0000       2.098904        57.1141 
 200   0.0000       2.116145        57.5832 
 201   0.0000       2.213796        60.2405 
 202   0.0000       2.217686        60.3463 
 203   0.0000       2.226739        60.5927 
 204   0.0000       2.318908        63.1007 
 205   0.0000       2.340877        63.6985 
 206   0.0000       2.357930        64.1625 
 207   0.0000       2.495481        67.9055 
 208   0.0000       2.538331        69.0715 
 209   0.0000       2.579128        70.1816 
 210   0.0000       2.635141        71.7058 
 211   0.0000       2.653988        72.2187 
 212   0.0000       2.691974        73.2523 
 213   0.0000       2.699789        73.4650 
 214   0.0000       2.824485        76.8582 
 215   0.0000       2.843896        77.3864 
 216   0.0000       2.849223        77.5313 
 217   0.0000       2.920047        79.4585 
 218   0.0000       2.948375        80.2294 
 219   0.0000       3.034737        82.5794 
 220   0.0000       3.054869        83.1272 
 221   0.0000       3.081645        83.8558 
 222   0.0000       3.166100        86.1540 
 223   0.0000       3.168469        86.2184 
 224   0.0000       3.183195        86.6191 
 225   0.0000       3.186479        86.7085 
 226   0.0000       3.271587        89.0244 
 227   0.0000       3.318079        90.2895 
 228   0.0000       3.356591        91.3375 
 229   0.0000       3.356694        91.3403 
 230   0.0000       3.407404        92.7202 
 231   0.0000       3.419337        93.0449 
 232   0.0000       3.480796        94.7173 
 233   0.0000       3.525095        95.9227 
 234   0.0000       3.551540        96.6423 
 235   0.0000       3.588537        97.6491 
 236   0.0000       3.624209        98.6197 
 237   0.0000       3.631124        98.8079 
 238   0.0000       3.679087       100.1130 
 239   0.0000       3.702158       100.7408 
 240   0.0000       3.705230       100.8244 
 241   0.0000       3.745587       101.9226 
 242   0.0000       3.787574       103.0651 
 243   0.0000       3.912306       106.4593 
 244   0.0000       3.918211       106.6200 
 245   0.0000       3.959280       107.7375 
 246   0.0000       4.063075       110.5619 
 247   0.0000       4.064929       110.6123 
 248   0.0000       4.071780       110.7988 
 249   0.0000       4.072857       110.8281 
 250   0.0000       4.155668       113.0815 
 251   0.0000       4.185798       113.9014 
 252   0.0000       4.244222       115.4911 
 253   0.0000       4.299305       116.9900 
 254   0.0000       4.394842       119.5897 
 255   0.0000       4.449298       121.0716 
 256   0.0000       4.479324       121.8886 
 257   0.0000       4.566730       124.2670 
 258   0.0000       4.592700       124.9737 
 259   0.0000       4.600920       125.1974 
 260   0.0000       4.735101       128.8487 
 261   0.0000       4.833445       131.5247 
 262   0.0000       4.870767       132.5403 
 263   0.0000       4.897519       133.2683 
 264   0.0000       4.971161       135.2722 
 265   0.0000       5.041695       137.1915 
 266   0.0000       5.048652       137.3808 
 267   0.0000       5.073139       138.0471 
 268   0.0000       5.248681       142.8239 
 269   0.0000       5.272394       143.4691 
 270   0.0000       5.329416       145.0208 
 271   0.0000       5.400036       146.9425 
 272   0.0000       5.422162       147.5445 
 273   0.0000       5.472080       148.9029 
 274   0.0000       5.652739       153.8189 
 275   0.0000       5.698670       155.0687 
 276   0.0000       5.815128       158.2377 
 277   0.0000       5.843799       159.0179 
 278   0.0000       5.937332       161.5630 
 279   0.0000       5.984867       162.8565 
 280   0.0000       6.111952       166.3147 
 281   0.0000       6.128773       166.7724 
 282   0.0000       6.217981       169.1999 
 283   0.0000       6.238278       169.7522 
 284   0.0000       6.280159       170.8918 
 285   0.0000       6.297209       171.3558 
 286   0.0000       6.369489       173.3226 
 287   0.0000       6.434671       175.0963 
 288   0.0000       6.505715       177.0295 
 289   0.0000       6.556722       178.4175 
 290   0.0000       6.648131       180.9049 
 291   0.0000       6.728738       183.0983 
 292   0.0000       6.752216       183.7371 
 293   0.0000       6.790675       184.7837 
 294   0.0000       6.944944       188.9815 
 295   0.0000       7.037509       191.5004 
 296   0.0000       7.058554       192.0730 
 297   0.0000       7.174215       195.2203 
 298   0.0000       7.228977       196.7105 
 299   0.0000       7.390892       201.1164 
 300   0.0000       7.451721       202.7716 
 301   0.0000       7.463040       203.0796 
 302   0.0000       7.694435       209.3762 
 303   0.0000       7.703322       209.6180 
 304   0.0000       7.812536       212.5899 
 305   0.0000       7.886639       214.6063 
 306   0.0000       8.024952       218.3700 
 307   0.0000       8.115009       220.8206 
 308   0.0000       8.321000       226.4259 
 309   0.0000       8.425290       229.2638 
 310   0.0000       8.460507       230.2221 
 311   0.0000       8.480591       230.7686 
 312   0.0000       8.642392       235.1714 
 313   0.0000       8.682755       236.2698 
 314   0.0000       8.885877       241.7970 
 315   0.0000       8.908701       242.4181 
 316   0.0000       8.928456       242.9556 
 317   0.0000       9.049770       246.2568 
 318   0.0000       9.225101       251.0278 
 319   0.0000       9.257654       251.9136 
 320   0.0000       9.283777       252.6244 
 321   0.0000       9.444212       256.9901 
 322   0.0000       9.455572       257.2992 
 323   0.0000       9.505147       258.6482 
 324   0.0000       9.677335       263.3337 
 325   0.0000       9.731813       264.8161 
 326   0.0000       9.778271       266.0803 
 327   0.0000      10.128987       275.6238 
 328   0.0000      10.196367       277.4573 
 329   0.0000      10.228883       278.3420 
 330   0.0000      10.302473       280.3445 
 331   0.0000      10.661970       290.1270 
 332   0.0000      10.807437       294.0853 
 333   0.0000      10.831516       294.7405 
 334   0.0000      10.951331       298.0009 
 335   0.0000      11.021288       299.9045 
 336   0.0000      11.051876       300.7368 
 337   0.0000      11.083692       301.6026 
 338   0.0000      11.170661       303.9691 
 339   0.0000      11.272821       306.7491 
 340   0.0000      11.358334       309.0760 
 341   0.0000      11.397010       310.1284 
 342   0.0000      11.403253       310.2983 
 343   0.0000      11.431971       311.0797 
 344   0.0000      11.446498       311.4751 
 345   0.0000      11.517527       313.4078 
 346   0.0000      11.561459       314.6033 
 347   0.0000      11.634422       316.5887 
 348   0.0000      11.679645       317.8193 
 349   0.0000      11.699125       318.3494 
 350   0.0000      11.845641       322.3363 
 351   0.0000      11.932510       324.7001 
 352   0.0000      12.052878       327.9755 
 353   0.0000      12.257424       333.5415 
 354   0.0000      12.258806       333.5791 
 355   0.0000      12.260727       333.6313 
 356   0.0000      12.326502       335.4212 
 357   0.0000      12.362304       336.3954 
 358   0.0000      12.442253       338.5709 
 359   0.0000      12.579222       342.2980 
 360   0.0000      12.586748       342.5028 
 361   0.0000      12.598406       342.8200 
 362   0.0000      12.727824       346.3417 
 363   0.0000      12.734400       346.5206 
 364   0.0000      12.838812       349.3618 
 365   0.0000      12.961394       352.6975 
 366   0.0000      13.024754       354.4216 
 367   0.0000      13.030280       354.5719 
 368   0.0000      13.412333       364.9681 
 369   0.0000      13.475560       366.6886 
 370   0.0000      13.520097       367.9005 
 371   0.0000      13.961399       379.9090 
 372   0.0000      14.042039       382.1033 
 373   0.0000      14.095690       383.5632 
 374   0.0000      14.389886       391.5687 
 375   0.0000      14.439260       392.9122 
 376   0.0000      14.449371       393.1874 
 377   0.0000      14.772324       401.9754 
 378   0.0000      14.860392       404.3718 
 379   0.0000      15.057179       409.7267 
 380   0.0000      15.072057       410.1315 
 381   0.0000      15.092798       410.6959 
 382   0.0000      15.138916       411.9508 
 383   0.0000      15.228865       414.3985 
 384   0.0000      15.235097       414.5681 
 385   0.0000      15.236793       414.6142 
 386   0.0000      15.303574       416.4314 
 387   0.0000      15.365431       418.1146 
 388   0.0000      15.472677       421.0330 
 389   0.0000      15.503057       421.8596 
 390   0.0000      15.512591       422.1191 
 391   0.0000      15.592453       424.2922 
 392   0.0000      15.709134       427.4673 
 393   0.0000      15.756658       428.7605 
 394   0.0000      15.968325       434.5202 
 395   0.0000      15.973008       434.6476 
 396   0.0000      16.175615       440.1609 
 397   0.0000      16.284001       443.1102 
 398   0.0000      16.343324       444.7245 
 399   0.0000      16.540349       450.0858 
 400   0.0000      16.698070       454.3776 
 401   0.0000      16.708157       454.6521 
 402   0.0000      16.722826       455.0512 
 403   0.0000      16.737365       455.4469 
 404   0.0000      16.749882       455.7875 
 405   0.0000      17.007631       462.8012 
 406   0.0000      17.181340       467.5280 
 407   0.0000      17.182573       467.5616 
 408   0.0000      17.192122       467.8214 
 409   0.0000      17.196847       467.9500 
 410   0.0000      17.326902       471.4890 
 411   0.0000      17.487397       475.8563 
 412   0.0000      17.568738       478.0697 
 413   0.0000      17.651266       480.3154 
 414   0.0000      17.664192       480.6671 
 415   0.0000      17.810828       484.6573 
 416   0.0000      17.882585       486.6099 
 417   0.0000      18.013990       490.1856 
 418   0.0000      18.058691       491.4020 
 419   0.0000      18.389156       500.3944 
 420   0.0000      18.624086       506.7871 
 421   0.0000      18.903179       514.3816 
 422   0.0000      18.920455       514.8518 
 423   0.0000      19.228699       523.2395 
 424   0.0000      19.642184       534.4910 
 425   0.0000      20.253991       551.1391 
 426   0.0000      20.357538       553.9568 
 427   0.0000      20.501946       557.8863 
 428   0.0000      20.568992       559.7107 
 429   0.0000      21.045733       572.6835 
 430   0.0000      21.109251       574.4119 
 431   0.0000      21.921679       596.5192 
 432   0.0000      23.353137       635.4712 
 433   0.0000      23.380852       636.2253 
 434   0.0000      23.496253       639.3656 
 435   0.0000      23.597853       642.1302 
 436   0.0000      23.776090       646.9803 
 437   0.0000      25.033689       681.2013 
 438   0.0000      25.575213       695.9369 
 439   0.0000      25.968276       706.6327 
 440   0.0000      26.010299       707.7762 
 441   0.0000      26.344072       716.8586 
 442   0.0000      27.405050       745.7293 
 443   0.0000      27.989627       761.6365 
 444   0.0000      28.516278       775.9674 
 445   0.0000      28.584436       777.8220 
 446   0.0000      41.058956      1117.2710 
 447   0.0000      41.598006      1131.9393 
 448   0.0000      47.757581      1299.5498 
 449   0.0000      47.887281      1303.0792 
 450   0.0000      47.911004      1303.7247 
 451   0.0000      47.937390      1304.4427 
 452   0.0000      48.110970      1309.1660 
 453   0.0000      48.214309      1311.9780 
 454   0.0000      48.454891      1318.5246 
 455   0.0000      48.735337      1326.1559 
 456   0.0000      49.046913      1334.6344 
 457   0.0000      49.269115      1340.6808 
 458   0.0000      90.938810      2474.5708 
 459   0.0000      91.015658      2476.6620 
 460   0.0000      91.080045      2478.4140 
 461   0.0000      91.176909      2481.0498 
 462   0.0000      92.614159      2520.1594 
 463   0.0000      92.841817      2526.3543 
 464   0.0000     104.081969      2832.2144 
 465   0.0000     108.325615      2947.6898 

                 SPIN DOWN ORBITALS
  NO   OCC          E(Eh)            E(eV) 
   0   1.0000     -14.049879      -382.3167 
   1   1.0000     -14.049617      -382.3095 
   2   1.0000      -0.954469       -25.9724 
   3   1.0000      -0.628062       -17.0904 
   4   1.0000      -0.518151       -14.0996 
   5   1.0000      -0.367984       -10.0133 
   6   1.0000      -0.337023        -9.1709 
   7   1.0000      -0.215481        -5.8635 
   8   0.0000      -0.115512        -3.1432 
   9   0.0000      -0.037831        -1.0294 
  10   0.0000       0.003266         0.0889 
  11   0.0000       0.020096         0.5469 
  12   0.0000       0.022374         0.6088 
  13   0.0000       0.035316         0.9610 
  14   0.0000       0.040982         1.1152 
  15   0.0000       0.044860         1.2207 
  16   0.0000       0.049391         1.3440 
  17   0.0000       0.052362         1.4249 
  18   0.0000       0.066187         1.8010 
  19   0.0000       0.072996         1.9863 
  20   0.0000       0.092998         2.5306 
  21   0.0000       0.103700         2.8218 
  22   0.0000       0.107475         2.9246 
  23   0.0000       0.108624         2.9558 
  24   0.0000       0.113395         3.0856 
  25   0.0000       0.124316         3.3828 
  26   0.0000       0.129670         3.5285 
  27   0.0000       0.134055         3.6478 
  28   0.0000       0.136438         3.7127 
  29   0.0000       0.148935         4.0527 
  30   0.0000       0.155186         4.2228 
  31   0.0000       0.163204         4.4410 
  32   0.0000       0.172009         4.6806 
  33   0.0000       0.184571         5.0224 
  34   0.0000       0.186069         5.0632 
  35   0.0000       0.187859         5.1119 
  36   0.0000       0.208367         5.6700 
  37   0.0000       0.209633         5.7044 
  38   0.0000       0.215406         5.8615 
  39   0.0000       0.218092         5.9346 
  40   0.0000       0.225192         6.1278 
  41   0.0000       0.228914         6.2291 
  42   0.0000       0.229168         6.2360 
  43   0.0000       0.231359         6.2956 
  44   0.0000       0.241475         6.5709 
  45   0.0000       0.245748         6.6871 
  46   0.0000       0.251879         6.8540 
  47   0.0000       0.259700         7.0668 
  48   0.0000       0.270514         7.3611 
  49   0.0000       0.286441         7.7944 
  50   0.0000       0.296801         8.0764 
  51   0.0000       0.302536         8.2324 
  52   0.0000       0.325991         8.8707 
  53   0.0000       0.332182         9.0391 
  54   0.0000       0.332388         9.0447 
  55   0.0000       0.335857         9.1391 
  56   0.0000       0.341168         9.2836 
  57   0.0000       0.352059         9.5800 
  58   0.0000       0.369111        10.0440 
  59   0.0000       0.369984        10.0678 
  60   0.0000       0.370922        10.0933 
  61   0.0000       0.378513        10.2999 
  62   0.0000       0.379659        10.3310 
  63   0.0000       0.390396        10.6232 
  64   0.0000       0.393618        10.7109 
  65   0.0000       0.400046        10.8858 
  66   0.0000       0.407854        11.0983 
  67   0.0000       0.411000        11.1839 
  68   0.0000       0.420584        11.4447 
  69   0.0000       0.427760        11.6399 
  70   0.0000       0.430928        11.7261 
  71   0.0000       0.439284        11.9535 
  72   0.0000       0.458500        12.4764 
  73   0.0000       0.459880        12.5140 
  74   0.0000       0.463148        12.6029 
  75   0.0000       0.469474        12.7750 
  76   0.0000       0.470121        12.7926 
  77   0.0000       0.472587        12.8597 
  78   0.0000       0.484030        13.1711 
  79   0.0000       0.485612        13.2142 
  80   0.0000       0.491010        13.3611 
  81   0.0000       0.496057        13.4984 
  82   0.0000       0.503027        13.6881 
  83   0.0000       0.525551        14.3010 
  84   0.0000       0.529778        14.4160 
  85   0.0000       0.538942        14.6654 
  86   0.0000       0.539012        14.6673 
  87   0.0000       0.545987        14.8571 
  88   0.0000       0.564736        15.3673 
  89   0.0000       0.572016        15.5653 
  90   0.0000       0.591347        16.0914 
  91   0.0000       0.591884        16.1060 
  92   0.0000       0.592595        16.1253 
  93   0.0000       0.608605        16.5610 
  94   0.0000       0.611034        16.6271 
  95   0.0000       0.626856        17.0576 
  96   0.0000       0.630269        17.1505 
  97   0.0000       0.654550        17.8112 
  98   0.0000       0.662524        18.0282 
  99   0.0000       0.664529        18.0828 
 100   0.0000       0.664916        18.0933 
 101   0.0000       0.666776        18.1439 
 102   0.0000       0.670096        18.2342 
 103   0.0000       0.674676        18.3589 
 104   0.0000       0.687793        18.7158 
 105   0.0000       0.700422        19.0594 
 106   0.0000       0.710731        19.3400 
 107   0.0000       0.713351        19.4113 
 108   0.0000       0.722537        19.6612 
 109   0.0000       0.728233        19.8162 
 110   0.0000       0.744528        20.2596 
 111   0.0000       0.752307        20.4713 
 112   0.0000       0.761155        20.7121 
 113   0.0000       0.764901        20.8140 
 114   0.0000       0.775706        21.1080 
 115   0.0000       0.778936        21.1959 
 116   0.0000       0.780445        21.2370 
 117   0.0000       0.795157        21.6373 
 118   0.0000       0.799556        21.7570 
 119   0.0000       0.808298        21.9949 
 120   0.0000       0.814336        22.1592 
 121   0.0000       0.829938        22.5838 
 122   0.0000       0.834028        22.6951 
 123   0.0000       0.846945        23.0465 
 124   0.0000       0.847976        23.0746 
 125   0.0000       0.854680        23.2570 
 126   0.0000       0.862422        23.4677 
 127   0.0000       0.871295        23.7091 
 128   0.0000       0.885659        24.1000 
 129   0.0000       0.886589        24.1253 
 130   0.0000       0.888328        24.1726 
 131   0.0000       0.889393        24.2016 
 132   0.0000       0.891654        24.2631 
 133   0.0000       0.892142        24.2764 
 134   0.0000       0.912524        24.8310 
 135   0.0000       0.915960        24.9245 
 136   0.0000       0.923962        25.1423 
 137   0.0000       0.930362        25.3164 
 138   0.0000       0.938675        25.5427 
 139   0.0000       0.946203        25.7475 
 140   0.0000       0.976668        26.5765 
 141   0.0000       0.983866        26.7723 
 142   0.0000       0.985901        26.8277 
 143   0.0000       0.994210        27.0538 
 144   0.0000       0.997544        27.1445 
 145   0.0000       1.000799        27.2331 
 146   0.0000       1.003968        27.3194 
 147   0.0000       1.010530        27.4979 
 148   0.0000       1.023901        27.8618 
 149   0.0000       1.032191        28.0873 
 150   0.0000       1.042936        28.3797 
 151   0.0000       1.053348        28.6630 
 152   0.0000       1.098704        29.8973 
 153   0.0000       1.106028        30.0966 
 154   0.0000       1.157040        31.4847 
 155   0.0000       1.158689        31.5295 
 156   0.0000       1.163966        31.6731 
 157   0.0000       1.190958        32.4076 
 158   0.0000       1.203441        32.7473 
 159   0.0000       1.205796        32.8114 
 160   0.0000       1.206602        32.8333 
 161   0.0000       1.226497        33.3747 
 162   0.0000       1.237407        33.6716 
 163   0.0000       1.242544        33.8113 
 164   0.0000       1.264134        34.3988 
 165   0.0000       1.274015        34.6677 
 166   0.0000       1.289935        35.1009 
 167   0.0000       1.310617        35.6637 
 168   0.0000       1.320555        35.9341 
 169   0.0000       1.339975        36.4626 
 170   0.0000       1.371998        37.3340 
 171   0.0000       1.380354        37.5613 
 172   0.0000       1.388548        37.7843 
 173   0.0000       1.461185        39.7609 
 174   0.0000       1.484344        40.3910 
 175   0.0000       1.510774        41.1103 
 176   0.0000       1.534315        41.7508 
 177   0.0000       1.541971        41.9592 
 178   0.0000       1.547012        42.0963 
 179   0.0000       1.563775        42.5525 
 180   0.0000       1.597758        43.4772 
 181   0.0000       1.634513        44.4774 
 182   0.0000       1.644153        44.7397 
 183   0.0000       1.660353        45.1805 
 184   0.0000       1.669923        45.4409 
 185   0.0000       1.681535        45.7569 
 186   0.0000       1.711141        46.5625 
 187   0.0000       1.727919        47.0191 
 188   0.0000       1.760738        47.9121 
 189   0.0000       1.807007        49.1712 
 190   0.0000       1.836123        49.9635 
 191   0.0000       1.842480        50.1364 
 192   0.0000       1.854077        50.4520 
 193   0.0000       1.909308        51.9549 
 194   0.0000       1.935778        52.6752 
 195   0.0000       1.968367        53.5620 
 196   0.0000       2.003454        54.5168 
 197   0.0000       2.062692        56.1287 
 198   0.0000       2.066615        56.2355 
 199   0.0000       2.098904        57.1141 
 200   0.0000       2.116145        57.5832 
 201   0.0000       2.213796        60.2405 
 202   0.0000       2.217686        60.3463 
 203   0.0000       2.226739        60.5927 
 204   0.0000       2.318908        63.1007 
 205   0.0000       2.340877        63.6985 
 206   0.0000       2.357930        64.1625 
 207   0.0000       2.495481        67.9055 
 208   0.0000       2.538331        69.0715 
 209   0.0000       2.579128        70.1816 
 210   0.0000       2.635141        71.7058 
 211   0.0000       2.653988        72.2187 
 212   0.0000       2.691974        73.2523 
 213   0.0000       2.699789        73.4650 
 214   0.0000       2.824485        76.8582 
 215   0.0000       2.843896        77.3864 
 216   0.0000       2.849223        77.5313 
 217   0.0000       2.920047        79.4585 
 218   0.0000       2.948375        80.2294 
 219   0.0000       3.034737        82.5794 
 220   0.0000       3.054869        83.1272 
 221   0.0000       3.081645        83.8558 
 222   0.0000       3.166100        86.1540 
 223   0.0000       3.168469        86.2184 
 224   0.0000       3.183195        86.6191 
 225   0.0000       3.186479        86.7085 
 226   0.0000       3.271587        89.0244 
 227   0.0000       3.318079        90.2895 
 228   0.0000       3.356591        91.3375 
 229   0.0000       3.356694        91.3403 
 230   0.0000       3.407404        92.7202 
 231   0.0000       3.419337        93.0449 
 232   0.0000       3.480796        94.7173 
 233   0.0000       3.525095        95.9227 
 234   0.0000       3.551540        96.6423 
 235   0.0000       3.588537        97.6491 
 236   0.0000       3.624209        98.6197 
 237   0.0000       3.631124        98.8079 
 238   0.0000       3.679087       100.1130 
 239   0.0000       3.702158       100.7408 
 240   0.0000       3.705230       100.8244 
 241   0.0000       3.745587       101.9226 
 242   0.0000       3.787574       103.0651 
 243   0.0000       3.912306       106.4593 
 244   0.0000       3.918211       106.6200 
 245   0.0000       3.959280       107.7375 
 246   0.0000       4.063075       110.5619 
 247   0.0000       4.064929       110.6123 
 248   0.0000       4.071780       110.7988 
 249   0.0000       4.072857       110.8281 
 250   0.0000       4.155668       113.0815 
 251   0.0000       4.185798       113.9014 
 252   0.0000       4.244222       115.4911 
 253   0.0000       4.299305       116.9900 
 254   0.0000       4.394842       119.5897 
 255   0.0000       4.449298       121.0716 
 256   0.0000       4.479324       121.8886 
 257   0.0000       4.566730       124.2670 
 258   0.0000       4.592700       124.9737 
 259   0.0000       4.600920       125.1974 
 260   0.0000       4.735101       128.8487 
 261   0.0000       4.833445       131.5247 
 262   0.0000       4.870767       132.5403 
 263   0.0000       4.897519       133.2683 
 264   0.0000       4.971161       135.2722 
 265   0.0000       5.041695       137.1915 
 266   0.0000       5.048652       137.3808 
 267   0.0000       5.073139       138.0471 
 268   0.0000       5.248681       142.8239 
 269   0.0000       5.272394       143.4691 
 270   0.0000       5.329416       145.0208 
 271   0.0000       5.400036       146.9425 
 272   0.0000       5.422162       147.5445 
 273   0.0000       5.472080       148.9029 
 274   0.0000       5.652739       153.8189 
 275   0.0000       5.698670       155.0687 
 276   0.0000       5.815128       158.2377 
 277   0.0000       5.843799       159.0179 
 278   0.0000       5.937332       161.5630 
 279   0.0000       5.984867       162.8565 
 280   0.0000       6.111952       166.3147 
 281   0.0000       6.128773       166.7724 
 282   0.0000       6.217981       169.1999 
 283   0.0000       6.238278       169.7522 
 284   0.0000       6.280159       170.8918 
 285   0.0000       6.297209       171.3558 
 286   0.0000       6.369489       173.3226 
 287   0.0000       6.434671       175.0963 
 288   0.0000       6.505715       177.0295 
 289   0.0000       6.556722       178.4175 
 290   0.0000       6.648131       180.9049 
 291   0.0000       6.728738       183.0983 
 292   0.0000       6.752216       183.7371 
 293   0.0000       6.790675       184.7837 
 294   0.0000       6.944944       188.9815 
 295   0.0000       7.037509       191.5004 
 296   0.0000       7.058554       192.0730 
 297   0.0000       7.174215       195.2203 
 298   0.0000       7.228977       196.7105 
 299   0.0000       7.390892       201.1164 
 300   0.0000       7.451721       202.7716 
 301   0.0000       7.463040       203.0796 
 302   0.0000       7.694435       209.3762 
 303   0.0000       7.703322       209.6180 
 304   0.0000       7.812536       212.5899 
 305   0.0000       7.886639       214.6063 
 306   0.0000       8.024952       218.3700 
 307   0.0000       8.115009       220.8206 
 308   0.0000       8.321000       226.4259 
 309   0.0000       8.425290       229.2638 
 310   0.0000       8.460507       230.2221 
 311   0.0000       8.480591       230.7686 
 312   0.0000       8.642392       235.1714 
 313   0.0000       8.682755       236.2698 
 314   0.0000       8.885877       241.7970 
 315   0.0000       8.908701       242.4181 
 316   0.0000       8.928456       242.9556 
 317   0.0000       9.049770       246.2568 
 318   0.0000       9.225101       251.0278 
 319   0.0000       9.257654       251.9136 
 320   0.0000       9.283777       252.6244 
 321   0.0000       9.444212       256.9901 
 322   0.0000       9.455572       257.2992 
 323   0.0000       9.505147       258.6482 
 324   0.0000       9.677335       263.3337 
 325   0.0000       9.731813       264.8161 
 326   0.0000       9.778271       266.0803 
 327   0.0000      10.128987       275.6238 
 328   0.0000      10.196367       277.4573 
 329   0.0000      10.228883       278.3420 
 330   0.0000      10.302473       280.3445 
 331   0.0000      10.661970       290.1270 
 332   0.0000      10.807437       294.0853 
 333   0.0000      10.831516       294.7405 
 334   0.0000      10.951331       298.0009 
 335   0.0000      11.021288       299.9045 
 336   0.0000      11.051876       300.7368 
 337   0.0000      11.083692       301.6026 
 338   0.0000      11.170661       303.9691 
 339   0.0000      11.272821       306.7491 
 340   0.0000      11.358334       309.0760 
 341   0.0000      11.397010       310.1284 
 342   0.0000      11.403253       310.2983 
 343   0.0000      11.431971       311.0797 
 344   0.0000      11.446498       311.4751 
 345   0.0000      11.517527       313.4078 
 346   0.0000      11.561459       314.6033 
 347   0.0000      11.634422       316.5887 
 348   0.0000      11.679645       317.8193 
 349   0.0000      11.699125       318.3494 
 350   0.0000      11.845641       322.3363 
 351   0.0000      11.932510       324.7001 
 352   0.0000      12.052878       327.9755 
 353   0.0000      12.257424       333.5415 
 354   0.0000      12.258806       333.5791 
 355   0.0000      12.260727       333.6313 
 356   0.0000      12.326502       335.4212 
 357   0.0000      12.362304       336.3954 
 358   0.0000      12.442253       338.5709 
 359   0.0000      12.579222       342.2980 
 360   0.0000      12.586748       342.5028 
 361   0.0000      12.598406       342.8200 
 362   0.0000      12.727824       346.3417 
 363   0.0000      12.734400       346.5206 
 364   0.0000      12.838812       349.3618 
 365   0.0000      12.961394       352.6975 
 366   0.0000      13.024754       354.4216 
 367   0.0000      13.030280       354.5719 
 368   0.0000      13.412333       364.9681 
 369   0.0000      13.475560       366.6886 
 370   0.0000      13.520097       367.9005 
 371   0.0000      13.961399       379.9090 
 372   0.0000      14.042039       382.1033 
 373   0.0000      14.095690       383.5632 
 374   0.0000      14.389886       391.5687 
 375   0.0000      14.439260       392.9122 
 376   0.0000      14.449371       393.1874 
 377   0.0000      14.772324       401.9754 
 378   0.0000      14.860392       404.3718 
 379   0.0000      15.057179       409.7267 
 380   0.0000      15.072057       410.1315 
 381   0.0000      15.092798       410.6959 
 382   0.0000      15.138916       411.9508 
 383   0.0000      15.228865       414.3985 
 384   0.0000      15.235097       414.5681 
 385   0.0000      15.236793       414.6142 
 386   0.0000      15.303574       416.4314 
 387   0.0000      15.365431       418.1146 
 388   0.0000      15.472677       421.0330 
 389   0.0000      15.503057       421.8596 
 390   0.0000      15.512591       422.1191 
 391   0.0000      15.592453       424.2922 
 392   0.0000      15.709134       427.4673 
 393   0.0000      15.756658       428.7605 
 394   0.0000      15.968325       434.5202 
 395   0.0000      15.973008       434.6476 
 396   0.0000      16.175615       440.1609 
 397   0.0000      16.284001       443.1102 
 398   0.0000      16.343324       444.7245 
 399   0.0000      16.540349       450.0858 
 400   0.0000      16.698070       454.3776 
 401   0.0000      16.708157       454.6521 
 402   0.0000      16.722826       455.0512 
 403   0.0000      16.737365       455.4469 
 404   0.0000      16.749882       455.7875 
 405   0.0000      17.007631       462.8012 
 406   0.0000      17.181340       467.5280 
 407   0.0000      17.182573       467.5616 
 408   0.0000      17.192122       467.8214 
 409   0.0000      17.196847       467.9500 
 410   0.0000      17.326902       471.4890 
 411   0.0000      17.487397       475.8563 
 412   0.0000      17.568738       478.0697 
 413   0.0000      17.651266       480.3154 
 414   0.0000      17.664192       480.6671 
 415   0.0000      17.810828       484.6573 
 416   0.0000      17.882585       486.6099 
 417   0.0000      18.013990       490.1856 
 418   0.0000      18.058691       491.4020 
 419   0.0000      18.389156       500.3944 
 420   0.0000      18.624086       506.7871 
 421   0.0000      18.903179       514.3816 
 422   0.0000      18.920455       514.8518 
 423   0.0000      19.228699       523.2395 
 424   0.0000      19.642184       534.4910 
 425   0.0000      20.253991       551.1391 
 426   0.0000      20.357538       553.9568 
 427   0.0000      20.501946       557.8863 
 428   0.0000      20.568992       559.7107 
 429   0.0000      21.045733       572.6835 
 430   0.0000      21.109251       574.4119 
 431   0.0000      21.921679       596.5192 
 432   0.0000      23.353137       635.4712 
 433   0.0000      23.380852       636.2253 
 434   0.0000      23.496253       639.3656 
 435   0.0000      23.597853       642.1302 
 436   0.0000      23.776090       646.9803 
 437   0.0000      25.033689       681.2013 
 438   0.0000      25.575213       695.9369 
 439   0.0000      25.968276       706.6327 
 440   0.0000      26.010299       707.7762 
 441   0.0000      26.344072       716.8586 
 442   0.0000      27.405050       745.7293 
 443   0.0000      27.989627       761.6365 
 444   0.0000      28.516278       775.9674 
 445   0.0000      28.584436       777.8220 
 446   0.0000      41.058956      1117.2710 
 447   0.0000      41.598006      1131.9393 
 448   0.0000      47.757581      1299.5498 
 449   0.0000      47.887281      1303.0792 
 450   0.0000      47.911004      1303.7247 
 451   0.0000      47.937390      1304.4427 
 452   0.0000      48.110970      1309.1660 
 453   0.0000      48.214309      1311.9780 
 454   0.0000      48.454891      1318.5246 
 455   0.0000      48.735337      1326.1559 
 456   0.0000      49.046913      1334.6344 
 457   0.0000      49.269115      1340.6808 
 458   0.0000      90.938810      2474.5708 
 459   0.0000      91.015658      2476.6620 
 460   0.0000      91.080045      2478.4140 
 461   0.0000      91.176909      2481.0498 
 462   0.0000      92.614159      2520.1594 
 463   0.0000      92.841817      2526.3543 
 464   0.0000     104.081969      2832.2144 
 465   0.0000     108.325615      2947.6898 

                    ********************************
                    * MULLIKEN POPULATION ANALYSIS *
                    ********************************

--------------------------------------------
MULLIKEN ATOMIC CHARGES AND SPIN POPULATIONS
--------------------------------------------
   0 N :   -0.102067    0.000000
   1 H :    0.102053   -0.000000
   2 N :   -0.101778    0.000000
   3 H :    0.101792   -0.000000
Sum of atomic charges         :   -0.0000000
Sum of atomic spin populations:    0.0000000

-----------------------------------------------------
MULLIKEN REDUCED ORBITAL CHARGES AND SPIN POPULATIONS
-----------------------------------------------------
CHARGE
  0 N s       :     3.715945  s :     3.715945
      pz      :     1.163463  p :     3.328385
      px      :     1.217307
      py      :     0.947614
      dz2     :     0.014928  d :     0.050611
      dxz     :     0.005740
      dyz     :    -0.001363
      dx2y2   :     0.008567
      dxy     :     0.022739
      f0      :     0.000485  f :     0.006437
      f+1     :     0.001225
      f-1     :    -0.000009
      f+2     :     0.001826
      f-2     :     0.000914
      f+3     :     0.000363
      f-3     :     0.001632
      g0      :     0.000087  g :     0.000629
      g+1     :     0.000064
      g-1     :     0.000008
      g+2     :    -0.000133
      g-2     :    -0.000032
      g+3     :     0.000338
      g-3     :     0.000254
      g+4     :     0.000093
      g-4     :    -0.000051
      h0      :     0.000003  h :     0.000061
      h+1     :     0.000006
      h-1     :     0.000001
      h+2     :     0.000007
      h-2     :     0.000000
      h+3     :    -0.000009
      h-3     :    -0.000000
      h+4     :     0.000065
      h-4     :     0.000016
      h+5     :     0.000013
      h-5     :    -0.000042
  1 H s       :     0.815869  s :     0.815869
      pz      :     0.035182  p :     0.073794
      px      :     0.015992
      py      :     0.022620
      dz2     :     0.002394  d :     0.007556
      dxz     :    -0.000144
      dyz     :     0.004904
      dx2y2   :     0.000568
      dxy     :    -0.000166
      f0      :     0.000620  f :     0.000808
      f+1     :    -0.000651
      f-1     :     0.001503
      f+2     :    -0.000296
      f-2     :    -0.000287
      f+3     :     0.000233
      f-3     :    -0.000314
      g0      :     0.000068  g :    -0.000080
      g+1     :    -0.000018
      g-1     :     0.000209
      g+2     :    -0.000212
      g-2     :     0.000032
      g+3     :     0.000013
      g-3     :    -0.000109
      g+4     :     0.000000
      g-4     :    -0.000062
  2 N s       :     3.715852  s :     3.715852
      pz      :     1.442665  p :     3.328159
      px      :     0.937821
      py      :     0.947673
      dz2     :     0.005642  d :     0.050629
      dxz     :     0.015565
      dyz     :     0.009895
      dx2y2   :     0.008027
      dxy     :     0.011500
      f0      :    -0.000541  f :     0.006450
      f+1     :     0.002104
      f-1     :     0.000004
      f+2     :     0.000358
      f-2     :     0.000568
      f+3     :     0.001987
      f-3     :     0.001970
      g0      :    -0.000133  g :     0.000627
      g+1     :     0.000046
      g-1     :     0.000009
      g+2     :    -0.000038
      g-2     :    -0.000022
      g+3     :     0.000222
      g-3     :    -0.000109
      g+4     :     0.000351
      g-4     :     0.000301
      h0      :    -0.000033  h :     0.000060
      h+1     :     0.000009
      h-1     :    -0.000002
      h+2     :    -0.000017
      h-2     :     0.000004
      h+3     :     0.000059
      h-3     :    -0.000017
      h+4     :     0.000016
      h-4     :    -0.000019
      h+5     :     0.000052
      h-5     :     0.000008
  3 H s       :     0.816229  s :     0.816229
      pz      :     0.028369  p :     0.073695
      px      :     0.022774
      py      :     0.022552
      dz2     :    -0.000282  d :     0.007560
      dxz     :     0.000241
      dyz     :     0.001827
      dx2y2   :     0.002887
      dxy     :     0.002887
      f0      :     0.000074  f :     0.000806
      f+1     :    -0.000327
      f-1     :    -0.000005
      f+2     :    -0.000274
      f-2     :     0.001026
      f+3     :     0.000442
      f-3     :    -0.000129
      g0      :    -0.000046  g :    -0.000082
      g+1     :     0.000034
      g-1     :     0.000002
      g+2     :    -0.000074
      g-2     :    -0.000015
      g+3     :    -0.000120
      g-3     :     0.000215
      g+4     :     0.000056
      g-4     :    -0.000134

SPIN
  0 N s       :     0.000000  s :     0.000000
      pz      :    -0.000000  p :    -0.000000
      px      :     0.000000
      py      :    -0.000000
      dz2     :    -0.000000  d :    -0.000000
      dxz     :    -0.000000
      dyz     :     0.000000
      dx2y2   :     0.000000
      dxy     :    -0.000000
      f0      :    -0.000000  f :    -0.000000
      f+1     :    -0.000000
      f-1     :     0.000000
      f+2     :     0.000000
      f-2     :    -0.000000
      f+3     :     0.000000
      f-3     :     0.000000
      g0      :    -0.000000  g :    -0.000000
      g+1     :    -0.000000
      g-1     :    -0.000000
      g+2     :    -0.000000
      g-2     :    -0.000000
      g+3     :     0.000000
      g-3     :    -0.000000
      g+4     :    -0.000000
      g-4     :     0.000000
      h0      :    -0.000000  h :     0.000000
      h+1     :     0.000000
      h-1     :     0.000000
      h+2     :    -0.000000
      h-2     :    -0.000000
      h+3     :     0.000000
      h-3     :    -0.000000
      h+4     :     0.000000
      h-4     :    -0.000000
      h+5     :     0.000000
      h-5     :     0.000000
  1 H s       :    -0.000000  s :    -0.000000
      pz      :    -0.000000  p :    -0.000000
      px      :     0.000000
      py      :     0.000000
      dz2     :    -0.000000  d :     0.000000
      dxz     :     0.000000
      dyz     :     0.000000
      dx2y2   :     0.000000
      dxy     :     0.000000
      f0      :    -0.000000  f :     0.000000
      f+1     :     0.000000
      f-1     :     0.000000
      f+2     :     0.000000
      f-2     :     0.000000
      f+3     :     0.000000
      f-3     :    -0.000000
      g0      :    -0.000000  g :    -0.000000
      g+1     :    -0.000000
      g-1     :     0.000000
      g+2     :     0.000000
      g-2     :     0.000000
      g+3     :    -0.000000
      g-3     :     0.000000
      g+4     :     0.000000
      g-4     :    -0.000000
  2 N s       :     0.000000  s :     0.000000
      pz      :    -0.000000  p :    -0.000000
      px      :    -0.000000
      py      :     0.000000
      dz2     :     0.000000  d :    -0.000000
      dxz     :    -0.000000
      dyz     :     0.000000
      dx2y2   :    -0.000000
      dxy     :     0.000000
      f0      :    -0.000000  f :    -0.000000
      f+1     :    -0.000000
      f-1     :    -0.000000
      f+2     :    -0.000000
      f-2     :    -0.000000
      f+3     :     0.000000
      f-3     :    -0.000000
      g0      :    -0.000000  g :    -0.000000
      g+1     :     0.000000
      g-1     :     0.000000
      g+2     :    -0.000000
      g-2     :    -0.000000
      g+3     :    -0.000000
      g-3     :     0.000000
      g+4     :     0.000000
      g-4     :    -0.000000
      h0      :    -0.000000  h :    -0.000000
      h+1     :    -0.000000
      h-1     :    -0.000000
      h+2     :    -0.000000
      h-2     :     0.000000
      h+3     :     0.000000
      h-3     :     0.000000
      h+4     :     0.000000
      h-4     :    -0.000000
      h+5     :     0.000000
      h-5     :    -0.000000
  3 H s       :    -0.000000  s :    -0.000000
      pz      :    -0.000000  p :    -0.000000
      px      :     0.000000
      py      :    -0.000000
      dz2     :    -0.000000  d :     0.000000
      dxz     :     0.000000
      dyz     :    -0.000000
      dx2y2   :     0.000000
      dxy     :    -0.000000
      f0      :     0.000000  f :     0.000000
      f+1     :    -0.000000
      f-1     :    -0.000000
      f+2     :     0.000000
      f-2     :    -0.000000
      f+3     :     0.000000
      f-3     :    -0.000000
      g0      :    -0.000000  g :     0.000000
      g+1     :     0.000000
      g-1     :    -0.000000
      g+2     :    -0.000000
      g-2     :    -0.000000
      g+3     :     0.000000
      g-3     :    -0.000000
      g+4     :     0.000000
      g-4     :    -0.000000


                     *******************************
                     * LOEWDIN POPULATION ANALYSIS *
                     *******************************

-------------------------------------------
LOEWDIN ATOMIC CHARGES AND SPIN POPULATIONS
-------------------------------------------
   0 N :    0.637884   -0.000000
   1 H :   -0.637886    0.000000
   2 N :    0.637887    0.000000
   3 H :   -0.637885   -0.000000

----------------------------------------------------
LOEWDIN REDUCED ORBITAL CHARGES AND SPIN POPULATIONS
----------------------------------------------------
CHARGE
  0 N s       :     2.836798  s :     2.836798
      pz      :     1.027075  p :     2.841162
      px      :     1.113285
      py      :     0.700802
      dz2     :     0.121765  d :     0.459543
      dxz     :     0.174818
      dyz     :     0.007605
      dx2y2   :     0.103180
      dxy     :     0.052175
      f0      :     0.028452  f :     0.165015
      f+1     :     0.043139
      f-1     :     0.000859
      f+2     :     0.039015
      f-2     :     0.007253
      f+3     :     0.028254
      f-3     :     0.018041
      g0      :     0.005573  g :     0.045877
      g+1     :     0.004079
      g-1     :     0.000403
      g+2     :     0.011547
      g-2     :     0.000010
      g+3     :     0.008352
      g-3     :     0.002668
      g+4     :     0.009059
      g-4     :     0.004185
      h0      :     0.000121  h :     0.013721
      h+1     :     0.002482
      h-1     :     0.000041
      h+2     :     0.000717
      h-2     :     0.000048
      h+3     :     0.002601
      h-3     :     0.000053
      h+4     :     0.002128
      h-4     :     0.000929
      h+5     :     0.003410
      h-5     :     0.001192
  1 H s       :     0.653170  s :     0.653170
      pz      :     0.239273  p :     0.425659
      px      :     0.107954
      py      :     0.078432
      dz2     :     0.108334  d :     0.344342
      dxz     :     0.132753
      dyz     :     0.078398
      dx2y2   :     0.019323
      dxy     :     0.005533
      f0      :     0.027630  f :     0.146049
      f+1     :     0.064002
      f-1     :     0.022704
      f+2     :     0.016295
      f-2     :     0.006502
      f+3     :     0.007455
      f-3     :     0.001461
      g0      :     0.007393  g :     0.068665
      g+1     :     0.027417
      g-1     :     0.003169
      g+2     :     0.012835
      g-2     :     0.004262
      g+3     :     0.007919
      g-3     :     0.002891
      g+4     :     0.002395
      g-4     :     0.000385
  2 N s       :     2.836798  s :     2.836798
      pz      :     1.144682  p :     2.841159
      px      :     0.995676
      py      :     0.700800
      dz2     :     0.087320  d :     0.459543
      dxz     :     0.181527
      dyz     :     0.009984
      dx2y2   :     0.130916
      dxy     :     0.049797
      f0      :     0.009391  f :     0.165015
      f+1     :     0.079071
      f-1     :     0.000400
      f+2     :     0.027074
      f-2     :     0.009379
      f+3     :     0.023324
      f-3     :     0.016376
      g0      :     0.005287  g :     0.045877
      g+1     :     0.006278
      g-1     :     0.000227
      g+2     :     0.014722
      g-2     :     0.000029
      g+3     :     0.006668
      g-3     :     0.003149
      g+4     :     0.005656
      g-4     :     0.003861
      h0      :     0.001166  h :     0.013721
      h+1     :     0.000742
      h-1     :     0.000004
      h+2     :     0.002533
      h-2     :     0.000102
      h+3     :     0.003816
      h-3     :     0.000094
      h+4     :     0.001815
      h-4     :     0.000646
      h+5     :     0.001387
      h-5     :     0.001415
  3 H s       :     0.653171  s :     0.653171
      pz      :     0.188663  p :     0.425658
      px      :     0.158564
      py      :     0.078431
      dz2     :     0.098551  d :     0.344342
      dxz     :     0.088460
      dyz     :     0.026524
      dx2y2   :     0.073400
      dxy     :     0.057407
      f0      :     0.025739  f :     0.146049
      f+1     :     0.034389
      f-1     :     0.001433
      f+2     :     0.029567
      f-2     :     0.011807
      f+3     :     0.025686
      f-3     :     0.017427
      g0      :     0.003462  g :     0.068666
      g+1     :     0.019546
      g-1     :     0.000030
      g+2     :     0.008889
      g-2     :     0.000100
      g+3     :     0.013884
      g-3     :     0.002370
      g+4     :     0.012178
      g-4     :     0.008207

SPIN
  0 N s       :     0.000000  s :     0.000000
      pz      :    -0.000000  p :    -0.000000
      px      :     0.000000
      py      :    -0.000000
      dz2     :     0.000000  d :     0.000000
      dxz     :    -0.000000
      dyz     :     0.000000
      dx2y2   :     0.000000
      dxy     :     0.000000
      f0      :     0.000000  f :    -0.000000
      f+1     :    -0.000000
      f-1     :     0.000000
      f+2     :     0.000000
      f-2     :     0.000000
      f+3     :    -0.000000
      f-3     :     0.000000
      g0      :     0.000000  g :     0.000000
      g+1     :     0.000000
      g-1     :    -0.000000
      g+2     :     0.000000
      g-2     :    -0.000000
      g+3     :    -0.000000
      g-3     :     0.000000
      g+4     :     0.000000
      g-4     :     0.000000
      h0      :    -0.000000  h :     0.000000
      h+1     :     0.000000
      h-1     :    -0.000000
      h+2     :    -0.000000
      h-2     :     0.000000
      h+3     :    -0.000000
      h-3     :    -0.000000
      h+4     :     0.000000
      h-4     :    -0.000000
      h+5     :     0.000000
      h-5     :     0.000000
  1 H s       :     0.000000  s :     0.000000
      pz      :    -0.000000  p :    -0.000000
      px      :    -0.000000
      py      :     0.000000
      dz2     :    -0.000000  d :    -0.000000
      dxz     :    -0.000000
      dyz     :    -0.000000
      dx2y2   :     0.000000
      dxy     :     0.000000
      f0      :    -0.000000  f :    -0.000000
      f+1     :     0.000000
      f-1     :    -0.000000
      f+2     :     0.000000
      f-2     :    -0.000000
      f+3     :    -0.000000
      f-3     :    -0.000000
      g0      :     0.000000  g :    -0.000000
      g+1     :    -0.000000
      g-1     :     0.000000
      g+2     :    -0.000000
      g-2     :     0.000000
      g+3     :     0.000000
      g-3     :     0.000000
      g+4     :     0.000000
      g-4     :    -0.000000
  2 N s       :     0.000000  s :     0.000000
      pz      :     0.000000  p :     0.000000
      px      :     0.000000
      py      :     0.000000
      dz2     :    -0.000000  d :    -0.000000
      dxz     :    -0.000000
      dyz     :    -0.000000
      dx2y2   :    -0.000000
      dxy     :    -0.000000
      f0      :     0.000000  f :    -0.000000
      f+1     :    -0.000000
      f-1     :    -0.000000
      f+2     :    -0.000000
      f-2     :    -0.000000
      f+3     :     0.000000
      f-3     :    -0.000000
      g0      :    -0.000000  g :    -0.000000
      g+1     :     0.000000
      g-1     :     0.000000
      g+2     :     0.000000
      g-2     :     0.000000
      g+3     :    -0.000000
      g-3     :     0.000000
      g+4     :     0.000000
      g-4     :    -0.000000
      h0      :    -0.000000  h :    -0.000000
      h+1     :     0.000000
      h-1     :     0.000000
      h+2     :     0.000000
      h-2     :     0.000000
      h+3     :    -0.000000
      h-3     :    -0.000000
      h+4     :    -0.000000
      h-4     :    -0.000000
      h+5     :    -0.000000
      h-5     :    -0.000000
  3 H s       :    -0.000000  s :    -0.000000
      pz      :    -0.000000  p :    -0.000000
      px      :     0.000000
      py      :    -0.000000
      dz2     :    -0.000000  d :     0.000000
      dxz     :     0.000000
      dyz     :     0.000000
      dx2y2   :     0.000000
      dxy     :     0.000000
      f0      :     0.000000  f :    -0.000000
      f+1     :    -0.000000
      f-1     :     0.000000
      f+2     :    -0.000000
      f-2     :     0.000000
      f+3     :    -0.000000
      f-3     :     0.000000
      g0      :     0.000000  g :     0.000000
      g+1     :     0.000000
      g-1     :     0.000000
      g+2     :     0.000000
      g-2     :    -0.000000
      g+3     :     0.000000
      g-3     :     0.000000
      g+4     :     0.000000
      g-4     :    -0.000000


                      *****************************
                      * MAYER POPULATION ANALYSIS *
                      *****************************

  NA   - Mulliken gross atomic population
  ZA   - Total nuclear charge
  QA   - Mulliken gross atomic charge
  VA   - Mayer's total valence
  BVA  - Mayer's bonded valence
  FA   - Mayer's free valence

  ATOM       NA         ZA         QA         VA         BVA        FA
  0 N      7.1021     7.0000    -0.1021     2.6521     2.6521    -0.0000
  1 H      0.8979     1.0000     0.1021     1.0367     1.0367    -0.0000
  2 N      7.1018     7.0000    -0.1018     2.6523     2.6523     0.0000
  3 H      0.8982     1.0000     0.1018     1.0365     1.0365     0.0000

  Mayer bond orders larger than 0.1
B(  0-N ,  1-H ) :   0.9984 B(  0-N ,  2-N ) :   1.6084 B(  2-N ,  3-H ) :   0.9985 


-------
TIMINGS
-------

Total SCF time: 0 days 0 hours 20 min 38 sec 

Total time                  ....    1238.152 sec
Sum of individual times     ....    1237.127 sec  ( 99.9%)

Fock matrix formation       ....    1232.310 sec  ( 99.5%)
  XC integration            ....      22.324 sec  (  1.8% of F)
    Basis function eval.    ....       1.183 sec  (  5.3% of XC)
    Density eval.           ....       5.749 sec  ( 25.8% of XC)
    XC-Functional eval.     ....       0.128 sec  (  0.6% of XC)
    XC-Potential eval.      ....      14.757 sec  ( 66.1% of XC)
Diagonalization             ....       1.905 sec  (  0.2%)
Density matrix formation    ....       0.025 sec  (  0.0%)
Population analysis         ....       0.336 sec  (  0.0%)
Initial guess               ....       1.158 sec  (  0.1%)
Orbital Transformation      ....       0.000 sec  (  0.0%)
Orbital Orthonormalization  ....       0.000 sec  (  0.0%)
DIIS solution               ....       1.001 sec  (  0.1%)
Grid generation             ....       0.392 sec  (  0.0%)

-------------------------   --------------------
FINAL SINGLE POINT ENERGY      -110.565471134837
-------------------------   --------------------


                            ***************************************
                            *     ORCA property calculations      *
                            ***************************************

                                    ---------------------
                                    Active property flags
                                    ---------------------
   (+) Dipole Moment
   (+) Polarizability


------------------------------------------------------------------------------
                       ORCA ELECTRIC PROPERTIES CALCULATION
------------------------------------------------------------------------------

Dipole Moment Calculation                       ... on
Quadrupole Moment Calculation                   ... off
Polarizability Calculation                      ... Analytic (CP-SCF)
GBWName                                         ... n2h2_pbe.gbw
Electron density file                           ... n2h2_pbe.scfp.tmp
The origin for moment calculation is the CENTER OF MASS  = ( 1.145510,  0.000000 -0.320933)

-------------
DIPOLE MOMENT
-------------
                                X             Y             Z
Electronic contribution:     -0.21828      -0.00000      -0.55310
Nuclear contribution   :      0.61763       0.00000       1.56499
                        -----------------------------------------
Total Dipole Moment    :      0.39935      -0.00000       1.01189
                        -----------------------------------------
Magnitude (a.u.)       :      1.08785
Magnitude (Debye)      :      2.76509



--------------------
Rotational spectrum 
--------------------
 
Rotational constants in cm-1:     9.693880     1.294345     1.141879 
Rotational constants in MHz : 290615.212533 38803.474450 34232.666269 

 Dipole components along the rotational axes: 
x,y,z [a.u.] :     0.000006     1.087848    -0.000000 
x,y,z [Debye]:     0.000014     2.765090    -0.000000 

 
Transforming and storing MO dipole integrals   ... done

                ... starting polarizability calculation

Opening the Dipole integral file               ... (n2h2_pbe.dmo.tmp) done
Reading Dipole-MO integrals                    ... done
Solving CP-SCF equations                       ... 

           ************************************************************
           *        Program running with 4 parallel MPI-processes     *
           *              working on a common directory               *
           ************************************************************

------------------------------------------------------------------------------
                           ORCA CP-SCF CALCULATION
------------------------------------------------------------------------------

Input orbitals are from        ... n2h2_pbe.gbw
Input Perturbation             ... n2h2_pbe.cpv.tmp
Wavefunction output            ... n2h2_pbe.cpu.tmp
Perturbation mode              ... Real perturbation (singlet)
Solver                         ... POPLE
Max. number of iterations      ... 200
Convergence tolerance          ... 1.000e-06
Integral handling              ... Direct
Number of perturbations        ... 3
Number of operators            ... 2
Orbital ranges used for CP-SCF:
 Operator 0:  Orbitals   0...  7  to   8...465
 Operator 1:  Orbitals   0...  7  to   8...465
DFT calculation                         ... on
Exchange functional (SCF)               ... PBE
Exchange functional (CP-SCF)            ... PBE
   PBE kappa parameter  XKappa (SCF)    ...  0.804000
   PBE kappa parameter  XKappa (CP-SCF) ...  0.804000
   PBE mue parameter   XMuePBE (SCF)    ...  0.219520
   PBE mue parameter   XMuePBE (CP-SCF) ...  0.219520
Correlation functional (SCF)            ... PBE
Correlation functional (CP-SCF)         ... PBE
   PBE beta parameter CBetaPBE (SCF)    ...  0.066725
   PBE beta parameter CBetaPBE (CP-SCF) ...  0.066725
 LDA part of GGA corr.  LDAOpt (SCF)    ... PW91-LDA
 LDA part of GGA corr.  LDAOpt (CP-SCF) ... PW91-LDA
Variables per vector in CP-SCF ... 7328
Number of vectors sought       ... 3
Recalculating density on grid  ... done
Calculating the xc-kernel      ... done
     CP-SCF ITERATION   0: 
     CP-SCF ITERATION   1:      1.050217594562
     CP-SCF ITERATION   2:      0.078158111876
     CP-SCF ITERATION   3:      0.001672876574
     CP-SCF ITERATION   4:      0.000017128981
     CP-SCF ITERATION   5:      0.000000345920
done
Reading CP-SCF coefficients                    ... done
Doing the polarizability tensor   ... done
Cleaning up                                    ... done

-------------------------
THE POLARIZABILITY TENSOR
-------------------------

The raw cartesian tensor (atomic units):
   25.53924     -0.00000     -2.01064  
   -0.00000     14.58646      0.00000  
   -2.01064      0.00000     21.23929  
diagonalized tensor: 
   14.58646     20.44562     26.33291  

   -0.00000     -0.36717     -0.93015  
    1.00000     -0.00000      0.00000  
   -0.00000     -0.93015      0.36717  

Isotropic polarizability :  20.45500


Timings for individual modules:

Sum of individual times         ...     2223.157 sec (=  37.053 min)
GTO integral calculation        ...       10.087 sec (=   0.168 min)   0.5 %
SCF iterations                  ...     1246.005 sec (=  20.767 min)  56.0 %
Solution of CP-SCF eqns.        ...      967.065 sec (=  16.118 min)  43.5 %
                             ****ORCA TERMINATED NORMALLY****
TOTAL RUN TIME: 0 days 0 hours 37 minutes 4 seconds 405 msec
