
                                 *****************
                                 * O   R   C   A *
                                 *****************

           --- An Ab Initio, DFT and Semiempirical electronic structure package ---

                  #######################################################
                  #                        -***-                        #
                  #          Department of theory and spectroscopy      #
                  #               Directorship: Frank Neese             #
                  #        Max Planck Institute fuer Kohlenforschung    #
                  #                Kaiser Wilhelm Platz 1               #
                  #                 D-45470 Muelheim/Ruhr               #
                  #                      Germany                        #
                  #                                                     #
                  #                  All rights reserved                #
                  #                        -***-                        #
                  #######################################################


                         Program Version 4.1.2  - RELEASE  -


 With contributions from (in alphabetic order):
   Daniel Aravena         : Magnetic Properties
   Michael Atanasov       : Ab Initio Ligand Field Theory
   Alexander A. Auer      : GIAO ZORA
   Ute Becker             : Parallelization
   Giovanni Bistoni       : ED, Open-shell LED
   Martin Brehm           : Molecular dynamics
   Dmytro Bykov           : SCF Hessian
   Vijay G. Chilkuri      : MRCI spin determinant printing
   Dipayan Datta          : RHF DLPNO-CCSD density
   Achintya Kumar Dutta   : EOM-CC, STEOM-CC
   Dmitry Ganyushin       : Spin-Orbit,Spin-Spin,Magnetic field MRCI
   Miquel Garcia          : C-PCM Hessian
   Yang Guo               : DLPNO-NEVPT2, CIM, IAO-localization
   Andreas Hansen         : Spin unrestricted coupled pair/coupled cluster methods
   Benjamin Helmich-Paris : CASSCF linear response (MC-RPA)
   Lee Huntington         : MR-EOM, pCC
   Robert Izsak           : Overlap fitted RIJCOSX, COSX-SCS-MP3, EOM
   Christian Kollmar      : KDIIS, OOCD, Brueckner-CCSD(T), CCSD density
   Simone Kossmann        : Meta GGA functionals, TD-DFT gradient, OOMP2, MP2 Hessian
   Martin Krupicka        : AUTO-CI
   Lucas Lang             : DCDCAS
   Dagmar Lenk            : GEPOL surface, SMD
   Dimitrios Liakos       : Extrapolation schemes; parallel MDCI
   Dimitrios Manganas     : ROCIS; embedding schemes
   Dimitrios Pantazis     : SARC Basis sets
   Taras Petrenko         : DFT Hessian,TD-DFT gradient, ASA, ECA, R-Raman, ABS, FL, XAS/XES, NRVS
   Peter Pinski           : DLPNO-MP2, DLPNO-MP2 Gradient
   Christoph Reimann      : Effective Core Potentials
   Marius Retegan         : Local ZFS, SOC
   Christoph Riplinger    : Optimizer, TS searches, QM/MM, DLPNO-CCSD(T), (RO)-DLPNO pert. Triples
   Tobias Risthaus        : Range-separated hybrids, TD-DFT gradient, RPA, STAB
   Michael Roemelt        : Restricted open shell CIS
   Masaaki Saitow         : Open-shell DLPNO
   Barbara Sandhoefer     : DKH picture change effects
   Avijit Sen             : IP-ROCIS
   Kantharuban Sivalingam : CASSCF convergence, NEVPT2, FIC-MRCI
   Bernardo de Souza      : ESD, SOC TD-DFT
   Georgi Stoychev        : AutoAux, RI-MP2 NMR
   Willem Van den Heuvel  : Paramagnetic NMR
   Boris Wezisla          : Elementary symmetry handling
   Frank Wennmohs         : Technical directorship


 We gratefully acknowledge several colleagues who have allowed us to
 interface, adapt or use parts of their codes:
   Stefan Grimme, W. Hujo, H. Kruse,             : VdW corrections, initial TS optimization,
                  C. Bannwarth                     DFT functionals, gCP, sTDA/sTD-DF
   Ed Valeev                                     : LibInt (2-el integral package), F12 methods
   Garnet Chan, S. Sharma, J. Yang, R. Olivares  : DMRG
   Ulf Ekstrom                                   : XCFun DFT Library
   Mihaly Kallay                                 : mrcc  (arbitrary order and MRCC methods)
   Andreas Klamt, Michael Diedenhofen            : otool_cosmo (COSMO solvation model)
   Jiri Pittner, Ondrej Demel                    : Mk-CCSD
   Frank Weinhold                                : gennbo (NPA and NBO analysis)
   Christopher J. Cramer and Donald G. Truhlar   : smd solvation model
   Lars Goerigk                                  : TD-DFT with DH, B97 family of functionals
   V. Asgeirsson, H. Jonsson                     : NEB implementation
   FAccTs GmbH                                   : IRC, NEB, NEB-TS, Multilevel


 Your calculation uses the libint2 library for the computation of 2-el integrals
 For citations please refer to: http://libint.valeyev.net

 This ORCA versions uses:
   CBLAS   interface :  Fast vector & matrix operations
   LAPACKE interface :  Fast linear algebra routines
   SCALAPACK package :  Parallel linear algebra routines


----- Orbital basis set information -----
Your calculation utilizes the basis: aug-pc-4
   H, C-F              : F. Jensen, J. Chem. Phys. 115, 9113 (2001).
                         F. Jensen, J. Chem. Phys. 116, 7372 (2002).
                         F. Jensen, J. Chem. Phys. 117, 9234 (2002).
   Si-Cl               : F. Jensen, T. Helgaker, J. Chem. Phys. 121, 3463 (2004).
   He-B, Ne-Mg, Al, Ar : F. Jensen, J. Phys. Chem. A 111, 11198 (2007).
   K, Ca, Ga-Kr        : F. Jensen, J. Chem. Phys. 136, 094110 (2012).
   Sc-Zn               : F. Jensen, J. Chem. Phys. 138, 014107 (2013).

================================================================================
                                        WARNINGS
                       Please study these warnings very carefully!
================================================================================


INFO   : the flag for use of LIBINT has been found!

================================================================================
                                       INPUT FILE
================================================================================
NAME = n2h4_pbe.inp
|  1> !uks pbe nori aug-pc-4 grid5 nofinalgrid verytightscf
|  2> 
|  3> %maxcore 1500
|  4> 
|  5> %pal nprocs 4 end
|  6> 
|  7> %scf
|  8> 	maxiter 200
|  9> end
| 10> %elprop
| 11> 	dipole true
| 12> 	 polar 1
| 13> 	 maxiter 200
| 14> end
| 15> 
| 16> * xyz 0 1
| 17> N 0.0000 0.7230 -0.1123
| 18> N 0.0000 -0.7230 -0.1123
| 19> H -0.4470 1.0031 0.7562
| 20> H 0.4470 -1.0031 0.7562
| 21> H 0.9663 1.0031 0.0301
| 22> H -0.9663 -1.0031 0.0301
| 23> *
| 24> 
| 25>                          ****END OF INPUT****
================================================================================

                       ****************************
                       * Single Point Calculation *
                       ****************************

---------------------------------
CARTESIAN COORDINATES (ANGSTROEM)
---------------------------------
  N      0.000000    0.723000   -0.112300
  N      0.000000   -0.723000   -0.112300
  H     -0.447000    1.003100    0.756200
  H      0.447000   -1.003100    0.756200
  H      0.966300    1.003100    0.030100
  H     -0.966300   -1.003100    0.030100

----------------------------
CARTESIAN COORDINATES (A.U.)
----------------------------
  NO LB      ZA    FRAG     MASS         X           Y           Z
   0 N     7.0000    0    14.007    0.000000    1.366272   -0.212216
   1 N     7.0000    0    14.007    0.000000   -1.366272   -0.212216
   2 H     1.0000    0     1.008   -0.844708    1.895584    1.429011
   3 H     1.0000    0     1.008    0.844708   -1.895584    1.429011
   4 H     1.0000    0     1.008    1.826042    1.895584    0.056881
   5 H     1.0000    0     1.008   -1.826042   -1.895584    0.056881

--------------------------------
INTERNAL COORDINATES (ANGSTROEM)
--------------------------------
 N      0   0   0     0.000000000000     0.00000000     0.00000000
 N      1   0   0     1.446000000000     0.00000000     0.00000000
 H      1   2   0     1.016148247058   106.00067949     0.00000000
 H      2   1   3     1.016148247058   106.00067949   305.53200754
 H      1   2   3     1.016105043782   106.00137808   108.85086992
 H      2   1   3     1.016105043782   106.00137808    54.38287747

---------------------------
INTERNAL COORDINATES (A.U.)
---------------------------
 N      0   0   0     0.000000000000     0.00000000     0.00000000
 N      1   0   0     2.732543989650     0.00000000     0.00000000
 H      1   2   0     1.920241898405   106.00067949     0.00000000
 H      2   1   3     1.920241898405   106.00067949   305.53200754
 H      1   2   3     1.920160256045   106.00137808   108.85086992
 H      2   1   3     1.920160256045   106.00137808    54.38287747

---------------------
BASIS SET INFORMATION
---------------------
There are 2 groups of distinct atoms

 Group   1 Type N   : 27s12p7d4f3g2h contracted to 9s8p7d4f3g2h pattern {1191111111/51111111/1111111/1111/111/11}
 Group   2 Type H   : 12s7p4d3f2g contracted to 8s7p4d3f2g pattern {51111111/1111111/1111/111/11}

Atom   0N    basis set group =>   1
Atom   1N    basis set group =>   1
Atom   2H    basis set group =>   2
Atom   3H    basis set group =>   2
Atom   4H    basis set group =>   2
Atom   5H    basis set group =>   2


           ************************************************************
           *        Program running with 4 parallel MPI-processes     *
           *              working on a common directory               *
           ************************************************************
------------------------------------------------------------------------------
                           ORCA GTO INTEGRAL CALCULATION
------------------------------------------------------------------------------

                         BASIS SET STATISTICS AND STARTUP INFO

 # of primitive gaussian shells          ...  222
 # of primitive gaussian functions       ...  718
 # of contracted shells                  ...  162
 # of contracted basis functions         ...  642
 Highest angular momentum                ...    5
 Maximum contraction depth               ...   11
 Integral package used                   ... LIBINT
 Integral threshhold            Thresh   ...  1.000e-12
 Primitive cut-off              TCut     ...  1.000e-14


------------------------------ INTEGRAL EVALUATION ----------------------------


 * One electron integrals 
 Pre-screening matrix                    ... done
 Shell pair data                         ... done (   0.004 sec)



           ************************************************************
           *        Program running with 4 parallel MPI-processes     *
           *              working on a common directory               *
           ************************************************************
-------------------------------------------------------------------------------
                                 ORCA SCF
-------------------------------------------------------------------------------

------------
SCF SETTINGS
------------
Hamiltonian:
 Density Functional     Method          .... DFT(GTOs)
 Exchange Functional    Exchange        .... PBE
   PBE kappa parameter   XKappa         ....  0.804000
   PBE mue parameter    XMuePBE         ....  0.219520
 Correlation Functional Correlation     .... PBE
   PBE beta parameter  CBetaPBE         ....  0.066725
 LDA part of GGA corr.  LDAOpt          .... PW91-LDA
 Gradients option       PostSCFGGA      .... off
   Density functional embedding theory  .... OFF
   NL short-range parameter             ....  6.400000


General Settings:
 Integral files         IntName         .... n2h4_pbe
 Hartree-Fock type      HFTyp           .... UHF
 Total Charge           Charge          ....    0
 Multiplicity           Mult            ....    1
 Number of Electrons    NEL             ....   18
 Basis Dimension        Dim             ....  642
 Nuclear Repulsion      ENuc            ....     41.5636434876 Eh

Convergence Acceleration:
 DIIS                   CNVDIIS         .... on
   Start iteration      DIISMaxIt       ....    12
   Startup error        DIISStart       ....  0.200000
   # of expansion vecs  DIISMaxEq       ....     5
   Bias factor          DIISBfac        ....   1.050
   Max. coefficient     DIISMaxC        ....  10.000
 Newton-Raphson         CNVNR           .... off
 SOSCF                  CNVSOSCF        .... off
 Level Shifting         CNVShift        .... on
   Level shift para.    LevelShift      ....    0.2500
   Turn off err/grad.   ShiftErr        ....    0.0010
 Zerner damping         CNVZerner       .... off
 Static damping         CNVDamp         .... on
   Fraction old density DampFac         ....    0.7000
   Max. Damping (<1)    DampMax         ....    0.9800
   Min. Damping (>=0)   DampMin         ....    0.0000
   Turn off err/grad.   DampErr         ....    0.1000
 Fernandez-Rico         CNVRico         .... off

SCF Procedure:
 Maximum # iterations   MaxIter         ....   200
 SCF integral mode      SCFMode         .... Direct
   Integral package                     .... LIBINT
 Reset frequency        DirectResetFreq ....    20
 Integral Threshold     Thresh          ....  1.000e-12 Eh
 Primitive CutOff       TCut            ....  1.000e-14 Eh

Convergence Tolerance:
 Convergence Check Mode ConvCheckMode   .... Total+1el-Energy
 Convergence forced     ConvForced      .... 0
 Energy Change          TolE            ....  1.000e-09 Eh
 1-El. energy change                    ....  1.000e-06 Eh
 DIIS Error             TolErr          ....  1.000e-08


Diagonalization of the overlap matrix:
Smallest eigenvalue                        ... 2.074e-07
Time for diagonalization                   ...    0.111 sec
Threshold for overlap eigenvalues          ... 1.000e-08
Number of eigenvalues below threshold      ... 0
Time for construction of square roots      ...    0.072 sec
Total time needed                          ...    0.185 sec

-------------------
DFT GRID GENERATION
-------------------

General Integration Accuracy     IntAcc      ...  5.010
Radial Grid Type                 RadialGrid  ... Gauss-Chebyshev
Angular Grid (max. acc.)         AngularGrid ... Lebedev-434
Angular grid pruning method      GridPruning ... 3 (G Style)
Weight generation scheme         WeightScheme... Becke
Basis function cutoff            BFCut       ...    1.0000e-12
Integration weight cutoff        WCut        ...    1.0000e-14
Grids for H and He will be reduced by one unit

# of grid points (after initial pruning)     ...  47948 (   0.0 sec)
# of grid points (after weights+screening)   ...  46324 (   0.0 sec)
nearest neighbour list constructed           ...    0.0 sec
Grid point re-assignment to atoms done       ...    0.0 sec
Grid point division into batches done        ...    0.3 sec
Reduced shell lists constructed in    0.5 sec

Total number of grid points                  ...    46324
Total number of batches                      ...      726
Average number of points per batch           ...       63
Average number of grid points per atom       ...     7721
Average number of shells per batch           ...   131.80 (81.36%)
Average number of basis functions per batch  ...   538.74 (83.92%)
Average number of large shells per batch     ...   118.92 (90.22%)
Average number of large basis fcns per batch ...   488.93 (90.75%)
Maximum spatial batch extension              ...  11.19, 12.57, 11.76 au
Average spatial batch extension              ...   0.39,  0.40,  0.41 au

Time for grid setup =    0.558 sec

------------------------------
INITIAL GUESS: MODEL POTENTIAL
------------------------------
Loading Hartree-Fock densities                     ... done
Calculating cut-offs                               ... done
Setting up the integral package                    ... done
Initializing the effective Hamiltonian             ... done
Starting the Coulomb interaction                   ... done (   0.1 sec)
Reading the grid                                   ... done
Mapping shells                                     ... done
Starting the XC term evaluation                    ... done (   2.1 sec)
  promolecular density results
     # of electrons  =     17.998048409
     EX              =    -14.231872667
     EC              =     -0.577093036
     EX+EC           =    -14.808965704
Transforming the Hamiltonian                       ... done (   0.1 sec)
Diagonalizing the Hamiltonian                      ... done (   0.1 sec)
Back transforming the eigenvectors                 ... done (   0.0 sec)
Now organizing SCF variables                       ... done
                      ------------------
                      INITIAL GUESS DONE (   3.0 sec)
                      ------------------
--------------
SCF ITERATIONS
--------------
ITER       Energy         Delta-E        Max-DP      RMS-DP      [F,P]     Damp
               ***  Starting incremental Fock matrix formation  ***
  0   -111.6693718505   0.000000000000 0.02018317  0.00016086  0.2233231 0.7000
  1   -111.7311111100  -0.061739259445 0.02246550  0.00012476  0.0880829 0.7000
                               ***Turning on DIIS***
  2   -111.7483967273  -0.017285617286 0.01922113  0.00015867  0.0190014 0.0000
  3   -111.7796710565  -0.031274329183 0.02260674  0.00010341  0.0576726 0.0000
  4   -111.7873428889  -0.007671832412 0.00873475  0.00004268  0.0083202 0.0000
  5   -111.7877148384  -0.000371949525 0.00140084  0.00001500  0.0021532 0.0000
  6   -111.7877439819  -0.000029143464 0.00094688  0.00001304  0.0006640 0.0000
  7   -111.7877483128  -0.000004330929 0.00032826  0.00000150  0.0001363 0.0000
  8   -111.7877483691  -0.000000056293 0.00004046  0.00000020  0.0000602 0.0000
  9   -111.7877483752  -0.000000006153 0.00000569  0.00000004  0.0000150 0.0000
 10   -111.7877483759  -0.000000000670 0.00000797  0.00000008  0.0000023 0.0000
 11   -111.7877483759  -0.000000000031 0.00000804  0.00000011  0.0000004 0.0000
                 **** Energy Check signals convergence ****

               *****************************************************
               *                     SUCCESS                       *
               *           SCF CONVERGED AFTER  12 CYCLES          *
               *****************************************************


----------------
TOTAL SCF ENERGY
----------------

Total Energy       :         -111.78774838 Eh           -3041.89928 eV

Components:
Nuclear Repulsion  :           41.56364349 Eh            1131.00424 eV
Electronic Energy  :         -153.35139186 Eh           -4172.90352 eV
One Electron Energy:         -233.26778815 Eh           -6347.53922 eV
Two Electron Energy:           79.91639628 Eh            2174.63570 eV

Virial components:
Potential Energy   :         -223.21180305 Eh           -6073.90195 eV
Kinetic Energy     :          111.42405468 Eh            3032.00267 eV
Virial Ratio       :            2.00326405


DFT components:
N(Alpha)           :        9.000000586583 electrons
N(Beta)            :        9.000000586583 electrons
N(Total)           :       18.000001173166 electrons
E(X)               :      -14.582330208483 Eh       
E(C)               :       -0.584996189815 Eh       
E(XC)              :      -15.167326398298 Eh       
DFET-embed. en.    :        0.000000000000 Eh       

---------------
SCF CONVERGENCE
---------------

  Last Energy change         ...   -2.2737e-13  Tolerance :   1.0000e-09
  Last MAX-Density change    ...    4.5895e-05  Tolerance :   1.0000e-08
  Last RMS-Density change    ...    3.7947e-07  Tolerance :   1.0000e-09
  Last DIIS Error            ...    4.2269e-08  Tolerance :   1.0000e-08

             **** THE GBW FILE WAS UPDATED (n2h4_pbe.gbw) ****
             **** DENSITY FILE WAS UPDATED (n2h4_pbe.scfp.tmp) ****
             **** ENERGY FILE WAS UPDATED (n2h4_pbe.en.tmp) ****
----------------------
UHF SPIN CONTAMINATION
----------------------

Warning: in a DFT calculation there is little theoretical justification to 
         calculate <S**2> as in Hartree-Fock theory. We will do it anyways
         but you should keep in mind that the values have only limited relevance

Expectation value of <S**2>     :     0.000000
Ideal value S*(S+1) for S=0.0   :     0.000000
Deviation                       :     0.000000

----------------
ORBITAL ENERGIES
----------------
                 SPIN UP ORBITALS
  NO   OCC          E(Eh)            E(eV) 
   0   1.0000     -13.996000      -380.8505 
   1   1.0000     -13.995965      -380.8496 
   2   1.0000      -0.880076       -23.9481 
   3   1.0000      -0.684905       -18.6372 
   4   1.0000      -0.461398       -12.5553 
   5   1.0000      -0.442672       -12.0457 
   6   1.0000      -0.391128       -10.6431 
   7   1.0000      -0.252598        -6.8735 
   8   1.0000      -0.194736        -5.2990 
   9   0.0000      -0.035231        -0.9587 
  10   0.0000      -0.005542        -0.1508 
  11   0.0000       0.005950         0.1619 
  12   0.0000       0.015081         0.4104 
  13   0.0000       0.030688         0.8351 
  14   0.0000       0.037322         1.0156 
  15   0.0000       0.039164         1.0657 
  16   0.0000       0.041873         1.1394 
  17   0.0000       0.045216         1.2304 
  18   0.0000       0.047272         1.2863 
  19   0.0000       0.050939         1.3861 
  20   0.0000       0.052939         1.4405 
  21   0.0000       0.062322         1.6959 
  22   0.0000       0.087725         2.3871 
  23   0.0000       0.098511         2.6806 
  24   0.0000       0.100146         2.7251 
  25   0.0000       0.100150         2.7252 
  26   0.0000       0.104730         2.8498 
  27   0.0000       0.105873         2.8809 
  28   0.0000       0.109474         2.9789 
  29   0.0000       0.116632         3.1737 
  30   0.0000       0.117884         3.2078 
  31   0.0000       0.120651         3.2831 
  32   0.0000       0.127428         3.4675 
  33   0.0000       0.127461         3.4684 
  34   0.0000       0.132372         3.6020 
  35   0.0000       0.138264         3.7624 
  36   0.0000       0.146837         3.9956 
  37   0.0000       0.161690         4.3998 
  38   0.0000       0.166972         4.5435 
  39   0.0000       0.172272         4.6878 
  40   0.0000       0.178486         4.8568 
  41   0.0000       0.185221         5.0401 
  42   0.0000       0.187645         5.1061 
  43   0.0000       0.193369         5.2618 
  44   0.0000       0.201654         5.4873 
  45   0.0000       0.204696         5.5701 
  46   0.0000       0.207487         5.6460 
  47   0.0000       0.218526         5.9464 
  48   0.0000       0.220668         6.0047 
  49   0.0000       0.223452         6.0804 
  50   0.0000       0.227443         6.1891 
  51   0.0000       0.230530         6.2730 
  52   0.0000       0.237050         6.4505 
  53   0.0000       0.240600         6.5471 
  54   0.0000       0.247719         6.7408 
  55   0.0000       0.253045         6.8857 
  56   0.0000       0.260604         7.0914 
  57   0.0000       0.261263         7.1093 
  58   0.0000       0.263613         7.1733 
  59   0.0000       0.271399         7.3851 
  60   0.0000       0.273140         7.4325 
  61   0.0000       0.273700         7.4478 
  62   0.0000       0.277832         7.5602 
  63   0.0000       0.283349         7.7103 
  64   0.0000       0.287991         7.8366 
  65   0.0000       0.289587         7.8801 
  66   0.0000       0.292661         7.9637 
  67   0.0000       0.297227         8.0879 
  68   0.0000       0.303964         8.2713 
  69   0.0000       0.307536         8.3685 
  70   0.0000       0.322060         8.7637 
  71   0.0000       0.332514         9.0482 
  72   0.0000       0.335867         9.1394 
  73   0.0000       0.338693         9.2163 
  74   0.0000       0.349813         9.5189 
  75   0.0000       0.354290         9.6407 
  76   0.0000       0.357953         9.7404 
  77   0.0000       0.370909        10.0930 
  78   0.0000       0.379888        10.3373 
  79   0.0000       0.384328        10.4581 
  80   0.0000       0.389195        10.5905 
  81   0.0000       0.394200        10.7267 
  82   0.0000       0.403046        10.9675 
  83   0.0000       0.409394        11.1402 
  84   0.0000       0.415607        11.3093 
  85   0.0000       0.421290        11.4639 
  86   0.0000       0.428371        11.6566 
  87   0.0000       0.430821        11.7232 
  88   0.0000       0.432328        11.7642 
  89   0.0000       0.432861        11.7787 
  90   0.0000       0.445470        12.1219 
  91   0.0000       0.453219        12.3327 
  92   0.0000       0.455446        12.3933 
  93   0.0000       0.459668        12.5082 
  94   0.0000       0.459832        12.5127 
  95   0.0000       0.464209        12.6318 
  96   0.0000       0.467380        12.7180 
  97   0.0000       0.476376        12.9628 
  98   0.0000       0.476555        12.9677 
  99   0.0000       0.477814        13.0020 
 100   0.0000       0.485976        13.2241 
 101   0.0000       0.490386        13.3441 
 102   0.0000       0.496132        13.5005 
 103   0.0000       0.498227        13.5574 
 104   0.0000       0.507348        13.8057 
 105   0.0000       0.511572        13.9206 
 106   0.0000       0.513283        13.9671 
 107   0.0000       0.517841        14.0912 
 108   0.0000       0.522948        14.2302 
 109   0.0000       0.534333        14.5399 
 110   0.0000       0.536229        14.5915 
 111   0.0000       0.545316        14.8388 
 112   0.0000       0.545645        14.8478 
 113   0.0000       0.551316        15.0021 
 114   0.0000       0.558346        15.1934 
 115   0.0000       0.559753        15.2316 
 116   0.0000       0.562204        15.2984 
 117   0.0000       0.563930        15.3453 
 118   0.0000       0.566422        15.4131 
 119   0.0000       0.568218        15.4620 
 120   0.0000       0.593439        16.1483 
 121   0.0000       0.598561        16.2877 
 122   0.0000       0.610198        16.6043 
 123   0.0000       0.610699        16.6180 
 124   0.0000       0.613097        16.6832 
 125   0.0000       0.619605        16.8603 
 126   0.0000       0.634988        17.2789 
 127   0.0000       0.644234        17.5305 
 128   0.0000       0.645919        17.5763 
 129   0.0000       0.655000        17.8235 
 130   0.0000       0.658771        17.9261 
 131   0.0000       0.663399        18.0520 
 132   0.0000       0.666057        18.1243 
 133   0.0000       0.677757        18.4427 
 134   0.0000       0.682485        18.5713 
 135   0.0000       0.685606        18.6563 
 136   0.0000       0.696994        18.9662 
 137   0.0000       0.715244        19.4628 
 138   0.0000       0.719925        19.5902 
 139   0.0000       0.728909        19.8346 
 140   0.0000       0.738931        20.1073 
 141   0.0000       0.744861        20.2687 
 142   0.0000       0.749757        20.4019 
 143   0.0000       0.753053        20.4916 
 144   0.0000       0.766342        20.8532 
 145   0.0000       0.766544        20.8587 
 146   0.0000       0.767531        20.8856 
 147   0.0000       0.773219        21.0404 
 148   0.0000       0.779965        21.2239 
 149   0.0000       0.787969        21.4417 
 150   0.0000       0.789786        21.4912 
 151   0.0000       0.797309        21.6959 
 152   0.0000       0.805390        21.9158 
 153   0.0000       0.815078        22.1794 
 154   0.0000       0.816444        22.2166 
 155   0.0000       0.822476        22.3807 
 156   0.0000       0.831388        22.6232 
 157   0.0000       0.832909        22.6646 
 158   0.0000       0.835232        22.7278 
 159   0.0000       0.841792        22.9063 
 160   0.0000       0.842100        22.9147 
 161   0.0000       0.847596        23.0643 
 162   0.0000       0.853564        23.2267 
 163   0.0000       0.858223        23.3534 
 164   0.0000       0.868833        23.6422 
 165   0.0000       0.869697        23.6657 
 166   0.0000       0.874487        23.7960 
 167   0.0000       0.875752        23.8304 
 168   0.0000       0.881474        23.9861 
 169   0.0000       0.889467        24.2036 
 170   0.0000       0.890403        24.2291 
 171   0.0000       0.893183        24.3048 
 172   0.0000       0.897190        24.4138 
 173   0.0000       0.910814        24.7845 
 174   0.0000       0.911379        24.7999 
 175   0.0000       0.916600        24.9420 
 176   0.0000       0.916915        24.9505 
 177   0.0000       0.918523        24.9943 
 178   0.0000       0.922383        25.0993 
 179   0.0000       0.929949        25.3052 
 180   0.0000       0.938131        25.5278 
 181   0.0000       0.938156        25.5285 
 182   0.0000       0.946063        25.7437 
 183   0.0000       0.955027        25.9876 
 184   0.0000       0.955508        26.0007 
 185   0.0000       0.960666        26.1410 
 186   0.0000       0.968222        26.3467 
 187   0.0000       0.969616        26.3846 
 188   0.0000       0.976805        26.5802 
 189   0.0000       0.981311        26.7028 
 190   0.0000       0.994091        27.0506 
 191   0.0000       0.994974        27.0746 
 192   0.0000       1.007833        27.4245 
 193   0.0000       1.011777        27.5319 
 194   0.0000       1.014909        27.6171 
 195   0.0000       1.020629        27.7727 
 196   0.0000       1.022210        27.8157 
 197   0.0000       1.037500        28.2318 
 198   0.0000       1.047489        28.5036 
 199   0.0000       1.053320        28.6623 
 200   0.0000       1.063737        28.9457 
 201   0.0000       1.072303        29.1788 
 202   0.0000       1.083526        29.4842 
 203   0.0000       1.096027        29.8244 
 204   0.0000       1.100756        29.9531 
 205   0.0000       1.112905        30.2837 
 206   0.0000       1.124498        30.5991 
 207   0.0000       1.128905        30.7191 
 208   0.0000       1.143344        31.1120 
 209   0.0000       1.161560        31.6077 
 210   0.0000       1.182014        32.1642 
 211   0.0000       1.189526        32.3686 
 212   0.0000       1.212998        33.0074 
 213   0.0000       1.222547        33.2672 
 214   0.0000       1.231925        33.5224 
 215   0.0000       1.258893        34.2562 
 216   0.0000       1.264022        34.3958 
 217   0.0000       1.267034        34.4777 
 218   0.0000       1.290580        35.1185 
 219   0.0000       1.293043        35.1855 
 220   0.0000       1.302898        35.4537 
 221   0.0000       1.306368        35.5481 
 222   0.0000       1.314349        35.7653 
 223   0.0000       1.320514        35.9330 
 224   0.0000       1.323899        36.0251 
 225   0.0000       1.345349        36.6088 
 226   0.0000       1.352858        36.8131 
 227   0.0000       1.366255        37.1777 
 228   0.0000       1.372838        37.3568 
 229   0.0000       1.387004        37.7423 
 230   0.0000       1.440456        39.1968 
 231   0.0000       1.480714        40.2923 
 232   0.0000       1.490762        40.5657 
 233   0.0000       1.507115        41.0107 
 234   0.0000       1.533277        41.7226 
 235   0.0000       1.550416        42.1890 
 236   0.0000       1.562779        42.5254 
 237   0.0000       1.570015        42.7223 
 238   0.0000       1.586739        43.1774 
 239   0.0000       1.599243        43.5176 
 240   0.0000       1.606253        43.7084 
 241   0.0000       1.620085        44.0847 
 242   0.0000       1.628804        44.3220 
 243   0.0000       1.653287        44.9882 
 244   0.0000       1.657817        45.1115 
 245   0.0000       1.666918        45.3591 
 246   0.0000       1.685598        45.8674 
 247   0.0000       1.689500        45.9736 
 248   0.0000       1.695477        46.1363 
 249   0.0000       1.722839        46.8808 
 250   0.0000       1.729197        47.0538 
 251   0.0000       1.738856        47.3167 
 252   0.0000       1.738947        47.3191 
 253   0.0000       1.796595        48.8878 
 254   0.0000       1.797691        48.9177 
 255   0.0000       1.828191        49.7476 
 256   0.0000       1.828716        49.7619 
 257   0.0000       1.867177        50.8085 
 258   0.0000       1.881171        51.1893 
 259   0.0000       1.901218        51.7348 
 260   0.0000       1.904061        51.8121 
 261   0.0000       1.932544        52.5872 
 262   0.0000       1.934902        52.6514 
 263   0.0000       1.967503        53.5385 
 264   0.0000       1.975164        53.7469 
 265   0.0000       2.019520        54.9539 
 266   0.0000       2.025145        55.1070 
 267   0.0000       2.032568        55.3090 
 268   0.0000       2.040760        55.5319 
 269   0.0000       2.058204        56.0066 
 270   0.0000       2.109493        57.4022 
 271   0.0000       2.118945        57.6594 
 272   0.0000       2.127100        57.8813 
 273   0.0000       2.140897        58.2568 
 274   0.0000       2.248153        61.1753 
 275   0.0000       2.252678        61.2985 
 276   0.0000       2.347727        63.8849 
 277   0.0000       2.403120        65.3922 
 278   0.0000       2.412581        65.6497 
 279   0.0000       2.413641        65.6785 
 280   0.0000       2.479603        67.4734 
 281   0.0000       2.481849        67.5345 
 282   0.0000       2.512673        68.3733 
 283   0.0000       2.552358        69.4532 
 284   0.0000       2.585571        70.3570 
 285   0.0000       2.675067        72.7923 
 286   0.0000       2.699150        73.4476 
 287   0.0000       2.753944        74.9386 
 288   0.0000       2.768643        75.3386 
 289   0.0000       2.772121        75.4333 
 290   0.0000       2.779403        75.6314 
 291   0.0000       2.810212        76.4697 
 292   0.0000       2.835242        77.1508 
 293   0.0000       2.901024        78.9409 
 294   0.0000       2.913274        79.2742 
 295   0.0000       2.942447        80.0680 
 296   0.0000       3.007432        81.8364 
 297   0.0000       3.017130        82.1003 
 298   0.0000       3.159690        85.9795 
 299   0.0000       3.223777        87.7234 
 300   0.0000       3.255514        88.5870 
 301   0.0000       3.279708        89.2454 
 302   0.0000       3.280861        89.2768 
 303   0.0000       3.318269        90.2947 
 304   0.0000       3.324939        90.4762 
 305   0.0000       3.361573        91.4731 
 306   0.0000       3.390159        92.2509 
 307   0.0000       3.411526        92.8323 
 308   0.0000       3.444670        93.7342 
 309   0.0000       3.483284        94.7850 
 310   0.0000       3.491870        95.0186 
 311   0.0000       3.501266        95.2743 
 312   0.0000       3.519227        95.7630 
 313   0.0000       3.527774        95.9956 
 314   0.0000       3.537733        96.2666 
 315   0.0000       3.558933        96.8435 
 316   0.0000       3.599628        97.9508 
 317   0.0000       3.612513        98.3015 
 318   0.0000       3.634072        98.8881 
 319   0.0000       3.687761       100.3491 
 320   0.0000       3.688404       100.3666 
 321   0.0000       3.716876       101.1413 
 322   0.0000       3.767859       102.5286 
 323   0.0000       3.778901       102.8291 
 324   0.0000       3.797345       103.3310 
 325   0.0000       3.822383       104.0123 
 326   0.0000       3.833961       104.3274 
 327   0.0000       3.850852       104.7870 
 328   0.0000       3.896675       106.0339 
 329   0.0000       3.922402       106.7340 
 330   0.0000       3.969614       108.0187 
 331   0.0000       3.971982       108.0831 
 332   0.0000       3.984136       108.4138 
 333   0.0000       3.991847       108.6237 
 334   0.0000       4.038499       109.8931 
 335   0.0000       4.066502       110.6551 
 336   0.0000       4.068966       110.7222 
 337   0.0000       4.135220       112.5251 
 338   0.0000       4.136119       112.5495 
 339   0.0000       4.180974       113.7701 
 340   0.0000       4.236959       115.2935 
 341   0.0000       4.241981       115.4302 
 342   0.0000       4.267427       116.1226 
 343   0.0000       4.276852       116.3791 
 344   0.0000       4.320687       117.5719 
 345   0.0000       4.327983       117.7704 
 346   0.0000       4.398228       119.6819 
 347   0.0000       4.428687       120.5107 
 348   0.0000       4.473191       121.7217 
 349   0.0000       4.480564       121.9223 
 350   0.0000       4.505470       122.6001 
 351   0.0000       4.549219       123.7905 
 352   0.0000       4.602523       125.2410 
 353   0.0000       4.653315       126.6231 
 354   0.0000       4.732153       128.7684 
 355   0.0000       4.756973       129.4438 
 356   0.0000       4.776956       129.9876 
 357   0.0000       4.820248       131.1656 
 358   0.0000       4.883275       132.8807 
 359   0.0000       4.919141       133.8566 
 360   0.0000       4.975035       135.3776 
 361   0.0000       4.989585       135.7735 
 362   0.0000       5.017012       136.5198 
 363   0.0000       5.078381       138.1898 
 364   0.0000       5.084954       138.3686 
 365   0.0000       5.145988       140.0294 
 366   0.0000       5.186427       141.1299 
 367   0.0000       5.292694       144.0215 
 368   0.0000       5.359115       145.8289 
 369   0.0000       5.400541       146.9562 
 370   0.0000       5.402578       147.0116 
 371   0.0000       5.430028       147.7586 
 372   0.0000       5.491893       149.4420 
 373   0.0000       5.559542       151.2828 
 374   0.0000       5.671684       154.3344 
 375   0.0000       5.803800       157.9294 
 376   0.0000       5.812913       158.1774 
 377   0.0000       5.844821       159.0457 
 378   0.0000       5.860084       159.4610 
 379   0.0000       5.913024       160.9016 
 380   0.0000       5.945348       161.7811 
 381   0.0000       6.011720       163.5872 
 382   0.0000       6.083423       165.5384 
 383   0.0000       6.088401       165.6738 
 384   0.0000       6.127409       166.7353 
 385   0.0000       6.216742       169.1661 
 386   0.0000       6.271664       170.6606 
 387   0.0000       6.306867       171.6186 
 388   0.0000       6.318560       171.9368 
 389   0.0000       6.340933       172.5456 
 390   0.0000       6.386403       173.7829 
 391   0.0000       6.463116       175.8703 
 392   0.0000       6.560414       178.5179 
 393   0.0000       6.564219       178.6215 
 394   0.0000       6.580799       179.0727 
 395   0.0000       6.668209       181.4512 
 396   0.0000       6.682888       181.8506 
 397   0.0000       6.755317       183.8215 
 398   0.0000       6.782589       184.5636 
 399   0.0000       6.840966       186.1521 
 400   0.0000       6.863974       186.7782 
 401   0.0000       7.067865       192.3264 
 402   0.0000       7.083868       192.7618 
 403   0.0000       7.091767       192.9768 
 404   0.0000       7.137714       194.2271 
 405   0.0000       7.302490       198.7109 
 406   0.0000       7.351788       200.0523 
 407   0.0000       7.427876       202.1228 
 408   0.0000       7.428601       202.1425 
 409   0.0000       7.616930       207.2672 
 410   0.0000       7.625068       207.4886 
 411   0.0000       7.704121       209.6398 
 412   0.0000       7.714297       209.9167 
 413   0.0000       7.781852       211.7550 
 414   0.0000       7.800465       212.2615 
 415   0.0000       7.948549       216.2910 
 416   0.0000       7.988144       217.3685 
 417   0.0000       8.049369       219.0345 
 418   0.0000       8.144043       221.6107 
 419   0.0000       8.219458       223.6628 
 420   0.0000       8.241430       224.2607 
 421   0.0000       8.671618       235.9667 
 422   0.0000       8.678800       236.1622 
 423   0.0000       8.694616       236.5925 
 424   0.0000       8.723335       237.3740 
 425   0.0000       8.815053       239.8698 
 426   0.0000       8.820380       240.0147 
 427   0.0000       8.844597       240.6737 
 428   0.0000       8.880127       241.6405 
 429   0.0000       8.976695       244.2683 
 430   0.0000       9.022658       245.5190 
 431   0.0000       9.037910       245.9340 
 432   0.0000       9.087955       247.2958 
 433   0.0000       9.148098       248.9324 
 434   0.0000       9.183813       249.9043 
 435   0.0000       9.185166       249.9411 
 436   0.0000       9.358470       254.6569 
 437   0.0000       9.376836       255.1567 
 438   0.0000       9.408910       256.0295 
 439   0.0000       9.410145       256.0631 
 440   0.0000       9.630610       262.0622 
 441   0.0000       9.648770       262.5564 
 442   0.0000       9.703536       264.0466 
 443   0.0000       9.709634       264.2126 
 444   0.0000       9.792549       266.4688 
 445   0.0000       9.865989       268.4672 
 446   0.0000      10.011100       272.4159 
 447   0.0000      10.042047       273.2580 
 448   0.0000      10.059266       273.7265 
 449   0.0000      10.118040       275.3259 
 450   0.0000      10.155959       276.3577 
 451   0.0000      10.218804       278.0678 
 452   0.0000      10.228464       278.3306 
 453   0.0000      10.237520       278.5771 
 454   0.0000      10.320101       280.8242 
 455   0.0000      10.499708       285.7116 
 456   0.0000      10.539242       286.7873 
 457   0.0000      11.085420       301.6496 
 458   0.0000      11.156637       303.5875 
 459   0.0000      11.189379       304.4785 
 460   0.0000      11.222165       305.3706 
 461   0.0000      11.355230       308.9915 
 462   0.0000      11.403684       310.3100 
 463   0.0000      11.473561       312.2115 
 464   0.0000      11.522191       313.5348 
 465   0.0000      11.557888       314.5061 
 466   0.0000      11.564774       314.6935 
 467   0.0000      11.618353       316.1515 
 468   0.0000      11.621667       316.2416 
 469   0.0000      11.718711       318.8823 
 470   0.0000      11.780778       320.5713 
 471   0.0000      11.793680       320.9223 
 472   0.0000      11.798999       321.0671 
 473   0.0000      11.811430       321.4053 
 474   0.0000      11.943586       325.0015 
 475   0.0000      11.950302       325.1842 
 476   0.0000      12.045883       327.7851 
 477   0.0000      12.058873       328.1386 
 478   0.0000      12.082422       328.7794 
 479   0.0000      12.288568       334.3889 
 480   0.0000      12.388521       337.1088 
 481   0.0000      12.416858       337.8799 
 482   0.0000      12.462084       339.1106 
 483   0.0000      12.522938       340.7665 
 484   0.0000      12.537542       341.1639 
 485   0.0000      12.582869       342.3973 
 486   0.0000      12.606427       343.0383 
 487   0.0000      12.691072       345.3416 
 488   0.0000      12.722013       346.1836 
 489   0.0000      12.754219       347.0600 
 490   0.0000      12.770029       347.4902 
 491   0.0000      12.842049       349.4499 
 492   0.0000      12.872132       350.2685 
 493   0.0000      12.904689       351.1544 
 494   0.0000      12.951986       352.4415 
 495   0.0000      12.957281       352.5855 
 496   0.0000      12.968114       352.8803 
 497   0.0000      12.984048       353.3139 
 498   0.0000      13.071141       355.6838 
 499   0.0000      13.144221       357.6724 
 500   0.0000      13.150643       357.8472 
 501   0.0000      13.191501       358.9590 
 502   0.0000      13.214251       359.5781 
 503   0.0000      13.616957       370.5362 
 504   0.0000      13.666032       371.8716 
 505   0.0000      13.727878       373.5546 
 506   0.0000      13.753014       374.2385 
 507   0.0000      13.873217       377.5094 
 508   0.0000      14.009051       381.2056 
 509   0.0000      14.066464       382.7680 
 510   0.0000      14.168025       385.5316 
 511   0.0000      14.247670       387.6988 
 512   0.0000      14.271175       388.3384 
 513   0.0000      14.384524       391.4228 
 514   0.0000      14.427715       392.5981 
 515   0.0000      14.647591       398.5812 
 516   0.0000      14.696425       399.9101 
 517   0.0000      15.182444       413.1353 
 518   0.0000      15.298713       416.2991 
 519   0.0000      15.317289       416.8046 
 520   0.0000      15.418618       419.5619 
 521   0.0000      15.434135       419.9842 
 522   0.0000      15.443438       420.2373 
 523   0.0000      15.481806       421.2814 
 524   0.0000      15.530519       422.6069 
 525   0.0000      15.609818       424.7647 
 526   0.0000      15.611953       424.8228 
 527   0.0000      15.675870       426.5621 
 528   0.0000      15.849493       431.2866 
 529   0.0000      15.910722       432.9528 
 530   0.0000      15.944400       433.8692 
 531   0.0000      15.978261       434.7906 
 532   0.0000      15.990696       435.1290 
 533   0.0000      16.006544       435.5602 
 534   0.0000      16.053662       436.8424 
 535   0.0000      16.133546       439.0161 
 536   0.0000      16.160004       439.7361 
 537   0.0000      16.327506       444.2940 
 538   0.0000      16.359439       445.1630 
 539   0.0000      16.475686       448.3262 
 540   0.0000      16.635236       452.6678 
 541   0.0000      16.671209       453.6467 
 542   0.0000      16.692305       454.2207 
 543   0.0000      16.771996       456.3892 
 544   0.0000      16.772704       456.4085 
 545   0.0000      16.788530       456.8391 
 546   0.0000      16.823014       457.7775 
 547   0.0000      16.823589       457.7931 
 548   0.0000      16.851814       458.5612 
 549   0.0000      16.862764       458.8591 
 550   0.0000      16.954045       461.3430 
 551   0.0000      16.995021       462.4580 
 552   0.0000      17.059691       464.2178 
 553   0.0000      17.143005       466.4849 
 554   0.0000      17.175782       467.3768 
 555   0.0000      17.284502       470.3352 
 556   0.0000      17.284674       470.3399 
 557   0.0000      17.358902       472.3597 
 558   0.0000      17.409719       473.7425 
 559   0.0000      17.415072       473.8882 
 560   0.0000      17.657779       480.4926 
 561   0.0000      17.683043       481.1801 
 562   0.0000      17.733682       482.5580 
 563   0.0000      17.795246       484.2333 
 564   0.0000      17.803106       484.4471 
 565   0.0000      17.870748       486.2878 
 566   0.0000      17.889298       486.7925 
 567   0.0000      17.983808       489.3643 
 568   0.0000      18.130816       493.3646 
 569   0.0000      18.302347       498.0322 
 570   0.0000      18.621799       506.7249 
 571   0.0000      18.788611       511.2641 
 572   0.0000      18.814422       511.9664 
 573   0.0000      18.970797       516.2216 
 574   0.0000      18.972727       516.2741 
 575   0.0000      19.287510       524.8398 
 576   0.0000      19.289924       524.9055 
 577   0.0000      19.554897       532.1158 
 578   0.0000      19.612833       533.6923 
 579   0.0000      19.676482       535.4243 
 580   0.0000      19.732928       536.9603 
 581   0.0000      19.948425       542.8242 
 582   0.0000      20.748221       564.5878 
 583   0.0000      20.856649       567.5383 
 584   0.0000      20.960250       570.3574 
 585   0.0000      20.962820       570.4273 
 586   0.0000      21.025224       572.1254 
 587   0.0000      21.048371       572.7553 
 588   0.0000      21.194771       576.7390 
 589   0.0000      21.244519       578.0928 
 590   0.0000      21.245818       578.1281 
 591   0.0000      21.732134       591.3614 
 592   0.0000      22.102803       601.4479 
 593   0.0000      22.176188       603.4448 
 594   0.0000      23.650801       643.5710 
 595   0.0000      23.720206       645.4596 
 596   0.0000      23.761216       646.5756 
 597   0.0000      23.793770       647.4614 
 598   0.0000      23.811634       647.9475 
 599   0.0000      23.815926       648.0643 
 600   0.0000      23.879497       649.7942 
 601   0.0000      23.907204       650.5481 
 602   0.0000      24.392434       663.7519 
 603   0.0000      24.538238       667.7194 
 604   0.0000      25.645703       697.8551 
 605   0.0000      25.711896       699.6562 
 606   0.0000      26.021668       708.0856 
 607   0.0000      26.045527       708.7348 
 608   0.0000      27.664468       752.7885 
 609   0.0000      27.868392       758.3375 
 610   0.0000      28.363756       771.8170 
 611   0.0000      28.799105       783.6635 
 612   0.0000      28.899849       786.4049 
 613   0.0000      29.113241       792.2116 
 614   0.0000      41.555246      1130.7757 
 615   0.0000      41.623976      1132.6460 
 616   0.0000      41.696500      1134.6195 
 617   0.0000      41.822558      1138.0496 
 618   0.0000      48.208528      1311.8207 
 619   0.0000      48.223150      1312.2186 
 620   0.0000      48.366844      1316.1287 
 621   0.0000      48.377381      1316.4155 
 622   0.0000      48.424177      1317.6888 
 623   0.0000      48.440248      1318.1262 
 624   0.0000      48.948101      1331.9455 
 625   0.0000      49.357502      1343.0859 
 626   0.0000      49.398349      1344.1974 
 627   0.0000      49.419094      1344.7619 
 628   0.0000      91.090902      2478.7095 
 629   0.0000      91.150804      2480.3395 
 630   0.0000      91.171275      2480.8965 
 631   0.0000      91.213968      2482.0583 
 632   0.0000      91.225899      2482.3829 
 633   0.0000      91.233233      2482.5825 
 634   0.0000      91.299539      2484.3867 
 635   0.0000      91.303342      2484.4902 
 636   0.0000      92.899821      2527.9326 
 637   0.0000      92.923721      2528.5830 
 638   0.0000      93.023254      2531.2914 
 639   0.0000      93.082943      2532.9156 
 640   0.0000     105.896774      2881.5977 
 641   0.0000     106.258249      2891.4339 

                 SPIN DOWN ORBITALS
  NO   OCC          E(Eh)            E(eV) 
   0   1.0000     -13.996000      -380.8505 
   1   1.0000     -13.995965      -380.8496 
   2   1.0000      -0.880076       -23.9481 
   3   1.0000      -0.684905       -18.6372 
   4   1.0000      -0.461398       -12.5553 
   5   1.0000      -0.442672       -12.0457 
   6   1.0000      -0.391128       -10.6431 
   7   1.0000      -0.252598        -6.8735 
   8   1.0000      -0.194736        -5.2990 
   9   0.0000      -0.035231        -0.9587 
  10   0.0000      -0.005542        -0.1508 
  11   0.0000       0.005950         0.1619 
  12   0.0000       0.015081         0.4104 
  13   0.0000       0.030688         0.8351 
  14   0.0000       0.037322         1.0156 
  15   0.0000       0.039164         1.0657 
  16   0.0000       0.041873         1.1394 
  17   0.0000       0.045216         1.2304 
  18   0.0000       0.047272         1.2863 
  19   0.0000       0.050939         1.3861 
  20   0.0000       0.052939         1.4405 
  21   0.0000       0.062322         1.6959 
  22   0.0000       0.087725         2.3871 
  23   0.0000       0.098511         2.6806 
  24   0.0000       0.100146         2.7251 
  25   0.0000       0.100150         2.7252 
  26   0.0000       0.104730         2.8498 
  27   0.0000       0.105873         2.8809 
  28   0.0000       0.109474         2.9789 
  29   0.0000       0.116632         3.1737 
  30   0.0000       0.117884         3.2078 
  31   0.0000       0.120651         3.2831 
  32   0.0000       0.127428         3.4675 
  33   0.0000       0.127461         3.4684 
  34   0.0000       0.132372         3.6020 
  35   0.0000       0.138264         3.7624 
  36   0.0000       0.146837         3.9956 
  37   0.0000       0.161690         4.3998 
  38   0.0000       0.166972         4.5435 
  39   0.0000       0.172272         4.6878 
  40   0.0000       0.178486         4.8568 
  41   0.0000       0.185221         5.0401 
  42   0.0000       0.187645         5.1061 
  43   0.0000       0.193369         5.2618 
  44   0.0000       0.201654         5.4873 
  45   0.0000       0.204696         5.5701 
  46   0.0000       0.207487         5.6460 
  47   0.0000       0.218526         5.9464 
  48   0.0000       0.220668         6.0047 
  49   0.0000       0.223452         6.0804 
  50   0.0000       0.227443         6.1891 
  51   0.0000       0.230530         6.2730 
  52   0.0000       0.237050         6.4505 
  53   0.0000       0.240600         6.5471 
  54   0.0000       0.247719         6.7408 
  55   0.0000       0.253045         6.8857 
  56   0.0000       0.260604         7.0914 
  57   0.0000       0.261263         7.1093 
  58   0.0000       0.263613         7.1733 
  59   0.0000       0.271399         7.3851 
  60   0.0000       0.273140         7.4325 
  61   0.0000       0.273700         7.4478 
  62   0.0000       0.277832         7.5602 
  63   0.0000       0.283349         7.7103 
  64   0.0000       0.287991         7.8366 
  65   0.0000       0.289587         7.8801 
  66   0.0000       0.292661         7.9637 
  67   0.0000       0.297227         8.0879 
  68   0.0000       0.303964         8.2713 
  69   0.0000       0.307536         8.3685 
  70   0.0000       0.322060         8.7637 
  71   0.0000       0.332514         9.0482 
  72   0.0000       0.335867         9.1394 
  73   0.0000       0.338693         9.2163 
  74   0.0000       0.349813         9.5189 
  75   0.0000       0.354290         9.6407 
  76   0.0000       0.357953         9.7404 
  77   0.0000       0.370909        10.0930 
  78   0.0000       0.379888        10.3373 
  79   0.0000       0.384328        10.4581 
  80   0.0000       0.389195        10.5905 
  81   0.0000       0.394200        10.7267 
  82   0.0000       0.403046        10.9675 
  83   0.0000       0.409394        11.1402 
  84   0.0000       0.415607        11.3093 
  85   0.0000       0.421290        11.4639 
  86   0.0000       0.428371        11.6566 
  87   0.0000       0.430821        11.7232 
  88   0.0000       0.432328        11.7642 
  89   0.0000       0.432861        11.7787 
  90   0.0000       0.445470        12.1219 
  91   0.0000       0.453219        12.3327 
  92   0.0000       0.455446        12.3933 
  93   0.0000       0.459668        12.5082 
  94   0.0000       0.459832        12.5127 
  95   0.0000       0.464209        12.6318 
  96   0.0000       0.467380        12.7180 
  97   0.0000       0.476376        12.9628 
  98   0.0000       0.476555        12.9677 
  99   0.0000       0.477814        13.0020 
 100   0.0000       0.485976        13.2241 
 101   0.0000       0.490386        13.3441 
 102   0.0000       0.496132        13.5005 
 103   0.0000       0.498227        13.5574 
 104   0.0000       0.507348        13.8057 
 105   0.0000       0.511572        13.9206 
 106   0.0000       0.513283        13.9671 
 107   0.0000       0.517841        14.0912 
 108   0.0000       0.522948        14.2302 
 109   0.0000       0.534333        14.5399 
 110   0.0000       0.536229        14.5915 
 111   0.0000       0.545316        14.8388 
 112   0.0000       0.545645        14.8478 
 113   0.0000       0.551316        15.0021 
 114   0.0000       0.558346        15.1934 
 115   0.0000       0.559753        15.2316 
 116   0.0000       0.562204        15.2984 
 117   0.0000       0.563930        15.3453 
 118   0.0000       0.566422        15.4131 
 119   0.0000       0.568218        15.4620 
 120   0.0000       0.593439        16.1483 
 121   0.0000       0.598561        16.2877 
 122   0.0000       0.610198        16.6043 
 123   0.0000       0.610699        16.6180 
 124   0.0000       0.613097        16.6832 
 125   0.0000       0.619605        16.8603 
 126   0.0000       0.634988        17.2789 
 127   0.0000       0.644234        17.5305 
 128   0.0000       0.645919        17.5763 
 129   0.0000       0.655000        17.8235 
 130   0.0000       0.658771        17.9261 
 131   0.0000       0.663399        18.0520 
 132   0.0000       0.666057        18.1243 
 133   0.0000       0.677757        18.4427 
 134   0.0000       0.682485        18.5713 
 135   0.0000       0.685606        18.6563 
 136   0.0000       0.696994        18.9662 
 137   0.0000       0.715244        19.4628 
 138   0.0000       0.719925        19.5902 
 139   0.0000       0.728909        19.8346 
 140   0.0000       0.738931        20.1073 
 141   0.0000       0.744861        20.2687 
 142   0.0000       0.749757        20.4019 
 143   0.0000       0.753053        20.4916 
 144   0.0000       0.766342        20.8532 
 145   0.0000       0.766544        20.8587 
 146   0.0000       0.767531        20.8856 
 147   0.0000       0.773219        21.0404 
 148   0.0000       0.779965        21.2239 
 149   0.0000       0.787969        21.4417 
 150   0.0000       0.789786        21.4912 
 151   0.0000       0.797309        21.6959 
 152   0.0000       0.805390        21.9158 
 153   0.0000       0.815078        22.1794 
 154   0.0000       0.816444        22.2166 
 155   0.0000       0.822476        22.3807 
 156   0.0000       0.831388        22.6232 
 157   0.0000       0.832909        22.6646 
 158   0.0000       0.835232        22.7278 
 159   0.0000       0.841792        22.9063 
 160   0.0000       0.842100        22.9147 
 161   0.0000       0.847596        23.0643 
 162   0.0000       0.853564        23.2267 
 163   0.0000       0.858223        23.3534 
 164   0.0000       0.868833        23.6422 
 165   0.0000       0.869697        23.6657 
 166   0.0000       0.874487        23.7960 
 167   0.0000       0.875752        23.8304 
 168   0.0000       0.881474        23.9861 
 169   0.0000       0.889467        24.2036 
 170   0.0000       0.890403        24.2291 
 171   0.0000       0.893183        24.3048 
 172   0.0000       0.897190        24.4138 
 173   0.0000       0.910814        24.7845 
 174   0.0000       0.911379        24.7999 
 175   0.0000       0.916600        24.9420 
 176   0.0000       0.916915        24.9505 
 177   0.0000       0.918523        24.9943 
 178   0.0000       0.922383        25.0993 
 179   0.0000       0.929949        25.3052 
 180   0.0000       0.938131        25.5278 
 181   0.0000       0.938156        25.5285 
 182   0.0000       0.946063        25.7437 
 183   0.0000       0.955027        25.9876 
 184   0.0000       0.955508        26.0007 
 185   0.0000       0.960666        26.1410 
 186   0.0000       0.968222        26.3467 
 187   0.0000       0.969616        26.3846 
 188   0.0000       0.976805        26.5802 
 189   0.0000       0.981311        26.7028 
 190   0.0000       0.994091        27.0506 
 191   0.0000       0.994974        27.0746 
 192   0.0000       1.007833        27.4245 
 193   0.0000       1.011777        27.5319 
 194   0.0000       1.014909        27.6171 
 195   0.0000       1.020629        27.7727 
 196   0.0000       1.022210        27.8157 
 197   0.0000       1.037500        28.2318 
 198   0.0000       1.047489        28.5036 
 199   0.0000       1.053320        28.6623 
 200   0.0000       1.063737        28.9457 
 201   0.0000       1.072303        29.1788 
 202   0.0000       1.083526        29.4842 
 203   0.0000       1.096027        29.8244 
 204   0.0000       1.100756        29.9531 
 205   0.0000       1.112905        30.2837 
 206   0.0000       1.124498        30.5991 
 207   0.0000       1.128905        30.7191 
 208   0.0000       1.143344        31.1120 
 209   0.0000       1.161560        31.6077 
 210   0.0000       1.182014        32.1642 
 211   0.0000       1.189526        32.3686 
 212   0.0000       1.212998        33.0074 
 213   0.0000       1.222547        33.2672 
 214   0.0000       1.231925        33.5224 
 215   0.0000       1.258893        34.2562 
 216   0.0000       1.264022        34.3958 
 217   0.0000       1.267034        34.4777 
 218   0.0000       1.290580        35.1185 
 219   0.0000       1.293043        35.1855 
 220   0.0000       1.302898        35.4537 
 221   0.0000       1.306368        35.5481 
 222   0.0000       1.314349        35.7653 
 223   0.0000       1.320514        35.9330 
 224   0.0000       1.323899        36.0251 
 225   0.0000       1.345349        36.6088 
 226   0.0000       1.352858        36.8131 
 227   0.0000       1.366255        37.1777 
 228   0.0000       1.372838        37.3568 
 229   0.0000       1.387004        37.7423 
 230   0.0000       1.440456        39.1968 
 231   0.0000       1.480714        40.2923 
 232   0.0000       1.490762        40.5657 
 233   0.0000       1.507115        41.0107 
 234   0.0000       1.533277        41.7226 
 235   0.0000       1.550416        42.1890 
 236   0.0000       1.562779        42.5254 
 237   0.0000       1.570015        42.7223 
 238   0.0000       1.586739        43.1774 
 239   0.0000       1.599243        43.5176 
 240   0.0000       1.606253        43.7084 
 241   0.0000       1.620085        44.0847 
 242   0.0000       1.628804        44.3220 
 243   0.0000       1.653287        44.9882 
 244   0.0000       1.657817        45.1115 
 245   0.0000       1.666918        45.3591 
 246   0.0000       1.685598        45.8674 
 247   0.0000       1.689500        45.9736 
 248   0.0000       1.695477        46.1363 
 249   0.0000       1.722839        46.8808 
 250   0.0000       1.729197        47.0538 
 251   0.0000       1.738856        47.3167 
 252   0.0000       1.738947        47.3191 
 253   0.0000       1.796595        48.8878 
 254   0.0000       1.797691        48.9177 
 255   0.0000       1.828191        49.7476 
 256   0.0000       1.828716        49.7619 
 257   0.0000       1.867177        50.8085 
 258   0.0000       1.881171        51.1893 
 259   0.0000       1.901218        51.7348 
 260   0.0000       1.904061        51.8121 
 261   0.0000       1.932544        52.5872 
 262   0.0000       1.934902        52.6514 
 263   0.0000       1.967503        53.5385 
 264   0.0000       1.975164        53.7469 
 265   0.0000       2.019520        54.9539 
 266   0.0000       2.025145        55.1070 
 267   0.0000       2.032568        55.3090 
 268   0.0000       2.040760        55.5319 
 269   0.0000       2.058204        56.0066 
 270   0.0000       2.109493        57.4022 
 271   0.0000       2.118945        57.6594 
 272   0.0000       2.127100        57.8813 
 273   0.0000       2.140897        58.2568 
 274   0.0000       2.248153        61.1753 
 275   0.0000       2.252678        61.2985 
 276   0.0000       2.347727        63.8849 
 277   0.0000       2.403120        65.3922 
 278   0.0000       2.412581        65.6497 
 279   0.0000       2.413641        65.6785 
 280   0.0000       2.479603        67.4734 
 281   0.0000       2.481849        67.5345 
 282   0.0000       2.512673        68.3733 
 283   0.0000       2.552358        69.4532 
 284   0.0000       2.585571        70.3570 
 285   0.0000       2.675067        72.7923 
 286   0.0000       2.699150        73.4476 
 287   0.0000       2.753944        74.9386 
 288   0.0000       2.768643        75.3386 
 289   0.0000       2.772121        75.4333 
 290   0.0000       2.779403        75.6314 
 291   0.0000       2.810212        76.4697 
 292   0.0000       2.835242        77.1508 
 293   0.0000       2.901024        78.9409 
 294   0.0000       2.913274        79.2742 
 295   0.0000       2.942447        80.0680 
 296   0.0000       3.007432        81.8364 
 297   0.0000       3.017130        82.1003 
 298   0.0000       3.159690        85.9795 
 299   0.0000       3.223777        87.7234 
 300   0.0000       3.255514        88.5870 
 301   0.0000       3.279708        89.2454 
 302   0.0000       3.280861        89.2768 
 303   0.0000       3.318269        90.2947 
 304   0.0000       3.324939        90.4762 
 305   0.0000       3.361573        91.4731 
 306   0.0000       3.390159        92.2509 
 307   0.0000       3.411526        92.8323 
 308   0.0000       3.444670        93.7342 
 309   0.0000       3.483284        94.7850 
 310   0.0000       3.491870        95.0186 
 311   0.0000       3.501266        95.2743 
 312   0.0000       3.519227        95.7630 
 313   0.0000       3.527774        95.9956 
 314   0.0000       3.537733        96.2666 
 315   0.0000       3.558933        96.8435 
 316   0.0000       3.599628        97.9508 
 317   0.0000       3.612513        98.3015 
 318   0.0000       3.634072        98.8881 
 319   0.0000       3.687761       100.3491 
 320   0.0000       3.688404       100.3666 
 321   0.0000       3.716876       101.1413 
 322   0.0000       3.767859       102.5286 
 323   0.0000       3.778901       102.8291 
 324   0.0000       3.797345       103.3310 
 325   0.0000       3.822383       104.0123 
 326   0.0000       3.833961       104.3274 
 327   0.0000       3.850852       104.7870 
 328   0.0000       3.896675       106.0339 
 329   0.0000       3.922402       106.7340 
 330   0.0000       3.969614       108.0187 
 331   0.0000       3.971982       108.0831 
 332   0.0000       3.984136       108.4138 
 333   0.0000       3.991847       108.6237 
 334   0.0000       4.038499       109.8931 
 335   0.0000       4.066502       110.6551 
 336   0.0000       4.068966       110.7222 
 337   0.0000       4.135220       112.5251 
 338   0.0000       4.136119       112.5495 
 339   0.0000       4.180974       113.7701 
 340   0.0000       4.236959       115.2935 
 341   0.0000       4.241981       115.4302 
 342   0.0000       4.267427       116.1226 
 343   0.0000       4.276852       116.3791 
 344   0.0000       4.320687       117.5719 
 345   0.0000       4.327983       117.7704 
 346   0.0000       4.398228       119.6819 
 347   0.0000       4.428687       120.5107 
 348   0.0000       4.473191       121.7217 
 349   0.0000       4.480564       121.9223 
 350   0.0000       4.505470       122.6001 
 351   0.0000       4.549219       123.7905 
 352   0.0000       4.602523       125.2410 
 353   0.0000       4.653315       126.6231 
 354   0.0000       4.732153       128.7684 
 355   0.0000       4.756973       129.4438 
 356   0.0000       4.776956       129.9876 
 357   0.0000       4.820248       131.1656 
 358   0.0000       4.883275       132.8807 
 359   0.0000       4.919141       133.8566 
 360   0.0000       4.975035       135.3776 
 361   0.0000       4.989585       135.7735 
 362   0.0000       5.017012       136.5198 
 363   0.0000       5.078381       138.1898 
 364   0.0000       5.084954       138.3686 
 365   0.0000       5.145988       140.0294 
 366   0.0000       5.186427       141.1299 
 367   0.0000       5.292694       144.0215 
 368   0.0000       5.359115       145.8289 
 369   0.0000       5.400541       146.9562 
 370   0.0000       5.402578       147.0116 
 371   0.0000       5.430028       147.7586 
 372   0.0000       5.491893       149.4420 
 373   0.0000       5.559542       151.2828 
 374   0.0000       5.671684       154.3344 
 375   0.0000       5.803800       157.9294 
 376   0.0000       5.812913       158.1774 
 377   0.0000       5.844821       159.0457 
 378   0.0000       5.860084       159.4610 
 379   0.0000       5.913024       160.9016 
 380   0.0000       5.945348       161.7811 
 381   0.0000       6.011720       163.5872 
 382   0.0000       6.083423       165.5384 
 383   0.0000       6.088401       165.6738 
 384   0.0000       6.127409       166.7353 
 385   0.0000       6.216742       169.1661 
 386   0.0000       6.271664       170.6606 
 387   0.0000       6.306867       171.6186 
 388   0.0000       6.318560       171.9368 
 389   0.0000       6.340933       172.5456 
 390   0.0000       6.386403       173.7829 
 391   0.0000       6.463116       175.8703 
 392   0.0000       6.560414       178.5179 
 393   0.0000       6.564219       178.6215 
 394   0.0000       6.580799       179.0727 
 395   0.0000       6.668209       181.4512 
 396   0.0000       6.682888       181.8506 
 397   0.0000       6.755317       183.8215 
 398   0.0000       6.782589       184.5636 
 399   0.0000       6.840966       186.1521 
 400   0.0000       6.863974       186.7782 
 401   0.0000       7.067865       192.3264 
 402   0.0000       7.083868       192.7618 
 403   0.0000       7.091767       192.9768 
 404   0.0000       7.137714       194.2271 
 405   0.0000       7.302490       198.7109 
 406   0.0000       7.351788       200.0523 
 407   0.0000       7.427876       202.1228 
 408   0.0000       7.428601       202.1425 
 409   0.0000       7.616930       207.2672 
 410   0.0000       7.625068       207.4886 
 411   0.0000       7.704121       209.6398 
 412   0.0000       7.714297       209.9167 
 413   0.0000       7.781852       211.7550 
 414   0.0000       7.800465       212.2615 
 415   0.0000       7.948549       216.2910 
 416   0.0000       7.988144       217.3685 
 417   0.0000       8.049369       219.0345 
 418   0.0000       8.144043       221.6107 
 419   0.0000       8.219458       223.6628 
 420   0.0000       8.241430       224.2607 
 421   0.0000       8.671618       235.9667 
 422   0.0000       8.678800       236.1622 
 423   0.0000       8.694616       236.5925 
 424   0.0000       8.723335       237.3740 
 425   0.0000       8.815053       239.8698 
 426   0.0000       8.820380       240.0147 
 427   0.0000       8.844597       240.6737 
 428   0.0000       8.880127       241.6405 
 429   0.0000       8.976695       244.2683 
 430   0.0000       9.022658       245.5190 
 431   0.0000       9.037910       245.9340 
 432   0.0000       9.087955       247.2958 
 433   0.0000       9.148098       248.9324 
 434   0.0000       9.183813       249.9043 
 435   0.0000       9.185166       249.9411 
 436   0.0000       9.358470       254.6569 
 437   0.0000       9.376836       255.1567 
 438   0.0000       9.408910       256.0295 
 439   0.0000       9.410145       256.0631 
 440   0.0000       9.630610       262.0622 
 441   0.0000       9.648770       262.5564 
 442   0.0000       9.703536       264.0466 
 443   0.0000       9.709634       264.2126 
 444   0.0000       9.792549       266.4688 
 445   0.0000       9.865989       268.4672 
 446   0.0000      10.011100       272.4159 
 447   0.0000      10.042047       273.2580 
 448   0.0000      10.059266       273.7265 
 449   0.0000      10.118040       275.3259 
 450   0.0000      10.155959       276.3577 
 451   0.0000      10.218804       278.0678 
 452   0.0000      10.228464       278.3306 
 453   0.0000      10.237520       278.5771 
 454   0.0000      10.320101       280.8242 
 455   0.0000      10.499708       285.7116 
 456   0.0000      10.539242       286.7873 
 457   0.0000      11.085420       301.6496 
 458   0.0000      11.156637       303.5875 
 459   0.0000      11.189379       304.4785 
 460   0.0000      11.222165       305.3706 
 461   0.0000      11.355230       308.9915 
 462   0.0000      11.403684       310.3100 
 463   0.0000      11.473561       312.2115 
 464   0.0000      11.522191       313.5348 
 465   0.0000      11.557888       314.5061 
 466   0.0000      11.564774       314.6935 
 467   0.0000      11.618353       316.1515 
 468   0.0000      11.621667       316.2416 
 469   0.0000      11.718711       318.8823 
 470   0.0000      11.780778       320.5713 
 471   0.0000      11.793680       320.9223 
 472   0.0000      11.798999       321.0671 
 473   0.0000      11.811430       321.4053 
 474   0.0000      11.943586       325.0015 
 475   0.0000      11.950302       325.1842 
 476   0.0000      12.045883       327.7851 
 477   0.0000      12.058873       328.1386 
 478   0.0000      12.082422       328.7794 
 479   0.0000      12.288568       334.3889 
 480   0.0000      12.388521       337.1088 
 481   0.0000      12.416858       337.8799 
 482   0.0000      12.462084       339.1106 
 483   0.0000      12.522938       340.7665 
 484   0.0000      12.537542       341.1639 
 485   0.0000      12.582869       342.3973 
 486   0.0000      12.606427       343.0383 
 487   0.0000      12.691072       345.3416 
 488   0.0000      12.722013       346.1836 
 489   0.0000      12.754219       347.0600 
 490   0.0000      12.770029       347.4902 
 491   0.0000      12.842049       349.4499 
 492   0.0000      12.872132       350.2685 
 493   0.0000      12.904689       351.1544 
 494   0.0000      12.951986       352.4415 
 495   0.0000      12.957281       352.5855 
 496   0.0000      12.968114       352.8803 
 497   0.0000      12.984048       353.3139 
 498   0.0000      13.071141       355.6838 
 499   0.0000      13.144221       357.6724 
 500   0.0000      13.150643       357.8472 
 501   0.0000      13.191501       358.9590 
 502   0.0000      13.214251       359.5781 
 503   0.0000      13.616957       370.5362 
 504   0.0000      13.666032       371.8716 
 505   0.0000      13.727878       373.5546 
 506   0.0000      13.753014       374.2385 
 507   0.0000      13.873217       377.5094 
 508   0.0000      14.009051       381.2056 
 509   0.0000      14.066464       382.7680 
 510   0.0000      14.168025       385.5316 
 511   0.0000      14.247670       387.6988 
 512   0.0000      14.271175       388.3384 
 513   0.0000      14.384524       391.4228 
 514   0.0000      14.427715       392.5981 
 515   0.0000      14.647591       398.5812 
 516   0.0000      14.696425       399.9101 
 517   0.0000      15.182444       413.1353 
 518   0.0000      15.298713       416.2991 
 519   0.0000      15.317289       416.8046 
 520   0.0000      15.418618       419.5619 
 521   0.0000      15.434135       419.9842 
 522   0.0000      15.443438       420.2373 
 523   0.0000      15.481806       421.2814 
 524   0.0000      15.530519       422.6069 
 525   0.0000      15.609818       424.7647 
 526   0.0000      15.611953       424.8228 
 527   0.0000      15.675870       426.5621 
 528   0.0000      15.849493       431.2866 
 529   0.0000      15.910722       432.9528 
 530   0.0000      15.944400       433.8692 
 531   0.0000      15.978261       434.7906 
 532   0.0000      15.990696       435.1290 
 533   0.0000      16.006544       435.5602 
 534   0.0000      16.053662       436.8424 
 535   0.0000      16.133546       439.0161 
 536   0.0000      16.160004       439.7361 
 537   0.0000      16.327506       444.2940 
 538   0.0000      16.359439       445.1630 
 539   0.0000      16.475686       448.3262 
 540   0.0000      16.635236       452.6678 
 541   0.0000      16.671209       453.6467 
 542   0.0000      16.692305       454.2207 
 543   0.0000      16.771996       456.3892 
 544   0.0000      16.772704       456.4085 
 545   0.0000      16.788530       456.8391 
 546   0.0000      16.823014       457.7775 
 547   0.0000      16.823589       457.7931 
 548   0.0000      16.851814       458.5612 
 549   0.0000      16.862764       458.8591 
 550   0.0000      16.954045       461.3430 
 551   0.0000      16.995021       462.4580 
 552   0.0000      17.059691       464.2178 
 553   0.0000      17.143005       466.4849 
 554   0.0000      17.175782       467.3768 
 555   0.0000      17.284502       470.3352 
 556   0.0000      17.284674       470.3399 
 557   0.0000      17.358902       472.3597 
 558   0.0000      17.409719       473.7425 
 559   0.0000      17.415072       473.8882 
 560   0.0000      17.657779       480.4926 
 561   0.0000      17.683043       481.1801 
 562   0.0000      17.733682       482.5580 
 563   0.0000      17.795246       484.2333 
 564   0.0000      17.803106       484.4471 
 565   0.0000      17.870748       486.2878 
 566   0.0000      17.889298       486.7925 
 567   0.0000      17.983808       489.3643 
 568   0.0000      18.130816       493.3646 
 569   0.0000      18.302347       498.0322 
 570   0.0000      18.621799       506.7249 
 571   0.0000      18.788611       511.2641 
 572   0.0000      18.814422       511.9664 
 573   0.0000      18.970797       516.2216 
 574   0.0000      18.972727       516.2741 
 575   0.0000      19.287510       524.8398 
 576   0.0000      19.289924       524.9055 
 577   0.0000      19.554897       532.1158 
 578   0.0000      19.612833       533.6923 
 579   0.0000      19.676482       535.4243 
 580   0.0000      19.732928       536.9603 
 581   0.0000      19.948425       542.8242 
 582   0.0000      20.748221       564.5878 
 583   0.0000      20.856649       567.5383 
 584   0.0000      20.960250       570.3574 
 585   0.0000      20.962820       570.4273 
 586   0.0000      21.025224       572.1254 
 587   0.0000      21.048371       572.7553 
 588   0.0000      21.194771       576.7390 
 589   0.0000      21.244519       578.0928 
 590   0.0000      21.245818       578.1281 
 591   0.0000      21.732134       591.3614 
 592   0.0000      22.102803       601.4479 
 593   0.0000      22.176188       603.4448 
 594   0.0000      23.650801       643.5710 
 595   0.0000      23.720206       645.4596 
 596   0.0000      23.761216       646.5756 
 597   0.0000      23.793770       647.4614 
 598   0.0000      23.811634       647.9475 
 599   0.0000      23.815926       648.0643 
 600   0.0000      23.879497       649.7942 
 601   0.0000      23.907204       650.5481 
 602   0.0000      24.392434       663.7519 
 603   0.0000      24.538238       667.7194 
 604   0.0000      25.645703       697.8551 
 605   0.0000      25.711896       699.6562 
 606   0.0000      26.021668       708.0856 
 607   0.0000      26.045527       708.7348 
 608   0.0000      27.664468       752.7885 
 609   0.0000      27.868392       758.3375 
 610   0.0000      28.363756       771.8170 
 611   0.0000      28.799105       783.6635 
 612   0.0000      28.899849       786.4049 
 613   0.0000      29.113241       792.2116 
 614   0.0000      41.555246      1130.7757 
 615   0.0000      41.623976      1132.6460 
 616   0.0000      41.696500      1134.6195 
 617   0.0000      41.822558      1138.0496 
 618   0.0000      48.208528      1311.8207 
 619   0.0000      48.223150      1312.2186 
 620   0.0000      48.366844      1316.1287 
 621   0.0000      48.377381      1316.4155 
 622   0.0000      48.424177      1317.6888 
 623   0.0000      48.440248      1318.1262 
 624   0.0000      48.948101      1331.9455 
 625   0.0000      49.357502      1343.0859 
 626   0.0000      49.398349      1344.1974 
 627   0.0000      49.419094      1344.7619 
 628   0.0000      91.090902      2478.7095 
 629   0.0000      91.150804      2480.3395 
 630   0.0000      91.171275      2480.8965 
 631   0.0000      91.213968      2482.0583 
 632   0.0000      91.225899      2482.3829 
 633   0.0000      91.233233      2482.5825 
 634   0.0000      91.299539      2484.3867 
 635   0.0000      91.303342      2484.4902 
 636   0.0000      92.899821      2527.9326 
 637   0.0000      92.923721      2528.5830 
 638   0.0000      93.023254      2531.2914 
 639   0.0000      93.082943      2532.9156 
 640   0.0000     105.896774      2881.5977 
 641   0.0000     106.258249      2891.4339 

                    ********************************
                    * MULLIKEN POPULATION ANALYSIS *
                    ********************************

--------------------------------------------
MULLIKEN ATOMIC CHARGES AND SPIN POPULATIONS
--------------------------------------------
   0 N :   -0.271655   -0.000000
   1 N :   -0.271675    0.000000
   2 H :    0.110246   -0.000000
   3 H :    0.110202   -0.000000
   4 H :    0.161436   -0.000000
   5 H :    0.161446    0.000000
Sum of atomic charges         :    0.0000000
Sum of atomic spin populations:   -0.0000000

-----------------------------------------------------
MULLIKEN REDUCED ORBITAL CHARGES AND SPIN POPULATIONS
-----------------------------------------------------
CHARGE
  0 N s       :     3.574534  s :     3.574534
      pz      :     1.449646  p :     3.639048
      px      :     1.208571
      py      :     0.980832
      dz2     :     0.012197  d :     0.050050
      dxz     :     0.006435
      dyz     :     0.016473
      dx2y2   :     0.005675
      dxy     :     0.009269
      f0      :    -0.000469  f :     0.009095
      f+1     :     0.000727
      f-1     :     0.001597
      f+2     :     0.001928
      f-2     :    -0.000078
      f+3     :     0.005693
      f-3     :    -0.000302
      g0      :    -0.000046  g :    -0.001054
      g+1     :     0.000068
      g-1     :    -0.001268
      g+2     :     0.000167
      g-2     :    -0.000430
      g+3     :     0.000066
      g-3     :     0.000354
      g+4     :    -0.000065
      g-4     :     0.000100
[...]
      f+1     :     0.000000
      f-1     :    -0.000000
      f+2     :    -0.000000
      f-2     :     0.000000
      f+3     :    -0.000000
      f-3     :    -0.000000
      g0      :    -0.000000  g :    -0.000000
      g+1     :     0.000000
      g-1     :     0.000000
      g+2     :    -0.000000
      g-2     :     0.000000
      g+3     :    -0.000000
      g-3     :     0.000000
      g+4     :    -0.000000
      g-4     :    -0.000000


                     *******************************
                     * LOEWDIN POPULATION ANALYSIS *
                     *******************************

-------------------------------------------
LOEWDIN ATOMIC CHARGES AND SPIN POPULATIONS
-------------------------------------------
   0 N :    1.043645   -0.000000
   1 N :    1.043645   -0.000000
   2 H :   -0.526216   -0.000000
   3 H :   -0.526216   -0.000000
   4 H :   -0.517430   -0.000000
   5 H :   -0.517430    0.000000

----------------------------------------------------
LOEWDIN REDUCED ORBITAL CHARGES AND SPIN POPULATIONS
----------------------------------------------------
CHARGE
  0 N s       :     2.614959  s :     2.614959
      pz      :     0.985056  p :     2.662502
      px      :     0.898791
      py      :     0.778655
      dz2     :     0.054967  d :     0.415683
      dxz     :     0.020483
      dyz     :     0.117420
      dx2y2   :     0.116572
      dxy     :     0.106241
      f0      :     0.022516  f :     0.168389
      f+1     :     0.008188
      f-1     :     0.019903
      f+2     :     0.034979
      f-2     :     0.003319
      f+3     :     0.052957
      f-3     :     0.026527
      g0      :     0.003790  g :     0.067319
      g+1     :     0.000613
      g-1     :     0.012886
      g+2     :     0.005664
      g-2     :     0.004248
      g+3     :     0.001682
      g-3     :     0.010230
      g+4     :     0.008052
      g-4     :     0.020154
      h0      :     0.002402  h :     0.027503
      h+1     :     0.000463
      h-1     :     0.002516
      h+2     :     0.004159
      h-2     :     0.000403
      h+3     :     0.002533
      h-3     :     0.001458
      h+4     :     0.002744
      h-4     :     0.000854
      h+5     :     0.007509
      h-5     :     0.002463
  1 N s       :     2.614959  s :     2.614959
      pz      :     0.985056  p :     2.662502
      px      :     0.898791
      py      :     0.778655
      dz2     :     0.054967  d :     0.415683
      dxz     :     0.020483
      dyz     :     0.117420
      dx2y2   :     0.116572
      dxy     :     0.106241
      f0      :     0.022516  f :     0.168389
      f+1     :     0.008188
      f-1     :     0.019903
      f+2     :     0.034979
      f-2     :     0.003319
      f+3     :     0.052957
      f-3     :     0.026527
      g0      :     0.003790  g :     0.067319
      g+1     :     0.000613
      g-1     :     0.012886
      g+2     :     0.005664
      g-2     :     0.004248
      g+3     :     0.001682
      g-3     :     0.010230
      g+4     :     0.008052
      g-4     :     0.020154
      h0      :     0.002402  h :     0.027503
      h+1     :     0.000463
      h-1     :     0.002516
      h+2     :     0.004159
      h-2     :     0.000403
      h+3     :     0.002533
      h-3     :     0.001458
      h+4     :     0.002744
      h-4     :     0.000854
      h+5     :     0.007509
      h-5     :     0.002463
  2 H s       :     0.563943  s :     0.563943
      pz      :     0.179662  p :     0.388177
      px      :     0.109543
      py      :     0.098972
      dz2     :     0.106560  d :     0.336096
      dxz     :     0.063375
      dyz     :     0.072104
      dx2y2   :     0.057256
      dxy     :     0.036801
      f0      :     0.031921  f :     0.156604
      f+1     :     0.010669
      f-1     :     0.023493
      f+2     :     0.029793
      f-2     :     0.018184
      f+3     :     0.028886
      f-3     :     0.013658
      g0      :     0.009415  g :     0.081396
      g+1     :     0.002717
      g-1     :     0.007897
      g+2     :     0.011152
      g-2     :     0.004697
      g+3     :     0.014217
      g-3     :     0.009704
      g+4     :     0.007535
      g-4     :     0.014062
  3 H s       :     0.563943  s :     0.563943
      pz      :     0.179662  p :     0.388177
      px      :     0.109543
      py      :     0.098972
      dz2     :     0.106560  d :     0.336096
      dxz     :     0.063375
      dyz     :     0.072104
      dx2y2   :     0.057256
      dxy     :     0.036801
      f0      :     0.031921  f :     0.156604
      f+1     :     0.010669
      f-1     :     0.023493
      f+2     :     0.029793
      f-2     :     0.018184
      f+3     :     0.028886
      f-3     :     0.013658
      g0      :     0.009415  g :     0.081396
      g+1     :     0.002717
      g-1     :     0.007897
      g+2     :     0.011152
      g-2     :     0.004697
      g+3     :     0.014217
      g-3     :     0.009704
      g+4     :     0.007535
      g-4     :     0.014062
  4 H s       :     0.564222  s :     0.564222
      pz      :     0.114188  p :     0.382774
      px      :     0.174167
      py      :     0.094420
      dz2     :     0.026994  d :     0.333957
      dxz     :     0.104711
      dyz     :     0.025165
      dx2y2   :     0.095244
      dxy     :     0.081844
      f0      :     0.018367  f :     0.153452
      f+1     :     0.009216
      f-1     :     0.009734
      f+2     :     0.028175
      f-2     :     0.015111
      f+3     :     0.037276
      f-3     :     0.035572
      g0      :     0.003228  g :     0.083024
      g+1     :     0.003655
      g-1     :     0.011646
      g+2     :     0.003249
      g-2     :     0.006327
      g+3     :     0.015395
      g-3     :     0.001661
      g+4     :     0.023177
      g-4     :     0.014685
  5 H s       :     0.564222  s :     0.564222
      pz      :     0.114188  p :     0.382774
      px      :     0.174167
      py      :     0.094420
      dz2     :     0.026994  d :     0.333957
      dxz     :     0.104711
      dyz     :     0.025165
      dx2y2   :     0.095244
      dxy     :     0.081844
      f0      :     0.018367  f :     0.153452
      f+1     :     0.009216
      f-1     :     0.009734
      f+2     :     0.028175
      f-2     :     0.015111
      f+3     :     0.037276
      f-3     :     0.035572
      g0      :     0.003228  g :     0.083024
      g+1     :     0.003655
      g-1     :     0.011646
      g+2     :     0.003249
      g-2     :     0.006327
      g+3     :     0.015395
      g-3     :     0.001661
      g+4     :     0.023177
      g-4     :     0.014685

SPIN
  0 N s       :     0.000000  s :     0.000000
      pz      :    -0.000000  p :    -0.000000
      px      :     0.000000
      py      :    -0.000000
      dz2     :    -0.000000  d :    -0.000000
      dxz     :     0.000000
      dyz     :     0.000000
      dx2y2   :     0.000000
      dxy     :    -0.000000
      f0      :    -0.000000  f :    -0.000000
      f+1     :     0.000000
      f-1     :    -0.000000
      f+2     :     0.000000
      f-2     :    -0.000000
      f+3     :    -0.000000
      f-3     :     0.000000
      g0      :     0.000000  g :     0.000000
      g+1     :    -0.000000
      g-1     :     0.000000
      g+2     :     0.000000
      g-2     :    -0.000000
      g+3     :     0.000000
      g-3     :    -0.000000
      g+4     :     0.000000
      g-4     :     0.000000
      h0      :     0.000000  h :     0.000000
      h+1     :    -0.000000
      h-1     :     0.000000
      h+2     :     0.000000
      h-2     :     0.000000
      h+3     :    -0.000000
      h-3     :     0.000000
      h+4     :    -0.000000
      h-4     :    -0.000000
      h+5     :     0.000000
      h-5     :     0.000000
  1 N s       :    -0.000000  s :    -0.000000
      pz      :    -0.000000  p :    -0.000000
      px      :    -0.000000
      py      :     0.000000
      dz2     :    -0.000000  d :     0.000000
      dxz     :     0.000000
      dyz     :     0.000000
      dx2y2   :     0.000000
      dxy     :     0.000000
      f0      :     0.000000  f :     0.000000
      f+1     :     0.000000
      f-1     :    -0.000000
      f+2     :     0.000000
      f-2     :    -0.000000
      f+3     :     0.000000
      f-3     :     0.000000
      g0      :     0.000000  g :    -0.000000
      g+1     :     0.000000
      g-1     :    -0.000000
      g+2     :     0.000000
      g-2     :     0.000000
      g+3     :     0.000000
      g-3     :     0.000000
      g+4     :    -0.000000
      g-4     :    -0.000000
      h0      :     0.000000  h :     0.000000
      h+1     :     0.000000
      h-1     :     0.000000
      h+2     :    -0.000000
      h-2     :    -0.000000
      h+3     :     0.000000
      h-3     :    -0.000000
      h+4     :    -0.000000
      h-4     :    -0.000000
      h+5     :     0.000000
      h-5     :    -0.000000
  2 H s       :     0.000000  s :     0.000000
      pz      :    -0.000000  p :    -0.000000
      px      :    -0.000000
      py      :    -0.000000
      dz2     :     0.000000  d :     0.000000
      dxz     :    -0.000000
      dyz     :     0.000000
      dx2y2   :     0.000000
      dxy     :    -0.000000
      f0      :     0.000000  f :     0.000000
      f+1     :     0.000000
      f-1     :    -0.000000
      f+2     :     0.000000
      f-2     :    -0.000000
      f+3     :     0.000000
      f-3     :    -0.000000
      g0      :     0.000000  g :    -0.000000
      g+1     :     0.000000
      g-1     :    -0.000000
      g+2     :    -0.000000
      g-2     :     0.000000
      g+3     :    -0.000000
      g-3     :    -0.000000
      g+4     :    -0.000000
      g-4     :     0.000000
  3 H s       :    -0.000000  s :    -0.000000
      pz      :    -0.000000  p :     0.000000
      px      :     0.000000
      py      :     0.000000
      dz2     :    -0.000000  d :     0.000000
      dxz     :    -0.000000
      dyz     :    -0.000000
      dx2y2   :     0.000000
      dxy     :    -0.000000
      f0      :    -0.000000  f :    -0.000000
      f+1     :    -0.000000
      f-1     :    -0.000000
      f+2     :     0.000000
      f-2     :     0.000000
      f+3     :     0.000000
      f-3     :    -0.000000
      g0      :    -0.000000  g :    -0.000000
      g+1     :     0.000000
      g-1     :    -0.000000
      g+2     :    -0.000000
      g-2     :    -0.000000
      g+3     :    -0.000000
      g-3     :    -0.000000
      g+4     :     0.000000
      g-4     :    -0.000000
  4 H s       :    -0.000000  s :    -0.000000
      pz      :    -0.000000  p :     0.000000
      px      :     0.000000
      py      :     0.000000
      dz2     :    -0.000000  d :     0.000000
      dxz     :     0.000000
      dyz     :     0.000000
      dx2y2   :     0.000000
      dxy     :     0.000000
      f0      :    -0.000000  f :    -0.000000
      f+1     :     0.000000
      f-1     :    -0.000000
      f+2     :     0.000000
      f-2     :    -0.000000
      f+3     :    -0.000000
      f-3     :     0.000000
      g0      :     0.000000  g :    -0.000000
      g+1     :     0.000000
      g-1     :     0.000000
      g+2     :     0.000000
      g-2     :    -0.000000
      g+3     :    -0.000000
      g-3     :     0.000000
      g+4     :    -0.000000
      g-4     :     0.000000
  5 H s       :     0.000000  s :     0.000000
      pz      :     0.000000  p :     0.000000
      px      :     0.000000
      py      :    -0.000000
      dz2     :    -0.000000  d :    -0.000000
      dxz     :     0.000000
      dyz     :    -0.000000
      dx2y2   :     0.000000
      dxy     :    -0.000000
      f0      :     0.000000  f :    -0.000000
      f+1     :    -0.000000
      f-1     :    -0.000000
      f+2     :     0.000000
      f-2     :    -0.000000
      f+3     :    -0.000000
      f-3     :    -0.000000
      g0      :     0.000000  g :     0.000000
      g+1     :    -0.000000
      g-1     :    -0.000000
      g+2     :     0.000000
      g-2     :    -0.000000
      g+3     :     0.000000
      g-3     :     0.000000
      g+4     :     0.000000
      g-4     :    -0.000000


                      *****************************
                      * MAYER POPULATION ANALYSIS *
                      *****************************

  NA   - Mulliken gross atomic population
  ZA   - Total nuclear charge
  QA   - Mulliken gross atomic charge
  VA   - Mayer's total valence
  BVA  - Mayer's bonded valence
  FA   - Mayer's free valence

  ATOM       NA         ZA         QA         VA         BVA        FA
  0 N      7.2717     7.0000    -0.2717     2.7536     2.7536     0.0000
  1 N      7.2717     7.0000    -0.2717     2.7536     2.7536     0.0000
  2 H      0.8898     1.0000     0.1102     1.0518     1.0518     0.0000
  3 H      0.8898     1.0000     0.1102     1.0519     1.0519     0.0000
  4 H      0.8386     1.0000     0.1614     1.0271     1.0271     0.0000
  5 H      0.8386     1.0000     0.1614     1.0271     1.0271    -0.0000

  Mayer bond orders larger than 0.1
B(  0-N ,  1-N ) :   0.7301 B(  0-N ,  2-H ) :   1.0241 B(  0-N ,  4-H ) :   0.9914 
B(  1-N ,  3-H ) :   1.0241 B(  1-N ,  5-H ) :   0.9913 

-------
TIMINGS
-------

Total SCF time: 0 days 1 hours 4 min 39 sec 

Total time                  ....    3879.497 sec
Sum of individual times     ....    3877.787 sec  (100.0%)

Fock matrix formation       ....    3867.563 sec  ( 99.7%)
  XC integration            ....      57.406 sec  (  1.5% of F)
    Basis function eval.    ....       2.280 sec  (  4.0% of XC)
    Density eval.           ....      16.188 sec  ( 28.2% of XC)
    XC-Functional eval.     ....       0.182 sec  (  0.3% of XC)
    XC-Potential eval.      ....      33.404 sec  ( 58.2% of XC)
Diagonalization             ....       4.614 sec  (  0.1%)
Density matrix formation    ....       0.063 sec  (  0.0%)
Population analysis         ....       0.426 sec  (  0.0%)
Initial guess               ....       2.459 sec  (  0.1%)
Orbital Transformation      ....       0.000 sec  (  0.0%)
Orbital Orthonormalization  ....       0.000 sec  (  0.0%)
DIIS solution               ....       2.105 sec  (  0.1%)
Grid generation             ....       0.558 sec  (  0.0%)

-------------------------   --------------------
FINAL SINGLE POINT ENERGY      -111.787748375934
-------------------------   --------------------


                            ***************************************
                            *     ORCA property calculations      *
                            ***************************************

                                    ---------------------
                                    Active property flags
                                    ---------------------
   (+) Dipole Moment
   (+) Polarizability


------------------------------------------------------------------------------
                       ORCA ELECTRIC PROPERTIES CALCULATION
------------------------------------------------------------------------------

Dipole Moment Calculation                       ... on
Quadrupole Moment Calculation                   ... off
Polarizability Calculation                      ... Analytic (CP-SCF)
GBWName                                         ... n2h4_pbe.gbw
Electron density file                           ... n2h4_pbe.scfp.tmp
The origin for moment calculation is the CENTER OF MASS  = ( 0.000000,  0.000000 -0.092039)

-------------
DIPOLE MOMENT
-------------
                                X             Y             Z
Electronic contribution:      0.00000      -0.00000      -0.62004
Nuclear contribution   :      0.00000       0.00000       1.65745
                        -----------------------------------------
Total Dipole Moment    :      0.00000      -0.00000       1.03741
                        -----------------------------------------
Magnitude (a.u.)       :      1.03741
Magnitude (Debye)      :      2.63689



--------------------
Rotational spectrum 
--------------------
 
Rotational constants in cm-1:     4.618223     0.834553     0.803281 
Rotational constants in MHz : 138450.849442 25019.276706 24081.751523 

 Dipole components along the rotational axes: 
x,y,z [a.u.] :     0.000000    -0.000000     1.037410 
x,y,z [Debye]:     0.000000    -0.000000     2.636887 

 
Transforming and storing MO dipole integrals   ... done

                ... starting polarizability calculation

Opening the Dipole integral file               ... (n2h4_pbe.dmo.tmp) done
Reading Dipole-MO integrals                    ... done
Solving CP-SCF equations                       ... 

           ************************************************************
           *        Program running with 4 parallel MPI-processes     *
           *              working on a common directory               *
           ************************************************************

------------------------------------------------------------------------------
                           ORCA CP-SCF CALCULATION
------------------------------------------------------------------------------

Input orbitals are from        ... n2h4_pbe.gbw
Input Perturbation             ... n2h4_pbe.cpv.tmp
Wavefunction output            ... n2h4_pbe.cpu.tmp
Perturbation mode              ... Real perturbation (singlet)
Solver                         ... POPLE
Max. number of iterations      ... 200
Convergence tolerance          ... 1.000e-06
Integral handling              ... Direct
Number of perturbations        ... 3
Number of operators            ... 2
Orbital ranges used for CP-SCF:
 Operator 0:  Orbitals   0...  8  to   9...641
 Operator 1:  Orbitals   0...  8  to   9...641
DFT calculation                         ... on
Exchange functional (SCF)               ... PBE
Exchange functional (CP-SCF)            ... PBE
   PBE kappa parameter  XKappa (SCF)    ...  0.804000
   PBE kappa parameter  XKappa (CP-SCF) ...  0.804000
   PBE mue parameter   XMuePBE (SCF)    ...  0.219520
   PBE mue parameter   XMuePBE (CP-SCF) ...  0.219520
Correlation functional (SCF)            ... PBE
Correlation functional (CP-SCF)         ... PBE
   PBE beta parameter CBetaPBE (SCF)    ...  0.066725
   PBE beta parameter CBetaPBE (CP-SCF) ...  0.066725
 LDA part of GGA corr.  LDAOpt (SCF)    ... PW91-LDA
 LDA part of GGA corr.  LDAOpt (CP-SCF) ... PW91-LDA
Variables per vector in CP-SCF ... 11394
Number of vectors sought       ... 3
Recalculating density on grid  ... done
Calculating the xc-kernel      ... done
     CP-SCF ITERATION   0: 
     CP-SCF ITERATION   1:      0.351376787470
     CP-SCF ITERATION   2:      0.007737451083
     CP-SCF ITERATION   3:      0.000279661566
     CP-SCF ITERATION   4:      0.000007811352
     CP-SCF ITERATION   5:      0.000000649578
done
Reading CP-SCF coefficients                    ... done
Doing the polarizability tensor   ... done
Cleaning up                                    ... done

-------------------------
THE POLARIZABILITY TENSOR
-------------------------

The raw cartesian tensor (atomic units):
   22.50635      0.32934      0.00000  
    0.32934     27.30247      0.00000  
    0.00000      0.00000     23.47666  
diagonalized tensor: 
   22.48384     23.47666     27.32498  

    0.99767     -0.00000      0.06819  
   -0.06819      0.00000      0.99767  
   -0.00000     -1.00000      0.00000  

Isotropic polarizability :  24.42849


Timings for individual modules:

Sum of individual times         ...     6877.342 sec (= 114.622 min)
GTO integral calculation        ...        2.875 sec (=   0.048 min)   0.0 %
SCF iterations                  ...     3879.808 sec (=  64.663 min)  56.4 %
Solution of CP-SCF eqns.        ...     2994.660 sec (=  49.911 min)  43.5 %
                             ****ORCA TERMINATED NORMALLY****
TOTAL RUN TIME: 0 days 1 hours 54 minutes 38 seconds 517 msec
