
                                 *****************
                                 * O   R   C   A *
                                 *****************

           --- An Ab Initio, DFT and Semiempirical electronic structure package ---

                  #######################################################
                  #                        -***-                        #
                  #          Department of theory and spectroscopy      #
                  #               Directorship: Frank Neese             #
                  #        Max Planck Institute fuer Kohlenforschung    #
                  #                Kaiser Wilhelm Platz 1               #
                  #                 D-45470 Muelheim/Ruhr               #
                  #                      Germany                        #
                  #                                                     #
                  #                  All rights reserved                #
                  #                        -***-                        #
                  #######################################################


                         Program Version 4.1.2  - RELEASE  -


 With contributions from (in alphabetic order):
   Daniel Aravena         : Magnetic Properties
   Michael Atanasov       : Ab Initio Ligand Field Theory
   Alexander A. Auer      : GIAO ZORA
   Ute Becker             : Parallelization
   Giovanni Bistoni       : ED, Open-shell LED
   Martin Brehm           : Molecular dynamics
   Dmytro Bykov           : SCF Hessian
   Vijay G. Chilkuri      : MRCI spin determinant printing
   Dipayan Datta          : RHF DLPNO-CCSD density
   Achintya Kumar Dutta   : EOM-CC, STEOM-CC
   Dmitry Ganyushin       : Spin-Orbit,Spin-Spin,Magnetic field MRCI
   Miquel Garcia          : C-PCM Hessian
   Yang Guo               : DLPNO-NEVPT2, CIM, IAO-localization
   Andreas Hansen         : Spin unrestricted coupled pair/coupled cluster methods
   Benjamin Helmich-Paris : CASSCF linear response (MC-RPA)
   Lee Huntington         : MR-EOM, pCC
   Robert Izsak           : Overlap fitted RIJCOSX, COSX-SCS-MP3, EOM
   Christian Kollmar      : KDIIS, OOCD, Brueckner-CCSD(T), CCSD density
   Simone Kossmann        : Meta GGA functionals, TD-DFT gradient, OOMP2, MP2 Hessian
   Martin Krupicka        : AUTO-CI
   Lucas Lang             : DCDCAS
   Dagmar Lenk            : GEPOL surface, SMD
   Dimitrios Liakos       : Extrapolation schemes; parallel MDCI
   Dimitrios Manganas     : ROCIS; embedding schemes
   Dimitrios Pantazis     : SARC Basis sets
   Taras Petrenko         : DFT Hessian,TD-DFT gradient, ASA, ECA, R-Raman, ABS, FL, XAS/XES, NRVS
   Peter Pinski           : DLPNO-MP2, DLPNO-MP2 Gradient
   Christoph Reimann      : Effective Core Potentials
   Marius Retegan         : Local ZFS, SOC
   Christoph Riplinger    : Optimizer, TS searches, QM/MM, DLPNO-CCSD(T), (RO)-DLPNO pert. Triples
   Tobias Risthaus        : Range-separated hybrids, TD-DFT gradient, RPA, STAB
   Michael Roemelt        : Restricted open shell CIS
   Masaaki Saitow         : Open-shell DLPNO
   Barbara Sandhoefer     : DKH picture change effects
   Avijit Sen             : IP-ROCIS
   Kantharuban Sivalingam : CASSCF convergence, NEVPT2, FIC-MRCI
   Bernardo de Souza      : ESD, SOC TD-DFT
   Georgi Stoychev        : AutoAux, RI-MP2 NMR
   Willem Van den Heuvel  : Paramagnetic NMR
   Boris Wezisla          : Elementary symmetry handling
   Frank Wennmohs         : Technical directorship


 We gratefully acknowledge several colleagues who have allowed us to
 interface, adapt or use parts of their codes:
   Stefan Grimme, W. Hujo, H. Kruse,             : VdW corrections, initial TS optimization,
                  C. Bannwarth                     DFT functionals, gCP, sTDA/sTD-DF
   Ed Valeev                                     : LibInt (2-el integral package), F12 methods
   Garnet Chan, S. Sharma, J. Yang, R. Olivares  : DMRG
   Ulf Ekstrom                                   : XCFun DFT Library
   Mihaly Kallay                                 : mrcc  (arbitrary order and MRCC methods)
   Andreas Klamt, Michael Diedenhofen            : otool_cosmo (COSMO solvation model)
   Jiri Pittner, Ondrej Demel                    : Mk-CCSD
   Frank Weinhold                                : gennbo (NPA and NBO analysis)
   Christopher J. Cramer and Donald G. Truhlar   : smd solvation model
   Lars Goerigk                                  : TD-DFT with DH, B97 family of functionals
   V. Asgeirsson, H. Jonsson                     : NEB implementation
   FAccTs GmbH                                   : IRC, NEB, NEB-TS, Multilevel


 Your calculation uses the libint2 library for the computation of 2-el integrals
 For citations please refer to: http://libint.valeyev.net

 This ORCA versions uses:
   CBLAS   interface :  Fast vector & matrix operations
   LAPACKE interface :  Fast linear algebra routines
   SCALAPACK package :  Parallel linear algebra routines


----- Orbital basis set information -----
Your calculation utilizes the basis: aug-pc-4
   H, C-F              : F. Jensen, J. Chem. Phys. 115, 9113 (2001).
                         F. Jensen, J. Chem. Phys. 116, 7372 (2002).
                         F. Jensen, J. Chem. Phys. 117, 9234 (2002).
   Si-Cl               : F. Jensen, T. Helgaker, J. Chem. Phys. 121, 3463 (2004).
   He-B, Ne-Mg, Al, Ar : F. Jensen, J. Phys. Chem. A 111, 11198 (2007).
   K, Ca, Ga-Kr        : F. Jensen, J. Chem. Phys. 136, 094110 (2012).
   Sc-Zn               : F. Jensen, J. Chem. Phys. 138, 014107 (2013).

================================================================================
                                        WARNINGS
                       Please study these warnings very carefully!
================================================================================


INFO   : the flag for use of LIBINT has been found!

================================================================================
                                       INPUT FILE
================================================================================
NAME = n_pbe.inp
|  1> !uks pbe nori aug-pc-4 grid5 nofinalgrid verytightscf
|  2> 
|  3> %maxcore 1500
|  4> 
|  5> %pal nprocs 4 end
|  6> 
|  7> %scf
|  8> 	maxiter 200
|  9> end
| 10> %elprop
| 11> 	dipole true
| 12> 	 polar 1
| 13> 	 maxiter 200
| 14> end
| 15> 
| 16> * xyz 0 4
| 17> N 0.0 0.0 0.0
| 18> *
| 19> 
| 20>                          ****END OF INPUT****
================================================================================

                       ****************************
                       * Single Point Calculation *
                       ****************************

---------------------------------
CARTESIAN COORDINATES (ANGSTROEM)
---------------------------------
  N      0.000000    0.000000    0.000000

----------------------------
CARTESIAN COORDINATES (A.U.)
----------------------------
  NO LB      ZA    FRAG     MASS         X           Y           Z
   0 N     7.0000    0    14.007    0.000000    0.000000    0.000000

--------------------------------
INTERNAL COORDINATES (ANGSTROEM)
--------------------------------
 N      0   0   0     0.000000000000     0.00000000     0.00000000

---------------------------
INTERNAL COORDINATES (A.U.)
---------------------------
 N      0   0   0     0.000000000000     0.00000000     0.00000000

---------------------
BASIS SET INFORMATION
---------------------
There are 1 groups of distinct atoms

 Group   1 Type N   : 27s12p7d4f3g2h contracted to 9s8p7d4f3g2h pattern {1191111111/51111111/1111111/1111/111/11}

Atom   0N    basis set group =>   1


           ************************************************************
           *        Program running with 4 parallel MPI-processes     *
           *              working on a common directory               *
           ************************************************************
------------------------------------------------------------------------------
                           ORCA GTO INTEGRAL CALCULATION
------------------------------------------------------------------------------

                         BASIS SET STATISTICS AND STARTUP INFO

 # of primitive gaussian shells          ...   55
 # of primitive gaussian functions       ...  175
 # of contracted shells                  ...   33
 # of contracted basis functions         ...  145
 Highest angular momentum                ...    5
 Maximum contraction depth               ...   11
 Integral package used                   ... LIBINT
 Integral threshhold            Thresh   ...  1.000e-12
 Primitive cut-off              TCut     ...  1.000e-14


------------------------------ INTEGRAL EVALUATION ----------------------------


 * One electron integrals 
 Pre-screening matrix                    ... done
 Shell pair data                         ... done (   0.000 sec)



           ************************************************************
           *        Program running with 4 parallel MPI-processes     *
           *              working on a common directory               *
           ************************************************************
-------------------------------------------------------------------------------
                                 ORCA SCF
-------------------------------------------------------------------------------

------------
SCF SETTINGS
------------
Hamiltonian:
 Density Functional     Method          .... DFT(GTOs)
 Exchange Functional    Exchange        .... PBE
   PBE kappa parameter   XKappa         ....  0.804000
   PBE mue parameter    XMuePBE         ....  0.219520
 Correlation Functional Correlation     .... PBE
   PBE beta parameter  CBetaPBE         ....  0.066725
 LDA part of GGA corr.  LDAOpt          .... PW91-LDA
 Gradients option       PostSCFGGA      .... off
   Density functional embedding theory  .... OFF
   NL short-range parameter             ....  6.400000


General Settings:
 Integral files         IntName         .... n_pbe
 Hartree-Fock type      HFTyp           .... UHF
 Total Charge           Charge          ....    0
 Multiplicity           Mult            ....    4
 Number of Electrons    NEL             ....    7
 Basis Dimension        Dim             ....  145
 Nuclear Repulsion      ENuc            ....      0.0000000000 Eh

Convergence Acceleration:
 DIIS                   CNVDIIS         .... on
   Start iteration      DIISMaxIt       ....    12
   Startup error        DIISStart       ....  0.200000
   # of expansion vecs  DIISMaxEq       ....     5
   Bias factor          DIISBfac        ....   1.050
   Max. coefficient     DIISMaxC        ....  10.000
 Newton-Raphson         CNVNR           .... off
 SOSCF                  CNVSOSCF        .... off
 Level Shifting         CNVShift        .... on
   Level shift para.    LevelShift      ....    0.2500
   Turn off err/grad.   ShiftErr        ....    0.0010
 Zerner damping         CNVZerner       .... off
 Static damping         CNVDamp         .... on
   Fraction old density DampFac         ....    0.7000
   Max. Damping (<1)    DampMax         ....    0.9800
   Min. Damping (>=0)   DampMin         ....    0.0000
   Turn off err/grad.   DampErr         ....    0.1000
 Fernandez-Rico         CNVRico         .... off

SCF Procedure:
 Maximum # iterations   MaxIter         ....   200
 SCF integral mode      SCFMode         .... Direct
   Integral package                     .... LIBINT
 Reset frequency        DirectResetFreq ....    20
 Integral Threshold     Thresh          ....  1.000e-12 Eh
 Primitive CutOff       TCut            ....  1.000e-14 Eh

Convergence Tolerance:
 Convergence Check Mode ConvCheckMode   .... Total+1el-Energy
 Convergence forced     ConvForced      .... 0
 Energy Change          TolE            ....  1.000e-09 Eh
 1-El. energy change                    ....  1.000e-06 Eh
 DIIS Error             TolErr          ....  1.000e-08


Diagonalization of the overlap matrix:
Smallest eigenvalue                        ... 8.449e-04
Time for diagonalization                   ...    0.003 sec
Threshold for overlap eigenvalues          ... 1.000e-08
Number of eigenvalues below threshold      ... 0
Time for construction of square roots      ...    0.012 sec
Total time needed                          ...    0.015 sec

-------------------
DFT GRID GENERATION
-------------------

General Integration Accuracy     IntAcc      ...  5.010
Radial Grid Type                 RadialGrid  ... Gauss-Chebyshev
Angular Grid (max. acc.)         AngularGrid ... Lebedev-434
Angular grid pruning method      GridPruning ... 3 (G Style)
Weight generation scheme         WeightScheme... Becke
Basis function cutoff            BFCut       ...    1.0000e-12
Integration weight cutoff        WCut        ...    1.0000e-14
Grids for H and He will be reduced by one unit

# of grid points (after initial pruning)     ...  10590 (   0.0 sec)
# of grid points (after weights+screening)   ...  10590 (   0.0 sec)
Grid point division into batches done        ...    0.1 sec
Reduced shell lists constructed in    0.1 sec

Total number of grid points                  ...    10590
Total number of batches                      ...      166
Average number of points per batch           ...       63
Average number of grid points per atom       ...    10590
Average number of shells per batch           ...    15.33 (46.44%)
Average number of basis functions per batch  ...    68.77 (47.43%)
Average number of large shells per batch     ...    12.88 (84.07%)
Average number of large basis fcns per batch ...    58.05 (84.41%)
Maximum spatial batch extension              ...  16.29, 16.29, 16.29 au
Average spatial batch extension              ...   2.73,  2.67,  2.63 au

Time for grid setup =    0.131 sec

------------------------------
INITIAL GUESS: MODEL POTENTIAL
------------------------------
Loading Hartree-Fock densities                     ... done
Calculating cut-offs                               ... done
Setting up the integral package                    ... done
Initializing the effective Hamiltonian             ... done
Starting the Coulomb interaction                   ... done (   0.0 sec)
Reading the grid                                   ... done
Mapping shells                                     ... done
Starting the XC term evaluation                    ... done (   0.0 sec)
  promolecular density results
     # of electrons  =      6.999999932
     EX              =     -6.357123330
     EC              =     -0.198973659
     EX+EC           =     -6.556096989
Transforming the Hamiltonian                       ... done (   0.0 sec)
Diagonalizing the Hamiltonian                      ... done (   0.0 sec)
Back transforming the eigenvectors                 ... done (   0.0 sec)
Now organizing SCF variables                       ... done
                      ------------------
                      INITIAL GUESS DONE (   0.3 sec)
                      ------------------
--------------
SCF ITERATIONS
--------------
ITER       Energy         Delta-E        Max-DP      RMS-DP      [F,P]     Damp
               ***  Starting incremental Fock matrix formation  ***
  0    -54.5303319919   0.000000000000 0.00848472  0.00009264  0.0376700 0.7000
  1    -54.5322917507  -0.001959758856 0.00732746  0.00007768  0.0236566 0.7000
                               ***Turning on DIIS***
  2    -54.5334363340  -0.001144583250 0.01960935  0.00018323  0.0127821 0.0000
  3    -54.5354784995  -0.002042165511 0.00243331  0.00003912  0.0140308 0.0000
  4    -54.5357398689  -0.000261369390 0.00118949  0.00001577  0.0034226 0.0000
  5    -54.5357568458  -0.000016976915 0.00050128  0.00000643  0.0006509 0.0000
  6    -54.5357579727  -0.000001126941 0.00004072  0.00000048  0.0000688 0.0000
  7    -54.5357579869  -0.000000014123 0.00000177  0.00000002  0.0000026 0.0000
  8    -54.5357579869  -0.000000000011 0.00000015  0.00000000  0.0000004 0.0000
                 **** Energy Check signals convergence ****

               *****************************************************
               *                     SUCCESS                       *
               *           SCF CONVERGED AFTER   9 CYCLES          *
               *****************************************************


----------------
TOTAL SCF ENERGY
----------------

Total Energy       :          -54.53575799 Eh           -1483.99342 eV

Components:
Nuclear Repulsion  :            0.00000000 Eh               0.00000 eV
Electronic Energy  :          -54.53575799 Eh           -1483.99342 eV
One Electron Energy:          -73.90168833 Eh           -2010.96718 eV
Two Electron Energy:           19.36593034 Eh             526.97376 eV

Virial components:
Potential Energy   :         -108.91837161 Eh           -2963.81957 eV
Kinetic Energy     :           54.38261363 Eh            1479.82615 eV
Virial Ratio       :            2.00281605


DFT components:
N(Alpha)           :        5.000000004806 electrons
N(Beta)            :        2.000000004812 electrons
N(Total)           :        7.000000009618 electrons
E(X)               :       -6.530097014554 Eh       
E(C)               :       -0.178605246452 Eh       
E(XC)              :       -6.708702261006 Eh       
DFET-embed. en.    :        0.000000000000 Eh       

---------------
SCF CONVERGENCE
---------------

  Last Energy change         ...   -2.0606e-13  Tolerance :   1.0000e-09
  Last MAX-Density change    ...    7.8014e-09  Tolerance :   1.0000e-08
  Last RMS-Density change    ...    7.6785e-11  Tolerance :   1.0000e-09
  Last DIIS Error            ...    1.2417e-08  Tolerance :   1.0000e-08

             **** THE GBW FILE WAS UPDATED (n_pbe.gbw) ****
             **** DENSITY FILE WAS UPDATED (n_pbe.scfp.tmp) ****
             **** ENERGY FILE WAS UPDATED (n_pbe.en.tmp) ****
----------------------
UHF SPIN CONTAMINATION
----------------------

Warning: in a DFT calculation there is little theoretical justification to 
         calculate <S**2> as in Hartree-Fock theory. We will do it anyways
         but you should keep in mind that the values have only limited relevance

Expectation value of <S**2>     :     3.752502
Ideal value S*(S+1) for S=1.5   :     3.750000
Deviation                       :     0.002502

----------------
ORBITAL ENERGIES
----------------
                 SPIN UP ORBITALS
  NO   OCC          E(Eh)            E(eV) 
   0   1.0000     -14.109258      -383.9324 
   1   1.0000      -0.729516       -19.8512 
   2   1.0000      -0.305168        -8.3040 
   3   1.0000      -0.305168        -8.3040 
   4   1.0000      -0.305168        -8.3040 
   5   0.0000      -0.000691        -0.0188 
   6   0.0000       0.026915         0.7324 
   7   0.0000       0.026915         0.7324 
   8   0.0000       0.026915         0.7324 
   9   0.0000       0.137816         3.7502 
  10   0.0000       0.137816         3.7502 
  11   0.0000       0.137816         3.7502 
  12   0.0000       0.138941         3.7808 
  13   0.0000       0.138941         3.7808 
  14   0.0000       0.138941         3.7808 
  15   0.0000       0.138941         3.7808 
  16   0.0000       0.138941         3.7808 
  17   0.0000       0.215335         5.8596 
  18   0.0000       0.322310         8.7705 
  19   0.0000       0.322310         8.7705 
  20   0.0000       0.322310         8.7705 
  21   0.0000       0.322310         8.7705 
  22   0.0000       0.322310         8.7705 
  23   0.0000       0.322310         8.7705 
  24   0.0000       0.322310         8.7705 
  25   0.0000       0.453981        12.3535 
  26   0.0000       0.453981        12.3535 
  27   0.0000       0.453981        12.3535 
  28   0.0000       0.453981        12.3535 
  29   0.0000       0.453981        12.3535 
  30   0.0000       0.474641        12.9156 
  31   0.0000       0.474641        12.9156 
  32   0.0000       0.474641        12.9156 
  33   0.0000       0.541078        14.7235 
  34   0.0000       0.541078        14.7235 
  35   0.0000       0.541078        14.7235 
  36   0.0000       0.541078        14.7235 
  37   0.0000       0.541078        14.7235 
  38   0.0000       0.541078        14.7235 
  39   0.0000       0.541078        14.7235 
  40   0.0000       0.541078        14.7235 
  41   0.0000       0.541078        14.7235 
  42   0.0000       0.803233        21.8571 
  43   0.0000       0.803233        21.8571 
  44   0.0000       0.803233        21.8571 
  45   0.0000       0.803233        21.8571 
  46   0.0000       0.803233        21.8571 
  47   0.0000       0.803233        21.8571 
  48   0.0000       0.803233        21.8571 
  49   0.0000       0.803233        21.8571 
  50   0.0000       0.803233        21.8571 
  51   0.0000       0.803233        21.8571 
  52   0.0000       0.803233        21.8571 
  53   0.0000       0.853171        23.2160 
  54   0.0000       1.163220        31.6528 
  55   0.0000       1.163220        31.6528 
  56   0.0000       1.163220        31.6528 
  57   0.0000       1.163220        31.6528 
  58   0.0000       1.163220        31.6528 
  59   0.0000       1.335499        36.3408 
  60   0.0000       1.335499        36.3408 
  61   0.0000       1.335499        36.3408 
  62   0.0000       1.542677        41.9784 
  63   0.0000       1.542677        41.9784 
  64   0.0000       1.542677        41.9784 
  65   0.0000       1.542677        41.9784 
  66   0.0000       1.542677        41.9784 
  67   0.0000       1.542677        41.9784 
  68   0.0000       1.542677        41.9784 
  69   0.0000       2.600783        70.7709 
  70   0.0000       2.800028        76.1926 
  71   0.0000       2.800028        76.1926 
  72   0.0000       2.800028        76.1926 
  73   0.0000       2.800028        76.1926 
  74   0.0000       2.800028        76.1926 
  75   0.0000       3.457666        94.0879 
  76   0.0000       3.457666        94.0879 
  77   0.0000       3.457666        94.0879 
  78   0.0000       4.327255       117.7506 
  79   0.0000       4.327255       117.7506 
  80   0.0000       4.327255       117.7506 
  81   0.0000       4.327255       117.7506 
  82   0.0000       4.327255       117.7506 
  83   0.0000       4.327255       117.7506 
  84   0.0000       4.327255       117.7506 
  85   0.0000       4.886450       132.9671 
  86   0.0000       4.886450       132.9671 
  87   0.0000       4.886450       132.9671 
  88   0.0000       4.886450       132.9671 
  89   0.0000       4.886450       132.9671 
  90   0.0000       4.886450       132.9671 
  91   0.0000       4.886450       132.9671 
  92   0.0000       4.886450       132.9671 
  93   0.0000       4.886450       132.9671 
  94   0.0000       6.607852       179.8088 
  95   0.0000       6.607852       179.8088 
  96   0.0000       6.607852       179.8088 
  97   0.0000       6.607852       179.8088 
  98   0.0000       6.607852       179.8088 
  99   0.0000       7.229809       196.7331 
 100   0.0000       8.669116       235.8986 
 101   0.0000       8.669116       235.8986 
 102   0.0000       8.669116       235.8986 
 103   0.0000      10.959053       298.2110 
 104   0.0000      10.959053       298.2110 
 105   0.0000      10.959053       298.2110 
 106   0.0000      10.959053       298.2110 
 107   0.0000      10.959053       298.2110 
 108   0.0000      10.959053       298.2110 
 109   0.0000      10.959053       298.2110 
 110   0.0000      11.272248       306.7335 
 111   0.0000      11.272248       306.7335 
 112   0.0000      11.272248       306.7335 
 113   0.0000      11.272248       306.7335 
 114   0.0000      11.272248       306.7335 
 115   0.0000      11.272248       306.7335 
 116   0.0000      11.272248       306.7335 
 117   0.0000      11.272248       306.7335 
 118   0.0000      11.272248       306.7335 
 119   0.0000      11.272248       306.7335 
 120   0.0000      11.272248       306.7335 
 121   0.0000      14.095986       383.5713 
 122   0.0000      14.095986       383.5713 
 123   0.0000      14.095986       383.5713 
 124   0.0000      14.095986       383.5713 
 125   0.0000      14.095986       383.5713 
 126   0.0000      14.095986       383.5713 
 127   0.0000      14.095986       383.5713 
 128   0.0000      14.095986       383.5713 
 129   0.0000      14.095986       383.5713 
 130   0.0000      16.560469       450.6333 
 131   0.0000      16.560469       450.6333 
 132   0.0000      16.560469       450.6333 
 133   0.0000      16.560469       450.6333 
 134   0.0000      16.560469       450.6333 
 135   0.0000      20.554868       559.3264 
 136   0.0000      25.582989       696.1485 
 137   0.0000      25.582989       696.1485 
 138   0.0000      25.582989       696.1485 
 139   0.0000      47.427896      1290.5787 
 140   0.0000      47.427896      1290.5787 
 141   0.0000      47.427896      1290.5787 
 142   0.0000      47.427896      1290.5787 
 143   0.0000      47.427896      1290.5787 
 144   0.0000     100.549193      2736.0827 

                 SPIN DOWN ORBITALS
  NO   OCC          E(Eh)            E(eV) 
   0   1.0000     -14.053296      -382.4096 
   1   1.0000      -0.561595       -15.2818 
   2   0.0000      -0.151951        -4.1348 
   3   0.0000      -0.151951        -4.1348 
   4   0.0000      -0.151951        -4.1348 
   5   0.0000       0.032964         0.8970 
   6   0.0000       0.044141         1.2011 
   7   0.0000       0.044141         1.2011 
   8   0.0000       0.044141         1.2011 
   9   0.0000       0.170501         4.6396 
  10   0.0000       0.170501         4.6396 
  11   0.0000       0.170501         4.6396 
  12   0.0000       0.170501         4.6396 
  13   0.0000       0.170501         4.6396 
  14   0.0000       0.173909         4.7323 
  15   0.0000       0.173909         4.7323 
  16   0.0000       0.173909         4.7323 
  17   0.0000       0.256636         6.9834 
  18   0.0000       0.356247         9.6940 
  19   0.0000       0.356247         9.6940 
  20   0.0000       0.356247         9.6940 
  21   0.0000       0.356247         9.6940 
  22   0.0000       0.356247         9.6940 
  23   0.0000       0.356247         9.6940 
  24   0.0000       0.356247         9.6940 
  25   0.0000       0.501643        13.6504 
  26   0.0000       0.501643        13.6504 
  27   0.0000       0.501643        13.6504 
  28   0.0000       0.501643        13.6504 
  29   0.0000       0.501643        13.6504 
  30   0.0000       0.531277        14.4568 
  31   0.0000       0.531277        14.4568 
  32   0.0000       0.531277        14.4568 
  33   0.0000       0.575658        15.6645 
  34   0.0000       0.575658        15.6645 
  35   0.0000       0.575658        15.6645 
  36   0.0000       0.575658        15.6645 
  37   0.0000       0.575658        15.6645 
  38   0.0000       0.575658        15.6645 
  39   0.0000       0.575658        15.6645 
  40   0.0000       0.575658        15.6645 
  41   0.0000       0.575658        15.6645 
  42   0.0000       0.838180        22.8081 
  43   0.0000       0.838180        22.8081 
  44   0.0000       0.838180        22.8081 
  45   0.0000       0.838180        22.8081 
  46   0.0000       0.838180        22.8081 
  47   0.0000       0.838180        22.8081 
  48   0.0000       0.838180        22.8081 
  49   0.0000       0.838180        22.8081 
  50   0.0000       0.838180        22.8081 
  51   0.0000       0.838180        22.8081 
  52   0.0000       0.838180        22.8081 
  53   0.0000       0.929792        25.3009 
  54   0.0000       1.257177        34.2095 
  55   0.0000       1.257177        34.2095 
  56   0.0000       1.257177        34.2095 
  57   0.0000       1.257177        34.2095 
  58   0.0000       1.257177        34.2095 
  59   0.0000       1.429506        38.8988 
  60   0.0000       1.429506        38.8988 
  61   0.0000       1.429506        38.8988 
  62   0.0000       1.623948        44.1899 
  63   0.0000       1.623948        44.1899 
  64   0.0000       1.623948        44.1899 
  65   0.0000       1.623948        44.1899 
  66   0.0000       1.623948        44.1899 
  67   0.0000       1.623948        44.1899 
  68   0.0000       1.623948        44.1899 
  69   0.0000       2.722002        74.0695 
  70   0.0000       2.933465        79.8236 
  71   0.0000       2.933465        79.8236 
  72   0.0000       2.933465        79.8236 
  73   0.0000       2.933465        79.8236 
  74   0.0000       2.933465        79.8236 
  75   0.0000       3.588438        97.6464 
  76   0.0000       3.588438        97.6464 
  77   0.0000       3.588438        97.6464 
  78   0.0000       4.471762       121.6828 
  79   0.0000       4.471762       121.6828 
  80   0.0000       4.471762       121.6828 
  81   0.0000       4.471762       121.6828 
  82   0.0000       4.471762       121.6828 
  83   0.0000       4.471762       121.6828 
  84   0.0000       4.471762       121.6828 
  85   0.0000       5.028222       136.8249 
  86   0.0000       5.028222       136.8249 
  87   0.0000       5.028222       136.8249 
  88   0.0000       5.028222       136.8249 
  89   0.0000       5.028222       136.8249 
  90   0.0000       5.028222       136.8249 
  91   0.0000       5.028222       136.8249 
  92   0.0000       5.028222       136.8249 
  93   0.0000       5.028222       136.8249 
  94   0.0000       6.791993       184.8195 
  95   0.0000       6.791993       184.8195 
  96   0.0000       6.791993       184.8195 
  97   0.0000       6.791993       184.8195 
  98   0.0000       6.791993       184.8195 
  99   0.0000       7.389766       201.0857 
 100   0.0000       8.808642       239.6953 
 101   0.0000       8.808642       239.6953 
 102   0.0000       8.808642       239.6953 
 103   0.0000      11.167141       303.8734 
 104   0.0000      11.167141       303.8734 
 105   0.0000      11.167141       303.8734 
 106   0.0000      11.167141       303.8734 
 107   0.0000      11.167141       303.8734 
 108   0.0000      11.167141       303.8734 
 109   0.0000      11.167141       303.8734 
 110   0.0000      11.447439       311.5007 
 111   0.0000      11.447439       311.5007 
 112   0.0000      11.447439       311.5007 
 113   0.0000      11.447439       311.5007 
 114   0.0000      11.447439       311.5007 
 115   0.0000      11.447439       311.5007 
 116   0.0000      11.447439       311.5007 
 117   0.0000      11.447439       311.5007 
 118   0.0000      11.447439       311.5007 
 119   0.0000      11.447439       311.5007 
 120   0.0000      11.447439       311.5007 
 121   0.0000      14.300836       389.1455 
 122   0.0000      14.300836       389.1455 
 123   0.0000      14.300836       389.1455 
 124   0.0000      14.300836       389.1455 
 125   0.0000      14.300836       389.1455 
 126   0.0000      14.300836       389.1455 
 127   0.0000      14.300836       389.1455 
 128   0.0000      14.300836       389.1455 
 129   0.0000      14.300836       389.1455 
 130   0.0000      16.731264       455.2808 
 131   0.0000      16.731264       455.2808 
 132   0.0000      16.731264       455.2808 
 133   0.0000      16.731264       455.2808 
 134   0.0000      16.731264       455.2808 
 135   0.0000      20.678053       562.6784 
 136   0.0000      25.720010       699.8771 
 137   0.0000      25.720010       699.8771 
 138   0.0000      25.720010       699.8771 
 139   0.0000      47.568827      1294.4136 
 140   0.0000      47.568827      1294.4136 
 141   0.0000      47.568827      1294.4136 
 142   0.0000      47.568827      1294.4136 
 143   0.0000      47.568827      1294.4136 
 144   0.0000     100.609370      2737.7201 

                    ********************************
                    * MULLIKEN POPULATION ANALYSIS *
                    ********************************

--------------------------------------------
MULLIKEN ATOMIC CHARGES AND SPIN POPULATIONS
--------------------------------------------
   0 N :   -0.000000    3.000000
Sum of atomic charges         :   -0.0000000
Sum of atomic spin populations:    3.0000000

-----------------------------------------------------
MULLIKEN REDUCED ORBITAL CHARGES AND SPIN POPULATIONS
-----------------------------------------------------
CHARGE
  0 N s       :     4.000000  s :     4.000000
      pz      :     1.000000  p :     3.000000
      px      :     1.000000
      py      :     1.000000
      dz2     :     0.000000  d :     0.000000
      dxz     :     0.000000
      dyz     :     0.000000
      dx2y2   :     0.000000
      dxy     :     0.000000
      f0      :     0.000000  f :     0.000000
      f+1     :     0.000000
      f-1     :     0.000000
      f+2     :     0.000000
      f-2     :     0.000000
      f+3     :     0.000000
      f-3     :     0.000000
      g0      :     0.000000  g :     0.000000
      g+1     :     0.000000
      g-1     :     0.000000
      g+2     :     0.000000
      g-2     :     0.000000
      g+3     :     0.000000
      g-3     :     0.000000
      g+4     :     0.000000
      g-4     :     0.000000
      h0      :     0.000000  h :     0.000000
      h+1     :     0.000000
      h-1     :     0.000000
      h+2     :     0.000000
      h-2     :     0.000000
      h+3     :     0.000000
      h-3     :     0.000000
      h+4     :     0.000000
      h-4     :     0.000000
      h+5     :     0.000000
      h-5     :     0.000000

SPIN
  0 N s       :    -0.000000  s :    -0.000000
      pz      :     1.000000  p :     3.000000
      px      :     1.000000
      py      :     1.000000
      dz2     :     0.000000  d :     0.000000
      dxz     :    -0.000000
      dyz     :    -0.000000
      dx2y2   :     0.000000
      dxy     :     0.000000
      f0      :     0.000000  f :     0.000000
      f+1     :     0.000000
      f-1     :     0.000000
      f+2     :     0.000000
      f-2     :     0.000000
      f+3     :     0.000000
      f-3     :     0.000000
      g0      :     0.000000  g :     0.000000
      g+1     :     0.000000
      g-1     :     0.000000
      g+2     :    -0.000000
      g-2     :     0.000000
      g+3     :     0.000000
      g-3     :     0.000000
      g+4     :     0.000000
      g-4     :     0.000000
      h0      :     0.000000  h :     0.000000
      h+1     :     0.000000
      h-1     :     0.000000
      h+2     :     0.000000
      h-2     :     0.000000
      h+3     :     0.000000
      h-3     :     0.000000
      h+4     :     0.000000
      h-4     :     0.000000
      h+5     :     0.000000
      h-5     :     0.000000


                     *******************************
                     * LOEWDIN POPULATION ANALYSIS *
                     *******************************

-------------------------------------------
LOEWDIN ATOMIC CHARGES AND SPIN POPULATIONS
-------------------------------------------
   0 N :   -0.000000    3.000000

----------------------------------------------------
LOEWDIN REDUCED ORBITAL CHARGES AND SPIN POPULATIONS
----------------------------------------------------
CHARGE
  0 N s       :     4.000000  s :     4.000000
      pz      :     1.000000  p :     3.000000
      px      :     1.000000
      py      :     1.000000
      dz2     :     0.000000  d :     0.000000
      dxz     :     0.000000
      dyz     :     0.000000
      dx2y2   :     0.000000
      dxy     :     0.000000
      f0      :     0.000000  f :     0.000000
      f+1     :     0.000000
      f-1     :     0.000000
      f+2     :     0.000000
      f-2     :     0.000000
      f+3     :     0.000000
      f-3     :     0.000000
      g0      :     0.000000  g :     0.000000
      g+1     :     0.000000
      g-1     :     0.000000
      g+2     :     0.000000
      g-2     :     0.000000
      g+3     :     0.000000
      g-3     :     0.000000
      g+4     :     0.000000
      g-4     :     0.000000
      h0      :     0.000000  h :     0.000000
      h+1     :     0.000000
      h-1     :     0.000000
      h+2     :     0.000000
      h-2     :     0.000000
      h+3     :     0.000000
      h-3     :     0.000000
      h+4     :     0.000000
      h-4     :     0.000000
      h+5     :     0.000000
      h-5     :     0.000000

SPIN
  0 N s       :    -0.000000  s :    -0.000000
      pz      :     1.000000  p :     3.000000
      px      :     1.000000
      py      :     1.000000
      dz2     :     0.000000  d :     0.000000
      dxz     :    -0.000000
      dyz     :    -0.000000
      dx2y2   :     0.000000
      dxy     :     0.000000
      f0      :     0.000000  f :     0.000000
      f+1     :     0.000000
      f-1     :     0.000000
      f+2     :     0.000000
      f-2     :     0.000000
      f+3     :     0.000000
      f-3     :     0.000000
      g0      :     0.000000  g :     0.000000
      g+1     :     0.000000
      g-1     :     0.000000
      g+2     :    -0.000000
      g-2     :     0.000000
      g+3     :     0.000000
      g-3     :     0.000000
      g+4     :     0.000000
      g-4     :     0.000000
      h0      :     0.000000  h :     0.000000
      h+1     :     0.000000
      h-1     :     0.000000
      h+2     :     0.000000
      h-2     :     0.000000
      h+3     :     0.000000
      h-3     :     0.000000
      h+4     :     0.000000
      h-4     :     0.000000
      h+5     :     0.000000
      h-5     :     0.000000


                      *****************************
                      * MAYER POPULATION ANALYSIS *
                      *****************************

  NA   - Mulliken gross atomic population
  ZA   - Total nuclear charge
  QA   - Mulliken gross atomic charge
  VA   - Mayer's total valence
  BVA  - Mayer's bonded valence
  FA   - Mayer's free valence

  ATOM       NA         ZA         QA         VA         BVA        FA
  0 N      7.0000     7.0000    -0.0000     3.0050     0.0000     3.0050

  Mayer bond orders larger than 0.1


-------
TIMINGS
-------

Total SCF time: 0 days 0 hours 0 min 5 sec 

Total time                  ....       5.463 sec
Sum of individual times     ....       5.084 sec  ( 93.1%)

Fock matrix formation       ....       4.502 sec  ( 82.4%)
  XC integration            ....       1.516 sec  ( 33.7% of F)
    Basis function eval.    ....       0.094 sec  (  6.2% of XC)
    Density eval.           ....       0.159 sec  ( 10.5% of XC)
    XC-Functional eval.     ....       0.056 sec  (  3.7% of XC)
    XC-Potential eval.      ....       0.465 sec  ( 30.7% of XC)
Diagonalization             ....       0.100 sec  (  1.8%)
Density matrix formation    ....       0.003 sec  (  0.1%)
Population analysis         ....       0.081 sec  (  1.5%)
Initial guess               ....       0.161 sec  (  3.0%)
Orbital Transformation      ....       0.000 sec  (  0.0%)
Orbital Orthonormalization  ....       0.000 sec  (  0.0%)
DIIS solution               ....       0.107 sec  (  2.0%)
Grid generation             ....       0.131 sec  (  2.4%)

-------------------------   --------------------
FINAL SINGLE POINT ENERGY       -54.535757986862
-------------------------   --------------------


                            ***************************************
                            *     ORCA property calculations      *
                            ***************************************

                                    ---------------------
                                    Active property flags
                                    ---------------------
   (+) Dipole Moment
   (+) Polarizability


------------------------------------------------------------------------------
                       ORCA ELECTRIC PROPERTIES CALCULATION
------------------------------------------------------------------------------

Dipole Moment Calculation                       ... on
Quadrupole Moment Calculation                   ... off
Polarizability Calculation                      ... Analytic (CP-SCF)
GBWName                                         ... n_pbe.gbw
Electron density file                           ... n_pbe.scfp.tmp
The origin for moment calculation is the CENTER OF MASS  = ( 0.000000,  0.000000  0.000000)

-------------
DIPOLE MOMENT
-------------
                                X             Y             Z
Electronic contribution:     -0.00000      -0.00000      -0.00000
Nuclear contribution   :      0.00000       0.00000       0.00000
                        -----------------------------------------
Total Dipole Moment    :     -0.00000      -0.00000      -0.00000
                        -----------------------------------------
Magnitude (a.u.)       :      0.00000
Magnitude (Debye)      :      0.00000



--------------------
Rotational spectrum 
--------------------
 
Rotational constants in cm-1:     0.000000     0.000000     0.000000 
Rotational constants in MHz :     0.000000     0.000000     0.000000 

 Dipole components along the rotational axes: 
x,y,z [a.u.] :    -0.000000    -0.000000    -0.000000 
x,y,z [Debye]:    -0.000000    -0.000000    -0.000000 

 
Transforming and storing MO dipole integrals   ... done

                ... starting polarizability calculation

Opening the Dipole integral file               ... (n_pbe.dmo.tmp) done
Reading Dipole-MO integrals                    ... done
Solving CP-SCF equations                       ... 

           ************************************************************
           *        Program running with 4 parallel MPI-processes     *
           *              working on a common directory               *
           ************************************************************

------------------------------------------------------------------------------
                           ORCA CP-SCF CALCULATION
------------------------------------------------------------------------------

Input orbitals are from        ... n_pbe.gbw
Input Perturbation             ... n_pbe.cpv.tmp
Wavefunction output            ... n_pbe.cpu.tmp
Perturbation mode              ... Real perturbation (singlet)
Solver                         ... POPLE
Max. number of iterations      ... 200
Convergence tolerance          ... 1.000e-06
Integral handling              ... Direct
Number of perturbations        ... 3
Number of operators            ... 2
Orbital ranges used for CP-SCF:
 Operator 0:  Orbitals   0...  4  to   5...144
 Operator 1:  Orbitals   0...  1  to   2...144
DFT calculation                         ... on
Exchange functional (SCF)               ... PBE
Exchange functional (CP-SCF)            ... PBE
   PBE kappa parameter  XKappa (SCF)    ...  0.804000
   PBE kappa parameter  XKappa (CP-SCF) ...  0.804000
   PBE mue parameter   XMuePBE (SCF)    ...  0.219520
   PBE mue parameter   XMuePBE (CP-SCF) ...  0.219520
Correlation functional (SCF)            ... PBE
Correlation functional (CP-SCF)         ... PBE
   PBE beta parameter CBetaPBE (SCF)    ...  0.066725
   PBE beta parameter CBetaPBE (CP-SCF) ...  0.066725
 LDA part of GGA corr.  LDAOpt (SCF)    ... PW91-LDA
 LDA part of GGA corr.  LDAOpt (CP-SCF) ... PW91-LDA
Variables per vector in CP-SCF ... 986
Number of vectors sought       ... 3
Recalculating density on grid  ... done
Calculating the xc-kernel      ... done
     CP-SCF ITERATION   0: 
     CP-SCF ITERATION   1:      0.005624714366
     CP-SCF ITERATION   2:      0.000095817869
     CP-SCF ITERATION   3:      0.000000145777
done
Reading CP-SCF coefficients                    ... done
Doing the polarizability tensor   ... done
Cleaning up                                    ... done

-------------------------
THE POLARIZABILITY TENSOR
-------------------------

The raw cartesian tensor (atomic units):
    8.34425     -0.00000      0.00000  
   -0.00000      8.34425     -0.00000  
    0.00000     -0.00000      8.34425  
diagonalized tensor: 
    8.34425      8.34425      8.34425  

   -0.07096      0.98664      0.14665  
    0.87659      0.13184     -0.46282  
    0.47597     -0.09571      0.87424  

Isotropic polarizability :   8.34425


Timings for individual modules:

Sum of individual times         ...       12.027 sec (=   0.200 min)
GTO integral calculation        ...        0.852 sec (=   0.014 min)   7.1 %
SCF iterations                  ...        5.763 sec (=   0.096 min)  47.9 %
Solution of CP-SCF eqns.        ...        5.412 sec (=   0.090 min)  45.0 %
                             ****ORCA TERMINATED NORMALLY****
TOTAL RUN TIME: 0 days 0 hours 0 minutes 14 seconds 701 msec
