
                                 *****************
                                 * O   R   C   A *
                                 *****************

           --- An Ab Initio, DFT and Semiempirical electronic structure package ---

                  #######################################################
                  #                        -***-                        #
                  #          Department of theory and spectroscopy      #
                  #               Directorship: Frank Neese             #
                  #        Max Planck Institute fuer Kohlenforschung    #
                  #                Kaiser Wilhelm Platz 1               #
                  #                 D-45470 Muelheim/Ruhr               #
                  #                      Germany                        #
                  #                                                     #
                  #                  All rights reserved                #
                  #                        -***-                        #
                  #######################################################


                         Program Version 4.1.2  - RELEASE  -


 With contributions from (in alphabetic order):
   Daniel Aravena         : Magnetic Properties
   Michael Atanasov       : Ab Initio Ligand Field Theory
   Alexander A. Auer      : GIAO ZORA
   Ute Becker             : Parallelization
   Giovanni Bistoni       : ED, Open-shell LED
   Martin Brehm           : Molecular dynamics
   Dmytro Bykov           : SCF Hessian
   Vijay G. Chilkuri      : MRCI spin determinant printing
   Dipayan Datta          : RHF DLPNO-CCSD density
   Achintya Kumar Dutta   : EOM-CC, STEOM-CC
   Dmitry Ganyushin       : Spin-Orbit,Spin-Spin,Magnetic field MRCI
   Miquel Garcia          : C-PCM Hessian
   Yang Guo               : DLPNO-NEVPT2, CIM, IAO-localization
   Andreas Hansen         : Spin unrestricted coupled pair/coupled cluster methods
   Benjamin Helmich-Paris : CASSCF linear response (MC-RPA)
   Lee Huntington         : MR-EOM, pCC
   Robert Izsak           : Overlap fitted RIJCOSX, COSX-SCS-MP3, EOM
   Christian Kollmar      : KDIIS, OOCD, Brueckner-CCSD(T), CCSD density
   Simone Kossmann        : Meta GGA functionals, TD-DFT gradient, OOMP2, MP2 Hessian
   Martin Krupicka        : AUTO-CI
   Lucas Lang             : DCDCAS
   Dagmar Lenk            : GEPOL surface, SMD
   Dimitrios Liakos       : Extrapolation schemes; parallel MDCI
   Dimitrios Manganas     : ROCIS; embedding schemes
   Dimitrios Pantazis     : SARC Basis sets
   Taras Petrenko         : DFT Hessian,TD-DFT gradient, ASA, ECA, R-Raman, ABS, FL, XAS/XES, NRVS
   Peter Pinski           : DLPNO-MP2, DLPNO-MP2 Gradient
   Christoph Reimann      : Effective Core Potentials
   Marius Retegan         : Local ZFS, SOC
   Christoph Riplinger    : Optimizer, TS searches, QM/MM, DLPNO-CCSD(T), (RO)-DLPNO pert. Triples
   Tobias Risthaus        : Range-separated hybrids, TD-DFT gradient, RPA, STAB
   Michael Roemelt        : Restricted open shell CIS
   Masaaki Saitow         : Open-shell DLPNO
   Barbara Sandhoefer     : DKH picture change effects
   Avijit Sen             : IP-ROCIS
   Kantharuban Sivalingam : CASSCF convergence, NEVPT2, FIC-MRCI
   Bernardo de Souza      : ESD, SOC TD-DFT
   Georgi Stoychev        : AutoAux, RI-MP2 NMR
   Willem Van den Heuvel  : Paramagnetic NMR
   Boris Wezisla          : Elementary symmetry handling
   Frank Wennmohs         : Technical directorship


 We gratefully acknowledge several colleagues who have allowed us to
 interface, adapt or use parts of their codes:
   Stefan Grimme, W. Hujo, H. Kruse,             : VdW corrections, initial TS optimization,
                  C. Bannwarth                     DFT functionals, gCP, sTDA/sTD-DF
   Ed Valeev                                     : LibInt (2-el integral package), F12 methods
   Garnet Chan, S. Sharma, J. Yang, R. Olivares  : DMRG
   Ulf Ekstrom                                   : XCFun DFT Library
   Mihaly Kallay                                 : mrcc  (arbitrary order and MRCC methods)
   Andreas Klamt, Michael Diedenhofen            : otool_cosmo (COSMO solvation model)
   Jiri Pittner, Ondrej Demel                    : Mk-CCSD
   Frank Weinhold                                : gennbo (NPA and NBO analysis)
   Christopher J. Cramer and Donald G. Truhlar   : smd solvation model
   Lars Goerigk                                  : TD-DFT with DH, B97 family of functionals
   V. Asgeirsson, H. Jonsson                     : NEB implementation
   FAccTs GmbH                                   : IRC, NEB, NEB-TS, Multilevel


 Your calculation uses the libint2 library for the computation of 2-el integrals
 For citations please refer to: http://libint.valeyev.net

 This ORCA versions uses:
   CBLAS   interface :  Fast vector & matrix operations
   LAPACKE interface :  Fast linear algebra routines
   SCALAPACK package :  Parallel linear algebra routines


----- Orbital basis set information -----
Your calculation utilizes the basis: aug-pc-4
   H, C-F              : F. Jensen, J. Chem. Phys. 115, 9113 (2001).
                         F. Jensen, J. Chem. Phys. 116, 7372 (2002).
                         F. Jensen, J. Chem. Phys. 117, 9234 (2002).
   Si-Cl               : F. Jensen, T. Helgaker, J. Chem. Phys. 121, 3463 (2004).
   He-B, Ne-Mg, Al, Ar : F. Jensen, J. Phys. Chem. A 111, 11198 (2007).
   K, Ca, Ga-Kr        : F. Jensen, J. Chem. Phys. 136, 094110 (2012).
   Sc-Zn               : F. Jensen, J. Chem. Phys. 138, 014107 (2013).

================================================================================
                                        WARNINGS
                       Please study these warnings very carefully!
================================================================================


INFO   : the flag for use of LIBINT has been found!

================================================================================
                                       INPUT FILE
================================================================================
NAME = na2_pbe.inp
|  1> !uks pbe nori aug-pc-4 grid5 nofinalgrid verytightscf
|  2> 
|  3> %maxcore 1500
|  4> 
|  5> %pal nprocs 4 end
|  6> 
|  7> %scf
|  8> 	maxiter 200
|  9> end
| 10> %elprop
| 11> 	dipole true
| 12> 	 polar 1
| 13> 	 maxiter 200
| 14> end
| 15> 
| 16> * xyz 0 1
| 17> Na 0.0000 0.0000 0.0000
| 18> Na 0.0000 0.0000 3.0789
| 19> *
| 20> 
| 21>                          ****END OF INPUT****
================================================================================

                       ****************************
                       * Single Point Calculation *
                       ****************************

---------------------------------
CARTESIAN COORDINATES (ANGSTROEM)
---------------------------------
  Na     0.000000    0.000000    0.000000
  Na     0.000000    0.000000    3.078900

----------------------------
CARTESIAN COORDINATES (A.U.)
----------------------------
  NO LB      ZA    FRAG     MASS         X           Y           Z
   0 Na   11.0000    0    22.990    0.000000    0.000000    0.000000
   1 Na   11.0000    0    22.990    0.000000    0.000000    5.818278

--------------------------------
INTERNAL COORDINATES (ANGSTROEM)
--------------------------------
 Na     0   0   0     0.000000000000     0.00000000     0.00000000
 Na     1   0   0     3.078900000000     0.00000000     0.00000000

---------------------------
INTERNAL COORDINATES (A.U.)
---------------------------
 Na     0   0   0     0.000000000000     0.00000000     0.00000000
 Na     1   0   0     5.818277793730     0.00000000     0.00000000

---------------------
BASIS SET INFORMATION
---------------------
There are 1 groups of distinct atoms

 Group   1 Type Na  : 44s16p4d3f2g contracted to 8s6p4d3f2g pattern {15111311111/1111111/1111/111/11}

Atom   0Na   basis set group =>   1
Atom   1Na   basis set group =>   1


           ************************************************************
           *        Program running with 4 parallel MPI-processes     *
           *              working on a common directory               *
           ************************************************************
------------------------------------------------------------------------------
                           ORCA GTO INTEGRAL CALCULATION
------------------------------------------------------------------------------

                         BASIS SET STATISTICS AND STARTUP INFO

 # of primitive gaussian shells          ...  138
 # of primitive gaussian functions       ...  302
 # of contracted shells                  ...   46
 # of contracted basis functions         ...  170
 Highest angular momentum                ...    4
 Maximum contraction depth               ...   15
 Integral package used                   ... LIBINT
 Integral threshhold            Thresh   ...  1.000e-12
 Primitive cut-off              TCut     ...  1.000e-14


------------------------------ INTEGRAL EVALUATION ----------------------------


 * One electron integrals 
 Pre-screening matrix                    ... done
 Shell pair data                         ... done (   0.001 sec)



           ************************************************************
           *        Program running with 4 parallel MPI-processes     *
           *              working on a common directory               *
           ************************************************************
-------------------------------------------------------------------------------
                                 ORCA SCF
-------------------------------------------------------------------------------

------------
SCF SETTINGS
------------
Hamiltonian:
 Density Functional     Method          .... DFT(GTOs)
 Exchange Functional    Exchange        .... PBE
   PBE kappa parameter   XKappa         ....  0.804000
   PBE mue parameter    XMuePBE         ....  0.219520
 Correlation Functional Correlation     .... PBE
   PBE beta parameter  CBetaPBE         ....  0.066725
 LDA part of GGA corr.  LDAOpt          .... PW91-LDA
 Gradients option       PostSCFGGA      .... off
   Density functional embedding theory  .... OFF
   NL short-range parameter             ....  6.400000


General Settings:
 Integral files         IntName         .... na2_pbe
 Hartree-Fock type      HFTyp           .... UHF
 Total Charge           Charge          ....    0
 Multiplicity           Mult            ....    1
 Number of Electrons    NEL             ....   22
 Basis Dimension        Dim             ....  170
 Nuclear Repulsion      ENuc            ....     20.7965319446 Eh

Convergence Acceleration:
 DIIS                   CNVDIIS         .... on
   Start iteration      DIISMaxIt       ....    12
   Startup error        DIISStart       ....  0.200000
   # of expansion vecs  DIISMaxEq       ....     5
   Bias factor          DIISBfac        ....   1.050
   Max. coefficient     DIISMaxC        ....  10.000
 Newton-Raphson         CNVNR           .... off
 SOSCF                  CNVSOSCF        .... off
 Level Shifting         CNVShift        .... on
   Level shift para.    LevelShift      ....    0.2500
   Turn off err/grad.   ShiftErr        ....    0.0010
 Zerner damping         CNVZerner       .... off
 Static damping         CNVDamp         .... on
   Fraction old density DampFac         ....    0.7000
   Max. Damping (<1)    DampMax         ....    0.9800
   Min. Damping (>=0)   DampMin         ....    0.0000
   Turn off err/grad.   DampErr         ....    0.1000
 Fernandez-Rico         CNVRico         .... off

SCF Procedure:
 Maximum # iterations   MaxIter         ....   200
 SCF integral mode      SCFMode         .... Direct
   Integral package                     .... LIBINT
 Reset frequency        DirectResetFreq ....    20
 Integral Threshold     Thresh          ....  1.000e-12 Eh
 Primitive CutOff       TCut            ....  1.000e-14 Eh

Convergence Tolerance:
 Convergence Check Mode ConvCheckMode   .... Total+1el-Energy
 Convergence forced     ConvForced      .... 0
 Energy Change          TolE            ....  1.000e-09 Eh
 1-El. energy change                    ....  1.000e-06 Eh
 DIIS Error             TolErr          ....  1.000e-08


Diagonalization of the overlap matrix:
Smallest eigenvalue                        ... 1.159e-05
Time for diagonalization                   ...    0.005 sec
Threshold for overlap eigenvalues          ... 1.000e-08
Number of eigenvalues below threshold      ... 0
Time for construction of square roots      ...    0.013 sec
Total time needed                          ...    0.018 sec

-------------------
DFT GRID GENERATION
-------------------

General Integration Accuracy     IntAcc      ...  5.010
Radial Grid Type                 RadialGrid  ... Gauss-Chebyshev
Angular Grid (max. acc.)         AngularGrid ... Lebedev-434
Angular grid pruning method      GridPruning ... 3 (G Style)
Weight generation scheme         WeightScheme... Becke
Basis function cutoff            BFCut       ...    1.0000e-12
Integration weight cutoff        WCut        ...    1.0000e-14
Grids for H and He will be reduced by one unit

# of grid points (after initial pruning)     ...  22520 (   0.0 sec)
# of grid points (after weights+screening)   ...  22468 (   0.0 sec)
nearest neighbour list constructed           ...    0.0 sec
Grid point re-assignment to atoms done       ...    0.0 sec
Grid point division into batches done        ...    0.2 sec
Reduced shell lists constructed in    0.3 sec

Total number of grid points                  ...    22468
Total number of batches                      ...      352
Average number of points per batch           ...       63
Average number of grid points per atom       ...    11234
Average number of shells per batch           ...    32.56 (70.79%)
Average number of basis functions per batch  ...   119.35 (70.20%)
Average number of large shells per batch     ...    28.89 (88.72%)
Average number of large basis fcns per batch ...   105.13 (88.09%)
Maximum spatial batch extension              ...  26.20, 26.20, 21.65 au
Average spatial batch extension              ...   2.17,  2.16,  1.88 au

Time for grid setup =    0.277 sec

------------------------------
INITIAL GUESS: MODEL POTENTIAL
------------------------------
Loading Hartree-Fock densities                     ... done
Calculating cut-offs                               ... done
Setting up the integral package                    ... done
Initializing the effective Hamiltonian             ... done
Starting the Coulomb interaction                   ... done (   0.0 sec)
Reading the grid                                   ... done
Mapping shells                                     ... done
Starting the XC term evaluation                    ... done (   0.1 sec)
  promolecular density results
     # of electrons  =     21.999999374
     EX              =    -27.893266233
     EC              =     -0.758450150
     EX+EC           =    -28.651716384
Transforming the Hamiltonian                       ... done (   0.0 sec)
Diagonalizing the Hamiltonian                      ... done (   0.0 sec)
Back transforming the eigenvectors                 ... done (   0.0 sec)
Now organizing SCF variables                       ... done
                      ------------------
                      INITIAL GUESS DONE (   0.5 sec)
                      ------------------
--------------
SCF ITERATIONS
--------------
ITER       Energy         Delta-E        Max-DP      RMS-DP      [F,P]     Damp
               ***  Starting incremental Fock matrix formation  ***
  0   -324.3690739717   0.000000000000 0.00838921  0.00020024  0.0309257 0.7000
  1   -324.3702443438  -0.001170372083 0.00833741  0.00019136  0.0181268 0.7000
                               ***Turning on DIIS***
  2   -324.3711378800  -0.000893536202 0.02397191  0.00048737  0.0128531 0.0000
  3   -324.3726064753  -0.001468595319 0.00461646  0.00009283  0.0099631 0.0000
  4   -324.3727179098  -0.000111434466 0.00205943  0.00005334  0.0013655 0.0000
  5   -324.3727293971  -0.000011487295 0.00435671  0.00009036  0.0006531 0.0000
  6   -324.3727342659  -0.000004868798 0.00053142  0.00001302  0.0001462 0.0000
  7   -324.3727343216  -0.000000055734 0.00009034  0.00000252  0.0000826 0.0000
  8   -324.3727343380  -0.000000016391 0.00003164  0.00000063  0.0000052 0.0000
  9   -324.3727343382  -0.000000000187 0.00000287  0.00000006  0.0000011 0.0000
                 **** Energy Check signals convergence ****

               *****************************************************
               *                     SUCCESS                       *
               *           SCF CONVERGED AFTER  10 CYCLES          *
               *****************************************************


----------------
TOTAL SCF ENERGY
----------------

Total Energy       :         -324.37273434 Eh           -8826.63084 eV

Components:
Nuclear Repulsion  :           20.79653194 Eh             565.90240 eV
Electronic Energy  :         -345.16926628 Eh           -9392.53324 eV
One Electron Energy:         -497.57814762 Eh          -13539.78975 eV
Two Electron Energy:          152.40888134 Eh            4147.25650 eV

Virial components:
Potential Energy   :         -648.40235516 Eh          -17643.92508 eV
Kinetic Energy     :          324.02962083 Eh            8817.29425 eV
Virial Ratio       :            2.00105890


DFT components:
N(Alpha)           :       10.999998916921 electrons
N(Beta)            :       10.999998916921 electrons
N(Total)           :       21.999997833842 electrons
E(X)               :      -27.856700883593 Eh       
E(C)               :       -0.754548287156 Eh       
E(XC)              :      -28.611249170749 Eh       
DFET-embed. en.    :        0.000000000000 Eh       

---------------
SCF CONVERGENCE
---------------

  Last Energy change         ...   -2.1032e-12  Tolerance :   1.0000e-09
  Last MAX-Density change    ...    1.0213e-06  Tolerance :   1.0000e-08
  Last RMS-Density change    ...    2.4446e-08  Tolerance :   1.0000e-09
  Last DIIS Error            ...    1.0685e-07  Tolerance :   1.0000e-08

             **** THE GBW FILE WAS UPDATED (na2_pbe.gbw) ****
             **** DENSITY FILE WAS UPDATED (na2_pbe.scfp.tmp) ****
             **** ENERGY FILE WAS UPDATED (na2_pbe.en.tmp) ****
----------------------
UHF SPIN CONTAMINATION
----------------------

Warning: in a DFT calculation there is little theoretical justification to 
         calculate <S**2> as in Hartree-Fock theory. We will do it anyways
         but you should keep in mind that the values have only limited relevance

Expectation value of <S**2>     :    -0.000000
Ideal value S*(S+1) for S=0.0   :     0.000000
Deviation                       :    -0.000000

----------------
ORBITAL ENERGIES
----------------
                 SPIN UP ORBITALS
  NO   OCC          E(Eh)            E(eV) 
   0   1.0000     -37.890775     -1031.0604 
   1   1.0000     -37.890775     -1031.0604 
   2   1.0000      -2.056913       -55.9715 
   3   1.0000      -2.056768       -55.9675 
   4   1.0000      -1.033845       -28.1324 
   5   1.0000      -1.032897       -28.1065 
   6   1.0000      -1.032897       -28.1065 
   7   1.0000      -1.032662       -28.1002 
   8   1.0000      -1.032662       -28.1002 
   9   1.0000      -1.031770       -28.0759 
  10   1.0000      -0.114867        -3.1257 
  11   0.0000      -0.065305        -1.7770 
  12   0.0000      -0.035048        -0.9537 
  13   0.0000      -0.035048        -0.9537 
  14   0.0000      -0.018721        -0.5094 
  15   0.0000       0.000831         0.0226 
  16   0.0000       0.000831         0.0226 
  17   0.0000       0.001675         0.0456 
  18   0.0000       0.004013         0.1092 
  19   0.0000       0.011655         0.3171 
  20   0.0000       0.011655         0.3171 
  21   0.0000       0.014637         0.3983 
  22   0.0000       0.017283         0.4703 
  23   0.0000       0.021666         0.5896 
  24   0.0000       0.021666         0.5896 
  25   0.0000       0.022517         0.6127 
  26   0.0000       0.022517         0.6127 
  27   0.0000       0.023418         0.6372 
  28   0.0000       0.031290         0.8514 
  29   0.0000       0.038059         1.0356 
  30   0.0000       0.038059         1.0356 
  31   0.0000       0.044742         1.2175 
  32   0.0000       0.044742         1.2175 
  33   0.0000       0.045125         1.2279 
  34   0.0000       0.053817         1.4644 
  35   0.0000       0.058678         1.5967 
  36   0.0000       0.058678         1.5967 
  37   0.0000       0.065581         1.7846 
  38   0.0000       0.065581         1.7846 
  39   0.0000       0.067767         1.8440 
  40   0.0000       0.067767         1.8440 
  41   0.0000       0.071785         1.9534 
  42   0.0000       0.075096         2.0435 
  43   0.0000       0.077478         2.1083 
  44   0.0000       0.077478         2.1083 
  45   0.0000       0.085479         2.3260 
  46   0.0000       0.087951         2.3933 
  47   0.0000       0.087951         2.3933 
  48   0.0000       0.095064         2.5868 
  49   0.0000       0.095064         2.5868 
  50   0.0000       0.100678         2.7396 
  51   0.0000       0.103185         2.8078 
  52   0.0000       0.103185         2.8078 
  53   0.0000       0.107910         2.9364 
  54   0.0000       0.107910         2.9364 
  55   0.0000       0.109849         2.9891 
  56   0.0000       0.109849         2.9891 
  57   0.0000       0.121140         3.2964 
  58   0.0000       0.121140         3.2964 
  59   0.0000       0.123057         3.3485 
  60   0.0000       0.129372         3.5204 
  61   0.0000       0.129372         3.5204 
  62   0.0000       0.136534         3.7153 
  63   0.0000       0.136534         3.7153 
  64   0.0000       0.139208         3.7881 
  65   0.0000       0.139944         3.8081 
  66   0.0000       0.139944         3.8081 
  67   0.0000       0.146757         3.9935 
  68   0.0000       0.146757         3.9935 
  69   0.0000       0.152289         4.1440 
  70   0.0000       0.152289         4.1440 
  71   0.0000       0.158949         4.3252 
  72   0.0000       0.180891         4.9223 
  73   0.0000       0.181334         4.9344 
  74   0.0000       0.181334         4.9344 
  75   0.0000       0.183100         4.9824 
  76   0.0000       0.183100         4.9824 
  77   0.0000       0.188825         5.1382 
  78   0.0000       0.189402         5.1539 
  79   0.0000       0.206890         5.6298 
  80   0.0000       0.206890         5.6298 
  81   0.0000       0.245155         6.6710 
  82   0.0000       0.245155         6.6710 
  83   0.0000       0.251830         6.8527 
  84   0.0000       0.251830         6.8527 
  85   0.0000       0.313472         8.5300 
  86   0.0000       0.328747         8.9457 
  87   0.0000       0.331060         9.0086 
  88   0.0000       0.331061         9.0086 
  89   0.0000       0.344841         9.3836 
  90   0.0000       0.344842         9.3836 
  91   0.0000       0.358370         9.7517 
  92   0.0000       0.361554         9.8384 
  93   0.0000       0.416503        11.3336 
  94   0.0000       0.416503        11.3336 
  95   0.0000       0.586691        15.9647 
  96   0.0000       0.612757        16.6740 
  97   0.0000       0.644341        17.5334 
  98   0.0000       0.644341        17.5334 
  99   0.0000       0.662392        18.0246 
 100   0.0000       0.662392        18.0246 
 101   0.0000       0.691084        18.8054 
 102   0.0000       0.735503        20.0140 
 103   0.0000       0.735506        20.0141 
 104   0.0000       0.761091        20.7103 
 105   0.0000       0.761091        20.7103 
 106   0.0000       0.798711        21.7340 
 107   0.0000       0.798711        21.7340 
 108   0.0000       0.827594        22.5200 
 109   0.0000       0.827594        22.5200 
 110   0.0000       0.894361        24.3368 
 111   0.0000       0.894363        24.3368 
 112   0.0000       0.931133        25.3374 
 113   0.0000       1.042395        28.3650 
 114   0.0000       1.042395        28.3650 
 115   0.0000       1.144693        31.1487 
 116   0.0000       1.292729        35.1769 
 117   0.0000       1.292729        35.1769 
 118   0.0000       1.305069        35.5127 
 119   0.0000       1.305069        35.5127 
 120   0.0000       1.313136        35.7323 
 121   0.0000       1.324800        36.0496 
 122   0.0000       1.324800        36.0496 
 123   0.0000       1.367280        37.2056 
 124   0.0000       1.367282        37.2056 
 125   0.0000       1.371946        37.3325 
 126   0.0000       1.371948        37.3326 
 127   0.0000       1.379801        37.5463 
 128   0.0000       1.379804        37.5464 
 129   0.0000       1.397223        38.0204 
 130   0.0000       1.397226        38.0205 
 131   0.0000       1.416931        38.5566 
 132   0.0000       1.416931        38.5566 
 133   0.0000       1.423031        38.7226 
 134   0.0000       1.423031        38.7226 
 135   0.0000       1.455322        39.6013 
 136   0.0000       1.455322        39.6013 
 137   0.0000       1.512781        41.1649 
 138   0.0000       1.619284        44.0630 
 139   0.0000       1.619290        44.0631 
 140   0.0000       1.634360        44.4732 
 141   0.0000       1.643157        44.7126 
 142   0.0000       1.853519        50.4368 
 143   0.0000       1.853519        50.4368 
 144   0.0000       2.388761        65.0015 
 145   0.0000       2.871415        78.1352 
 146   0.0000       3.911397       106.4345 
 147   0.0000       3.911398       106.4345 
 148   0.0000       3.922117       106.7262 
 149   0.0000       3.922117       106.7262 
 150   0.0000       3.925959       106.8308 
 151   0.0000       3.925959       106.8308 
 152   0.0000       3.935129       107.0803 
 153   0.0000       3.935129       107.0803 
 154   0.0000       3.975627       108.1823 
 155   0.0000       3.975627       108.1823 
 156   0.0000       4.007056       109.0375 
 157   0.0000       4.132419       112.4488 
 158   0.0000       4.132419       112.4488 
 159   0.0000       4.212279       114.6219 
 160   0.0000       5.564313       151.4126 
 161   0.0000       5.564313       151.4126 
 162   0.0000       5.570107       151.5703 
 163   0.0000       5.570115       151.5705 
 164   0.0000       5.578396       151.7959 
 165   0.0000       5.578404       151.7961 
 166   0.0000       5.623185       153.0146 
 167   0.0000       5.623185       153.0146 
 168   0.0000       5.664160       154.1296 
 169   0.0000       5.676136       154.4555 

                 SPIN DOWN ORBITALS
  NO   OCC          E(Eh)            E(eV) 
   0   1.0000     -37.890775     -1031.0604 
   1   1.0000     -37.890775     -1031.0604 
   2   1.0000      -2.056913       -55.9715 
   3   1.0000      -2.056768       -55.9675 
   4   1.0000      -1.033845       -28.1324 
   5   1.0000      -1.032897       -28.1065 
   6   1.0000      -1.032897       -28.1065 
   7   1.0000      -1.032662       -28.1002 
   8   1.0000      -1.032662       -28.1002 
   9   1.0000      -1.031770       -28.0759 
  10   1.0000      -0.114867        -3.1257 
  11   0.0000      -0.065305        -1.7770 
  12   0.0000      -0.035048        -0.9537 
  13   0.0000      -0.035048        -0.9537 
  14   0.0000      -0.018721        -0.5094 
  15   0.0000       0.000831         0.0226 
  16   0.0000       0.000831         0.0226 
  17   0.0000       0.001675         0.0456 
  18   0.0000       0.004013         0.1092 
  19   0.0000       0.011655         0.3171 
  20   0.0000       0.011655         0.3171 
  21   0.0000       0.014637         0.3983 
  22   0.0000       0.017283         0.4703 
  23   0.0000       0.021666         0.5896 
  24   0.0000       0.021666         0.5896 
  25   0.0000       0.022517         0.6127 
  26   0.0000       0.022517         0.6127 
  27   0.0000       0.023418         0.6372 
  28   0.0000       0.031290         0.8514 
  29   0.0000       0.038059         1.0356 
  30   0.0000       0.038059         1.0356 
  31   0.0000       0.044742         1.2175 
  32   0.0000       0.044742         1.2175 
  33   0.0000       0.045125         1.2279 
  34   0.0000       0.053817         1.4644 
  35   0.0000       0.058678         1.5967 
  36   0.0000       0.058678         1.5967 
  37   0.0000       0.065581         1.7846 
  38   0.0000       0.065581         1.7846 
  39   0.0000       0.067767         1.8440 
  40   0.0000       0.067767         1.8440 
  41   0.0000       0.071785         1.9534 
  42   0.0000       0.075096         2.0435 
  43   0.0000       0.077478         2.1083 
  44   0.0000       0.077478         2.1083 
  45   0.0000       0.085479         2.3260 
  46   0.0000       0.087951         2.3933 
  47   0.0000       0.087951         2.3933 
  48   0.0000       0.095064         2.5868 
  49   0.0000       0.095064         2.5868 
  50   0.0000       0.100678         2.7396 
  51   0.0000       0.103185         2.8078 
  52   0.0000       0.103185         2.8078 
  53   0.0000       0.107910         2.9364 
  54   0.0000       0.107910         2.9364 
  55   0.0000       0.109849         2.9891 
  56   0.0000       0.109849         2.9891 
  57   0.0000       0.121140         3.2964 
  58   0.0000       0.121140         3.2964 
  59   0.0000       0.123057         3.3485 
  60   0.0000       0.129372         3.5204 
  61   0.0000       0.129372         3.5204 
  62   0.0000       0.136534         3.7153 
  63   0.0000       0.136534         3.7153 
  64   0.0000       0.139208         3.7881 
  65   0.0000       0.139944         3.8081 
  66   0.0000       0.139944         3.8081 
  67   0.0000       0.146757         3.9935 
  68   0.0000       0.146757         3.9935 
  69   0.0000       0.152289         4.1440 
  70   0.0000       0.152289         4.1440 
  71   0.0000       0.158949         4.3252 
  72   0.0000       0.180891         4.9223 
  73   0.0000       0.181334         4.9344 
  74   0.0000       0.181334         4.9344 
  75   0.0000       0.183100         4.9824 
  76   0.0000       0.183100         4.9824 
  77   0.0000       0.188825         5.1382 
  78   0.0000       0.189402         5.1539 
  79   0.0000       0.206890         5.6298 
  80   0.0000       0.206890         5.6298 
  81   0.0000       0.245155         6.6710 
  82   0.0000       0.245155         6.6710 
  83   0.0000       0.251830         6.8527 
  84   0.0000       0.251830         6.8527 
  85   0.0000       0.313472         8.5300 
  86   0.0000       0.328747         8.9457 
  87   0.0000       0.331060         9.0086 
  88   0.0000       0.331061         9.0086 
  89   0.0000       0.344841         9.3836 
  90   0.0000       0.344842         9.3836 
  91   0.0000       0.358370         9.7517 
  92   0.0000       0.361554         9.8384 
  93   0.0000       0.416503        11.3336 
  94   0.0000       0.416503        11.3336 
  95   0.0000       0.586691        15.9647 
  96   0.0000       0.612757        16.6740 
  97   0.0000       0.644341        17.5334 
  98   0.0000       0.644341        17.5334 
  99   0.0000       0.662392        18.0246 
 100   0.0000       0.662392        18.0246 
 101   0.0000       0.691084        18.8054 
 102   0.0000       0.735503        20.0140 
 103   0.0000       0.735506        20.0141 
 104   0.0000       0.761091        20.7103 
 105   0.0000       0.761091        20.7103 
 106   0.0000       0.798711        21.7340 
 107   0.0000       0.798711        21.7340 
 108   0.0000       0.827594        22.5200 
 109   0.0000       0.827594        22.5200 
 110   0.0000       0.894361        24.3368 
 111   0.0000       0.894363        24.3368 
 112   0.0000       0.931133        25.3374 
 113   0.0000       1.042395        28.3650 
 114   0.0000       1.042395        28.3650 
 115   0.0000       1.144693        31.1487 
 116   0.0000       1.292729        35.1769 
 117   0.0000       1.292729        35.1769 
 118   0.0000       1.305069        35.5127 
 119   0.0000       1.305069        35.5127 
 120   0.0000       1.313136        35.7323 
 121   0.0000       1.324800        36.0496 
 122   0.0000       1.324800        36.0496 
 123   0.0000       1.367280        37.2056 
 124   0.0000       1.367282        37.2056 
 125   0.0000       1.371946        37.3325 
 126   0.0000       1.371948        37.3326 
 127   0.0000       1.379801        37.5463 
 128   0.0000       1.379804        37.5464 
 129   0.0000       1.397223        38.0204 
 130   0.0000       1.397226        38.0205 
 131   0.0000       1.416931        38.5566 
 132   0.0000       1.416931        38.5566 
 133   0.0000       1.423031        38.7226 
 134   0.0000       1.423031        38.7226 
 135   0.0000       1.455322        39.6013 
 136   0.0000       1.455322        39.6013 
 137   0.0000       1.512781        41.1649 
 138   0.0000       1.619284        44.0630 
 139   0.0000       1.619290        44.0631 
 140   0.0000       1.634360        44.4732 
 141   0.0000       1.643157        44.7126 
 142   0.0000       1.853519        50.4368 
 143   0.0000       1.853519        50.4368 
 144   0.0000       2.388761        65.0015 
 145   0.0000       2.871415        78.1352 
 146   0.0000       3.911397       106.4345 
 147   0.0000       3.911398       106.4345 
 148   0.0000       3.922117       106.7262 
 149   0.0000       3.922117       106.7262 
 150   0.0000       3.925959       106.8308 
 151   0.0000       3.925959       106.8308 
 152   0.0000       3.935129       107.0803 
 153   0.0000       3.935129       107.0803 
 154   0.0000       3.975627       108.1823 
 155   0.0000       3.975627       108.1823 
 156   0.0000       4.007056       109.0375 
 157   0.0000       4.132419       112.4488 
 158   0.0000       4.132419       112.4488 
 159   0.0000       4.212279       114.6219 
 160   0.0000       5.564313       151.4126 
 161   0.0000       5.564313       151.4126 
 162   0.0000       5.570107       151.5703 
 163   0.0000       5.570115       151.5705 
 164   0.0000       5.578396       151.7959 
 165   0.0000       5.578404       151.7961 
 166   0.0000       5.623185       153.0146 
 167   0.0000       5.623185       153.0146 
 168   0.0000       5.664160       154.1296 
 169   0.0000       5.676136       154.4555 

                    ********************************
                    * MULLIKEN POPULATION ANALYSIS *
                    ********************************

--------------------------------------------
MULLIKEN ATOMIC CHARGES AND SPIN POPULATIONS
--------------------------------------------
   0 Na:   -0.000015   -0.000000
   1 Na:    0.000015    0.000000
Sum of atomic charges         :   -0.0000000
Sum of atomic spin populations:    0.0000000

-----------------------------------------------------
MULLIKEN REDUCED ORBITAL CHARGES AND SPIN POPULATIONS
-----------------------------------------------------
CHARGE
  0 Nas       :     5.048957  s :     5.048957
      pz      :     1.970878  p :     5.971280
      px      :     2.000201
      py      :     2.000201
      dz2     :    -0.017153  d :    -0.017406
      dxz     :    -0.000127
      dyz     :    -0.000127
      dx2y2   :     0.000000
      dxy     :    -0.000000
      f0      :    -0.002506  f :    -0.002637
      f+1     :    -0.000065
      f-1     :    -0.000065
      f+2     :    -0.000000
      f-2     :     0.000000
      f+3     :     0.000000
      f-3     :     0.000000
      g0      :    -0.000160  g :    -0.000178
      g+1     :    -0.000009
      g-1     :    -0.000009
      g+2     :     0.000000
      g-2     :     0.000000
      g+3     :     0.000000
      g-3     :     0.000000
      g+4     :     0.000000
      g-4     :     0.000000
  1 Nas       :     5.048931  s :     5.048931
      pz      :     1.970875  p :     5.971276
      px      :     2.000201
      py      :     2.000201
      dz2     :    -0.017154  d :    -0.017407
      dxz     :    -0.000127
      dyz     :    -0.000127
      dx2y2   :     0.000000
      dxy     :    -0.000000
      f0      :    -0.002507  f :    -0.002637
      f+1     :    -0.000065
      f-1     :    -0.000065
      f+2     :     0.000000
      f-2     :     0.000000
      f+3     :     0.000000
      f-3     :     0.000000
      g0      :    -0.000160  g :    -0.000178
      g+1     :    -0.000009
      g-1     :    -0.000009
      g+2     :     0.000000
      g-2     :     0.000000
      g+3     :     0.000000
      g-3     :     0.000000
      g+4     :     0.000000
      g-4     :     0.000000

SPIN
  0 Nas       :    -0.000000  s :    -0.000000
      pz      :    -0.000000  p :    -0.000000
      px      :    -0.000000
      py      :    -0.000000
      dz2     :    -0.000000  d :    -0.000000
      dxz     :    -0.000000
      dyz     :    -0.000000
      dx2y2   :    -0.000000
      dxy     :    -0.000000
      f0      :    -0.000000  f :    -0.000000
      f+1     :     0.000000
      f-1     :    -0.000000
      f+2     :     0.000000
      f-2     :    -0.000000
      f+3     :    -0.000000
      f-3     :    -0.000000
      g0      :    -0.000000  g :    -0.000000
      g+1     :     0.000000
      g-1     :     0.000000
      g+2     :     0.000000
      g-2     :    -0.000000
      g+3     :    -0.000000
      g-3     :    -0.000000
      g+4     :    -0.000000
      g-4     :     0.000000
  1 Nas       :     0.000000  s :     0.000000
      pz      :     0.000000  p :     0.000000
      px      :     0.000000
      py      :     0.000000
      dz2     :     0.000000  d :     0.000000
      dxz     :     0.000000
      dyz     :     0.000000
      dx2y2   :    -0.000000
      dxy     :     0.000000
      f0      :     0.000000  f :     0.000000
      f+1     :     0.000000
      f-1     :     0.000000
      f+2     :     0.000000
      f-2     :     0.000000
      f+3     :     0.000000
      f-3     :     0.000000
      g0      :     0.000000  g :     0.000000
      g+1     :     0.000000
      g-1     :    -0.000000
      g+2     :     0.000000
      g-2     :     0.000000
      g+3     :    -0.000000
      g-3     :     0.000000
      g+4     :     0.000000
      g-4     :    -0.000000


                     *******************************
                     * LOEWDIN POPULATION ANALYSIS *
                     *******************************

-------------------------------------------
LOEWDIN ATOMIC CHARGES AND SPIN POPULATIONS
-------------------------------------------
   0 Na:   -0.000000   -0.000000
   1 Na:    0.000000    0.000000

----------------------------------------------------
LOEWDIN REDUCED ORBITAL CHARGES AND SPIN POPULATIONS
----------------------------------------------------
CHARGE
  0 Nas       :     4.815251  s :     4.815251
      pz      :     2.132046  p :     6.130296
      px      :     1.999125
      py      :     1.999125
      dz2     :     0.033066  d :     0.033327
      dxz     :     0.000130
      dyz     :     0.000130
      dx2y2   :     0.000000
      dxy     :     0.000000
      f0      :     0.011705  f :     0.012213
      f+1     :     0.000254
      f-1     :     0.000254
      f+2     :     0.000000
      f-2     :     0.000000
      f+3     :     0.000000
      f-3     :     0.000000
      g0      :     0.007932  g :     0.008914
      g+1     :     0.000491
      g-1     :     0.000491
      g+2     :     0.000000
      g-2     :     0.000000
      g+3     :     0.000000
      g-3     :     0.000000
      g+4     :     0.000000
      g-4     :     0.000000
  1 Nas       :     4.815251  s :     4.815251
      pz      :     2.132046  p :     6.130296
      px      :     1.999125
      py      :     1.999125
      dz2     :     0.033066  d :     0.033327
      dxz     :     0.000130
      dyz     :     0.000130
      dx2y2   :     0.000000
      dxy     :     0.000000
      f0      :     0.011705  f :     0.012213
      f+1     :     0.000254
      f-1     :     0.000254
      f+2     :     0.000000
      f-2     :     0.000000
      f+3     :     0.000000
      f-3     :     0.000000
      g0      :     0.007932  g :     0.008914
      g+1     :     0.000491
      g-1     :     0.000491
      g+2     :     0.000000
      g-2     :     0.000000
      g+3     :     0.000000
      g-3     :     0.000000
      g+4     :     0.000000
      g-4     :     0.000000

SPIN
  0 Nas       :    -0.000000  s :    -0.000000
      pz      :    -0.000000  p :    -0.000000
      px      :    -0.000000
      py      :    -0.000000
      dz2     :     0.000000  d :     0.000000
      dxz     :    -0.000000
      dyz     :    -0.000000
      dx2y2   :     0.000000
      dxy     :     0.000000
      f0      :    -0.000000  f :    -0.000000
      f+1     :    -0.000000
      f-1     :    -0.000000
      f+2     :     0.000000
      f-2     :    -0.000000
      f+3     :    -0.000000
      f-3     :    -0.000000
      g0      :     0.000000  g :     0.000000
      g+1     :     0.000000
      g-1     :     0.000000
      g+2     :    -0.000000
      g-2     :    -0.000000
      g+3     :    -0.000000
      g-3     :    -0.000000
      g+4     :    -0.000000
      g-4     :     0.000000
  1 Nas       :     0.000000  s :     0.000000
      pz      :     0.000000  p :     0.000000
      px      :     0.000000
      py      :     0.000000
      dz2     :    -0.000000  d :    -0.000000
      dxz     :     0.000000
      dyz     :     0.000000
      dx2y2   :     0.000000
      dxy     :     0.000000
      f0      :     0.000000  f :     0.000000
      f+1     :     0.000000
      f-1     :     0.000000
      f+2     :     0.000000
      f-2     :     0.000000
      f+3     :     0.000000
      f-3     :     0.000000
      g0      :    -0.000000  g :    -0.000000
      g+1     :    -0.000000
      g-1     :    -0.000000
      g+2     :     0.000000
      g-2     :     0.000000
      g+3     :    -0.000000
      g-3     :     0.000000
      g+4     :     0.000000
      g-4     :    -0.000000


                      *****************************
                      * MAYER POPULATION ANALYSIS *
                      *****************************

  NA   - Mulliken gross atomic population
  ZA   - Total nuclear charge
  QA   - Mulliken gross atomic charge
  VA   - Mayer's total valence
  BVA  - Mayer's bonded valence
  FA   - Mayer's free valence

  ATOM       NA         ZA         QA         VA         BVA        FA
  0 Na    11.0000    11.0000    -0.0000     1.0030     1.0030    -0.0000
  1 Na    11.0000    11.0000     0.0000     1.0030     1.0030    -0.0000

  Mayer bond orders larger than 0.1
B(  0-Na,  1-Na) :   1.0030 

-------
TIMINGS
-------

Total SCF time: 0 days 0 hours 0 min 57 sec 

Total time                  ....      57.638 sec
Sum of individual times     ....      56.884 sec  ( 98.7%)

Fock matrix formation       ....      55.941 sec  ( 97.1%)
  XC integration            ....       4.387 sec  (  7.8% of F)
    Basis function eval.    ....       0.316 sec  (  7.2% of XC)
    Density eval.           ....       0.442 sec  ( 10.1% of XC)
    XC-Functional eval.     ....       0.107 sec  (  2.4% of XC)
    XC-Potential eval.      ....       1.377 sec  ( 31.4% of XC)
Diagonalization             ....       0.261 sec  (  0.5%)
Density matrix formation    ....       0.005 sec  (  0.0%)
Population analysis         ....       0.064 sec  (  0.1%)
Initial guess               ....       0.235 sec  (  0.4%)
Orbital Transformation      ....       0.000 sec  (  0.0%)
Orbital Orthonormalization  ....       0.000 sec  (  0.0%)
DIIS solution               ....       0.101 sec  (  0.2%)
Grid generation             ....       0.277 sec  (  0.5%)

-------------------------   --------------------
FINAL SINGLE POINT ENERGY      -324.372734338220
-------------------------   --------------------


                            ***************************************
                            *     ORCA property calculations      *
                            ***************************************

                                    ---------------------
                                    Active property flags
                                    ---------------------
   (+) Dipole Moment
   (+) Polarizability


------------------------------------------------------------------------------
                       ORCA ELECTRIC PROPERTIES CALCULATION
------------------------------------------------------------------------------

Dipole Moment Calculation                       ... on
Quadrupole Moment Calculation                   ... off
Polarizability Calculation                      ... Analytic (CP-SCF)
GBWName                                         ... na2_pbe.gbw
Electron density file                           ... na2_pbe.scfp.tmp
The origin for moment calculation is the CENTER OF MASS  = ( 0.000000,  0.000000  2.909139)

-------------
DIPOLE MOMENT
-------------
                                X             Y             Z
Electronic contribution:     -0.00000      -0.00000       0.00000
Nuclear contribution   :      0.00000       0.00000       0.00000
                        -----------------------------------------
Total Dipole Moment    :     -0.00000      -0.00000       0.00000
                        -----------------------------------------
Magnitude (a.u.)       :      0.00000
Magnitude (Debye)      :      0.00000



--------------------
Rotational spectrum 
--------------------
 
Rotational constants in cm-1:     0.000000     0.154702     0.154702 
Rotational constants in MHz :     0.000000  4637.858146  4637.858146 

 Dipole components along the rotational axes: 
x,y,z [a.u.] :     0.000000    -0.000000    -0.000000 
x,y,z [Debye]:     0.000000    -0.000000    -0.000000 

 
Transforming and storing MO dipole integrals   ... done

                ... starting polarizability calculation

Opening the Dipole integral file               ... (na2_pbe.dmo.tmp) done
Reading Dipole-MO integrals                    ... done
Solving CP-SCF equations                       ... 

           ************************************************************
           *        Program running with 4 parallel MPI-processes     *
           *              working on a common directory               *
           ************************************************************

------------------------------------------------------------------------------
                           ORCA CP-SCF CALCULATION
------------------------------------------------------------------------------

Input orbitals are from        ... na2_pbe.gbw
Input Perturbation             ... na2_pbe.cpv.tmp
Wavefunction output            ... na2_pbe.cpu.tmp
Perturbation mode              ... Real perturbation (singlet)
Solver                         ... POPLE
Max. number of iterations      ... 200
Convergence tolerance          ... 1.000e-06
Integral handling              ... Direct
Number of perturbations        ... 3
Number of operators            ... 2
Orbital ranges used for CP-SCF:
 Operator 0:  Orbitals   0... 10  to  11...169
 Operator 1:  Orbitals   0... 10  to  11...169
DFT calculation                         ... on
Exchange functional (SCF)               ... PBE
Exchange functional (CP-SCF)            ... PBE
   PBE kappa parameter  XKappa (SCF)    ...  0.804000
   PBE kappa parameter  XKappa (CP-SCF) ...  0.804000
   PBE mue parameter   XMuePBE (SCF)    ...  0.219520
   PBE mue parameter   XMuePBE (CP-SCF) ...  0.219520
Correlation functional (SCF)            ... PBE
Correlation functional (CP-SCF)         ... PBE
   PBE beta parameter CBetaPBE (SCF)    ...  0.066725
   PBE beta parameter CBetaPBE (CP-SCF) ...  0.066725
 LDA part of GGA corr.  LDAOpt (SCF)    ... PW91-LDA
 LDA part of GGA corr.  LDAOpt (CP-SCF) ... PW91-LDA
Variables per vector in CP-SCF ... 3498
Number of vectors sought       ... 3
Recalculating density on grid  ... done
Calculating the xc-kernel      ... done
     CP-SCF ITERATION   0: 
     CP-SCF ITERATION   1:      0.950131709277
     CP-SCF ITERATION   2:      0.016684771678
     CP-SCF ITERATION   3:      0.000219049274
     CP-SCF ITERATION   4:      0.000001290605
     CP-SCF ITERATION   5:      0.000000028120
done
Reading CP-SCF coefficients                    ... done
Doing the polarizability tensor   ... done
Cleaning up                                    ... done

-------------------------
THE POLARIZABILITY TENSOR
-------------------------

The raw cartesian tensor (atomic units):
  195.91059     -0.00000      0.00000  
   -0.00000    195.91059     -0.00000  
    0.00000     -0.00000    332.33638  
diagonalized tensor: 
  195.91059    195.91059    332.33638  

    0.99018      0.13980      0.00000  
    0.13980     -0.99018     -0.00000  
   -0.00000     -0.00000      1.00000  

Isotropic polarizability : 241.38585


Timings for individual modules:

Sum of individual times         ...       96.679 sec (=   1.611 min)
GTO integral calculation        ...        1.170 sec (=   0.020 min)   1.2 %
SCF iterations                  ...       57.960 sec (=   0.966 min)  60.0 %
Solution of CP-SCF eqns.        ...       37.548 sec (=   0.626 min)  38.8 %
                             ****ORCA TERMINATED NORMALLY****
TOTAL RUN TIME: 0 days 0 hours 1 minutes 37 seconds 349 msec
