
                                 *****************
                                 * O   R   C   A *
                                 *****************

           --- An Ab Initio, DFT and Semiempirical electronic structure package ---

                  #######################################################
                  #                        -***-                        #
                  #          Department of theory and spectroscopy      #
                  #               Directorship: Frank Neese             #
                  #        Max Planck Institute fuer Kohlenforschung    #
                  #                Kaiser Wilhelm Platz 1               #
                  #                 D-45470 Muelheim/Ruhr               #
                  #                      Germany                        #
                  #                                                     #
                  #                  All rights reserved                #
                  #                        -***-                        #
                  #######################################################


                         Program Version 4.1.2  - RELEASE  -


 With contributions from (in alphabetic order):
   Daniel Aravena         : Magnetic Properties
   Michael Atanasov       : Ab Initio Ligand Field Theory
   Alexander A. Auer      : GIAO ZORA
   Ute Becker             : Parallelization
   Giovanni Bistoni       : ED, Open-shell LED
   Martin Brehm           : Molecular dynamics
   Dmytro Bykov           : SCF Hessian
   Vijay G. Chilkuri      : MRCI spin determinant printing
   Dipayan Datta          : RHF DLPNO-CCSD density
   Achintya Kumar Dutta   : EOM-CC, STEOM-CC
   Dmitry Ganyushin       : Spin-Orbit,Spin-Spin,Magnetic field MRCI
   Miquel Garcia          : C-PCM Hessian
   Yang Guo               : DLPNO-NEVPT2, CIM, IAO-localization
   Andreas Hansen         : Spin unrestricted coupled pair/coupled cluster methods
   Benjamin Helmich-Paris : CASSCF linear response (MC-RPA)
   Lee Huntington         : MR-EOM, pCC
   Robert Izsak           : Overlap fitted RIJCOSX, COSX-SCS-MP3, EOM
   Christian Kollmar      : KDIIS, OOCD, Brueckner-CCSD(T), CCSD density
   Simone Kossmann        : Meta GGA functionals, TD-DFT gradient, OOMP2, MP2 Hessian
   Martin Krupicka        : AUTO-CI
   Lucas Lang             : DCDCAS
   Dagmar Lenk            : GEPOL surface, SMD
   Dimitrios Liakos       : Extrapolation schemes; parallel MDCI
   Dimitrios Manganas     : ROCIS; embedding schemes
   Dimitrios Pantazis     : SARC Basis sets
   Taras Petrenko         : DFT Hessian,TD-DFT gradient, ASA, ECA, R-Raman, ABS, FL, XAS/XES, NRVS
   Peter Pinski           : DLPNO-MP2, DLPNO-MP2 Gradient
   Christoph Reimann      : Effective Core Potentials
   Marius Retegan         : Local ZFS, SOC
   Christoph Riplinger    : Optimizer, TS searches, QM/MM, DLPNO-CCSD(T), (RO)-DLPNO pert. Triples
   Tobias Risthaus        : Range-separated hybrids, TD-DFT gradient, RPA, STAB
   Michael Roemelt        : Restricted open shell CIS
   Masaaki Saitow         : Open-shell DLPNO
   Barbara Sandhoefer     : DKH picture change effects
   Avijit Sen             : IP-ROCIS
   Kantharuban Sivalingam : CASSCF convergence, NEVPT2, FIC-MRCI
   Bernardo de Souza      : ESD, SOC TD-DFT
   Georgi Stoychev        : AutoAux, RI-MP2 NMR
   Willem Van den Heuvel  : Paramagnetic NMR
   Boris Wezisla          : Elementary symmetry handling
   Frank Wennmohs         : Technical directorship


 We gratefully acknowledge several colleagues who have allowed us to
 interface, adapt or use parts of their codes:
   Stefan Grimme, W. Hujo, H. Kruse,             : VdW corrections, initial TS optimization,
                  C. Bannwarth                     DFT functionals, gCP, sTDA/sTD-DF
   Ed Valeev                                     : LibInt (2-el integral package), F12 methods
   Garnet Chan, S. Sharma, J. Yang, R. Olivares  : DMRG
   Ulf Ekstrom                                   : XCFun DFT Library
   Mihaly Kallay                                 : mrcc  (arbitrary order and MRCC methods)
   Andreas Klamt, Michael Diedenhofen            : otool_cosmo (COSMO solvation model)
   Jiri Pittner, Ondrej Demel                    : Mk-CCSD
   Frank Weinhold                                : gennbo (NPA and NBO analysis)
   Christopher J. Cramer and Donald G. Truhlar   : smd solvation model
   Lars Goerigk                                  : TD-DFT with DH, B97 family of functionals
   V. Asgeirsson, H. Jonsson                     : NEB implementation
   FAccTs GmbH                                   : IRC, NEB, NEB-TS, Multilevel


 Your calculation uses the libint2 library for the computation of 2-el integrals
 For citations please refer to: http://libint.valeyev.net

 This ORCA versions uses:
   CBLAS   interface :  Fast vector & matrix operations
   LAPACKE interface :  Fast linear algebra routines
   SCALAPACK package :  Parallel linear algebra routines


----- Orbital basis set information -----
Your calculation utilizes the basis: aug-pc-4
   H, C-F              : F. Jensen, J. Chem. Phys. 115, 9113 (2001).
                         F. Jensen, J. Chem. Phys. 116, 7372 (2002).
                         F. Jensen, J. Chem. Phys. 117, 9234 (2002).
   Si-Cl               : F. Jensen, T. Helgaker, J. Chem. Phys. 121, 3463 (2004).
   He-B, Ne-Mg, Al, Ar : F. Jensen, J. Phys. Chem. A 111, 11198 (2007).
   K, Ca, Ga-Kr        : F. Jensen, J. Chem. Phys. 136, 094110 (2012).
   Sc-Zn               : F. Jensen, J. Chem. Phys. 138, 014107 (2013).

================================================================================
                                        WARNINGS
                       Please study these warnings very carefully!
================================================================================


INFO   : the flag for use of LIBINT has been found!

================================================================================
                                       INPUT FILE
================================================================================
NAME = nah_pbe.inp
|  1> !uks pbe nori aug-pc-4 grid5 nofinalgrid verytightscf
|  2> 
|  3> %maxcore 1500
|  4> 
|  5> %pal nprocs 4 end
|  6> 
|  7> %scf
|  8> 	maxiter 200
|  9> end
| 10> %elprop
| 11> 	dipole true
| 12> 	 polar 1
| 13> 	 maxiter 200
| 14> end
| 15> 
| 16> * xyz 0 1
| 17> Na 0.0000 0.0000 0.0000
| 18> H 0.0000 0.0000 1.8874
| 19> *
| 20> 
| 21>                          ****END OF INPUT****
================================================================================

                       ****************************
                       * Single Point Calculation *
                       ****************************

---------------------------------
CARTESIAN COORDINATES (ANGSTROEM)
---------------------------------
  Na     0.000000    0.000000    0.000000
  H      0.000000    0.000000    1.887400

----------------------------
CARTESIAN COORDINATES (A.U.)
----------------------------
  NO LB      ZA    FRAG     MASS         X           Y           Z
   0 Na   11.0000    0    22.990    0.000000    0.000000    0.000000
   1 H     1.0000    0     1.008    0.000000    0.000000    3.566669

--------------------------------
INTERNAL COORDINATES (ANGSTROEM)
--------------------------------
 Na     0   0   0     0.000000000000     0.00000000     0.00000000
 H      1   0   0     1.887400000000     0.00000000     0.00000000

---------------------------
INTERNAL COORDINATES (A.U.)
---------------------------
 Na     0   0   0     0.000000000000     0.00000000     0.00000000
 H      1   0   0     3.566669105163     0.00000000     0.00000000

---------------------
BASIS SET INFORMATION
---------------------
There are 2 groups of distinct atoms

 Group   1 Type Na  : 44s16p4d3f2g contracted to 8s6p4d3f2g pattern {15111311111/1111111/1111/111/11}
 Group   2 Type H   : 12s7p4d3f2g contracted to 8s7p4d3f2g pattern {51111111/1111111/1111/111/11}

Atom   0Na   basis set group =>   1
Atom   1H    basis set group =>   2


           ************************************************************
           *        Program running with 4 parallel MPI-processes     *
           *              working on a common directory               *
           ************************************************************
------------------------------------------------------------------------------
                           ORCA GTO INTEGRAL CALCULATION
------------------------------------------------------------------------------

                         BASIS SET STATISTICS AND STARTUP INFO

 # of primitive gaussian shells          ...   97
 # of primitive gaussian functions       ...  243
 # of contracted shells                  ...   47
 # of contracted basis functions         ...  173
 Highest angular momentum                ...    4
 Maximum contraction depth               ...   15
 Integral package used                   ... LIBINT
 Integral threshhold            Thresh   ...  1.000e-12
 Primitive cut-off              TCut     ...  1.000e-14


------------------------------ INTEGRAL EVALUATION ----------------------------


 * One electron integrals 
 Pre-screening matrix                    ... done
 Shell pair data                         ... done (   0.000 sec)



           ************************************************************
           *        Program running with 4 parallel MPI-processes     *
           *              working on a common directory               *
           ************************************************************
-------------------------------------------------------------------------------
                                 ORCA SCF
-------------------------------------------------------------------------------

------------
SCF SETTINGS
------------
Hamiltonian:
 Density Functional     Method          .... DFT(GTOs)
 Exchange Functional    Exchange        .... PBE
   PBE kappa parameter   XKappa         ....  0.804000
   PBE mue parameter    XMuePBE         ....  0.219520
 Correlation Functional Correlation     .... PBE
   PBE beta parameter  CBetaPBE         ....  0.066725
 LDA part of GGA corr.  LDAOpt          .... PW91-LDA
 Gradients option       PostSCFGGA      .... off
   Density functional embedding theory  .... OFF
   NL short-range parameter             ....  6.400000


General Settings:
 Integral files         IntName         .... nah_pbe
 Hartree-Fock type      HFTyp           .... UHF
 Total Charge           Charge          ....    0
 Multiplicity           Mult            ....    1
 Number of Electrons    NEL             ....   12
 Basis Dimension        Dim             ....  173
 Nuclear Repulsion      ENuc            ....      3.0841100410 Eh

Convergence Acceleration:
 DIIS                   CNVDIIS         .... on
   Start iteration      DIISMaxIt       ....    12
   Startup error        DIISStart       ....  0.200000
   # of expansion vecs  DIISMaxEq       ....     5
   Bias factor          DIISBfac        ....   1.050
   Max. coefficient     DIISMaxC        ....  10.000
 Newton-Raphson         CNVNR           .... off
 SOSCF                  CNVSOSCF        .... off
 Level Shifting         CNVShift        .... on
   Level shift para.    LevelShift      ....    0.2500
   Turn off err/grad.   ShiftErr        ....    0.0010
 Zerner damping         CNVZerner       .... off
 Static damping         CNVDamp         .... on
   Fraction old density DampFac         ....    0.7000
   Max. Damping (<1)    DampMax         ....    0.9800
   Min. Damping (>=0)   DampMin         ....    0.0000
   Turn off err/grad.   DampErr         ....    0.1000
 Fernandez-Rico         CNVRico         .... off

SCF Procedure:
 Maximum # iterations   MaxIter         ....   200
 SCF integral mode      SCFMode         .... Direct
   Integral package                     .... LIBINT
 Reset frequency        DirectResetFreq ....    20
 Integral Threshold     Thresh          ....  1.000e-12 Eh
 Primitive CutOff       TCut            ....  1.000e-14 Eh

Convergence Tolerance:
 Convergence Check Mode ConvCheckMode   .... Total+1el-Energy
 Convergence forced     ConvForced      .... 0
 Energy Change          TolE            ....  1.000e-09 Eh
 1-El. energy change                    ....  1.000e-06 Eh
 DIIS Error             TolErr          ....  1.000e-08


Diagonalization of the overlap matrix:
Smallest eigenvalue                        ... 2.056e-05
Time for diagonalization                   ...    0.087 sec
Threshold for overlap eigenvalues          ... 1.000e-08
Number of eigenvalues below threshold      ... 0
Time for construction of square roots      ...    0.006 sec
Total time needed                          ...    0.092 sec

-------------------
DFT GRID GENERATION
-------------------

General Integration Accuracy     IntAcc      ...  5.010
Radial Grid Type                 RadialGrid  ... Gauss-Chebyshev
Angular Grid (max. acc.)         AngularGrid ... Lebedev-434
Angular grid pruning method      GridPruning ... 3 (G Style)
Weight generation scheme         WeightScheme... Becke
Basis function cutoff            BFCut       ...    1.0000e-12
Integration weight cutoff        WCut        ...    1.0000e-14
Grids for H and He will be reduced by one unit

# of grid points (after initial pruning)     ...  17952 (   0.0 sec)
# of grid points (after weights+screening)   ...  17871 (   0.0 sec)
nearest neighbour list constructed           ...    0.0 sec
Grid point re-assignment to atoms done       ...    0.0 sec
Grid point division into batches done        ...    0.1 sec
Reduced shell lists constructed in    0.2 sec

Total number of grid points                  ...    17871
Total number of batches                      ...      280
Average number of points per batch           ...       63
Average number of grid points per atom       ...     8936
Average number of shells per batch           ...    28.45 (60.53%)
Average number of basis functions per batch  ...   104.45 (60.38%)
Average number of large shells per batch     ...    24.56 (86.34%)
Average number of large basis fcns per batch ...    89.66 (85.84%)
Maximum spatial batch extension              ...  26.20, 26.20, 24.86 au
Average spatial batch extension              ...   2.32,  2.31,  1.91 au

Time for grid setup =    0.209 sec

------------------------------
INITIAL GUESS: MODEL POTENTIAL
------------------------------
Loading Hartree-Fock densities                     ... done
Calculating cut-offs                               ... done
Setting up the integral package                    ... done
Initializing the effective Hamiltonian             ... done
Starting the Coulomb interaction                   ... done (   0.0 sec)
Reading the grid                                   ... done
Mapping shells                                     ... done
Starting the XC term evaluation                    ... done (   0.1 sec)
  promolecular density results
     # of electrons  =     11.999511191
     EX              =    -14.209362632
     EC              =     -0.395160725
     EX+EC           =    -14.604523357
Transforming the Hamiltonian                       ... done (   0.0 sec)
Diagonalizing the Hamiltonian                      ... done (   0.0 sec)
Back transforming the eigenvectors                 ... done (   0.0 sec)
Now organizing SCF variables                       ... done
                      ------------------
                      INITIAL GUESS DONE (   0.4 sec)
                      ------------------
--------------
SCF ITERATIONS
--------------
ITER       Energy         Delta-E        Max-DP      RMS-DP      [F,P]     Damp
               ***  Starting incremental Fock matrix formation  ***
  0   -162.6924135144   0.000000000000 0.02160385  0.00045615  0.2079622 0.7000
  1   -162.7121946595  -0.019781145121 0.02242510  0.00039108  0.1282813 0.7000
                               ***Turning on DIIS***
  2   -162.7250244198  -0.012829760280 0.04133117  0.00074536  0.0590210 0.0000
  3   -162.7304992544  -0.005474834632 0.02950157  0.00039485  0.0919070 0.0000
  4   -162.7368334611  -0.006334206675 0.01019292  0.00013845  0.0519845 0.0000
  5   -162.7390278364  -0.002194375325 0.00330303  0.00006504  0.0315030 0.0000
  6   -162.7399002521  -0.000872415667 0.00277517  0.00004489  0.0190622 0.0000
  7   -162.7402487626  -0.000348510516 0.00220639  0.00003571  0.0114786 0.0000
  8   -162.7403932662  -0.000144503593 0.00141392  0.00002431  0.0065491 0.0000
  9   -162.7404435913  -0.000050325071 0.00105926  0.00001592  0.0040567 0.0000
 10   -162.7404632129  -0.000019621621 0.00063787  0.00000939  0.0027093 0.0000
 11   -162.7404717004  -0.000008487531 0.00031024  0.00000511  0.0019145 0.0000
 12   -162.7404757275  -0.000004027022 0.00014134  0.00000275  0.0013964 0.0000
 13   -162.7404777805  -0.000002053042 0.00008708  0.00000172  0.0010305 0.0000
 14   -162.7404788808  -0.000001100303 0.00025876  0.00000472  0.0007550 0.0000
 15   -162.7404801385  -0.000001257713 0.00003378  0.00000058  0.0000513 0.0000
 16   -162.7404801426  -0.000000004076 0.00001185  0.00000020  0.0000076 0.0000
 17   -162.7404801427  -0.000000000093 0.00000632  0.00000009  0.0000052 0.0000
 18   -162.7404801427  -0.000000000031 0.00000122  0.00000002  0.0000003 0.0000
                 **** Energy Check signals convergence ****

               *****************************************************
               *                     SUCCESS                       *
               *           SCF CONVERGED AFTER  19 CYCLES          *
               *****************************************************


----------------
TOTAL SCF ENERGY
----------------

Total Energy       :         -162.74048014 Eh           -4428.39360 eV

Components:
Nuclear Repulsion  :            3.08411004 Eh              83.92290 eV
Electronic Energy  :         -165.82459018 Eh           -4512.31650 eV
One Electron Energy:         -234.75046807 Eh           -6387.88499 eV
Two Electron Energy:           68.92587788 Eh            1875.56849 eV

Virial components:
Potential Energy   :         -325.29814372 Eh           -8851.81251 eV
Kinetic Energy     :          162.55766358 Eh            4423.41891 eV
Virial Ratio       :            2.00112463


DFT components:
N(Alpha)           :        6.000001251706 electrons
N(Beta)            :        6.000001251706 electrons
N(Total)           :       12.000002503412 electrons
E(X)               :      -14.260309086123 Eh       
E(C)               :       -0.399251793264 Eh       
E(XC)              :      -14.659560879387 Eh       
DFET-embed. en.    :        0.000000000000 Eh       

---------------
SCF CONVERGENCE
---------------

  Last Energy change         ...   -2.5295e-12  Tolerance :   1.0000e-09
  Last MAX-Density change    ...    6.0739e-07  Tolerance :   1.0000e-08
  Last RMS-Density change    ...    9.1219e-09  Tolerance :   1.0000e-09
  Last DIIS Error            ...    8.4053e-08  Tolerance :   1.0000e-08

             **** THE GBW FILE WAS UPDATED (nah_pbe.gbw) ****
             **** DENSITY FILE WAS UPDATED (nah_pbe.scfp.tmp) ****
             **** ENERGY FILE WAS UPDATED (nah_pbe.en.tmp) ****
----------------------
UHF SPIN CONTAMINATION
----------------------

Warning: in a DFT calculation there is little theoretical justification to 
         calculate <S**2> as in Hartree-Fock theory. We will do it anyways
         but you should keep in mind that the values have only limited relevance

Expectation value of <S**2>     :     0.000000
Ideal value S*(S+1) for S=0.0   :     0.000000
Deviation                       :     0.000000

----------------
ORBITAL ENERGIES
----------------
                 SPIN UP ORBITALS
  NO   OCC          E(Eh)            E(eV) 
   0   1.0000     -37.896394     -1031.2133 
   1   1.0000      -2.064290       -56.1722 
   2   1.0000      -1.041010       -28.3273 
   3   1.0000      -1.041010       -28.3273 
   4   1.0000      -1.037992       -28.2452 
   5   1.0000      -0.155673        -4.2361 
   6   0.0000      -0.066584        -1.8118 
   7   0.0000      -0.013823        -0.3762 
   8   0.0000      -0.013823        -0.3762 
   9   0.0000       0.001191         0.0324 
  10   0.0000       0.008754         0.2382 
  11   0.0000       0.017584         0.4785 
  12   0.0000       0.017584         0.4785 
  13   0.0000       0.023497         0.6394 
  14   0.0000       0.027338         0.7439 
  15   0.0000       0.035452         0.9647 
  16   0.0000       0.035452         0.9647 
  17   0.0000       0.035923         0.9775 
  18   0.0000       0.035923         0.9775 
  19   0.0000       0.045041         1.2256 
  20   0.0000       0.064205         1.7471 
  21   0.0000       0.070703         1.9239 
  22   0.0000       0.070703         1.9239 
  23   0.0000       0.075564         2.0562 
  24   0.0000       0.079818         2.1720 
  25   0.0000       0.079818         2.1720 
  26   0.0000       0.081729         2.2240 
  27   0.0000       0.081729         2.2240 
  28   0.0000       0.081970         2.2305 
  29   0.0000       0.081970         2.2305 
  30   0.0000       0.095349         2.5946 
  31   0.0000       0.118166         3.2154 
  32   0.0000       0.122798         3.3415 
  33   0.0000       0.122798         3.3415 
  34   0.0000       0.131492         3.5781 
  35   0.0000       0.131492         3.5781 
  36   0.0000       0.132716         3.6114 
  37   0.0000       0.132716         3.6114 
  38   0.0000       0.134295         3.6544 
  39   0.0000       0.134679         3.6648 
  40   0.0000       0.134679         3.6648 
  41   0.0000       0.135500         3.6872 
  42   0.0000       0.135500         3.6872 
  43   0.0000       0.174060         4.7364 
  44   0.0000       0.193531         5.2662 
  45   0.0000       0.193531         5.2662 
  46   0.0000       0.196800         5.3552 
  47   0.0000       0.212926         5.7940 
  48   0.0000       0.212926         5.7940 
  49   0.0000       0.250611         6.8195 
  50   0.0000       0.250611         6.8195 
  51   0.0000       0.273513         7.4427 
  52   0.0000       0.284056         7.7296 
  53   0.0000       0.326532         8.8854 
  54   0.0000       0.326532         8.8854 
  55   0.0000       0.342203         9.3118 
  56   0.0000       0.349939         9.5223 
  57   0.0000       0.349939         9.5223 
  58   0.0000       0.364392         9.9156 
  59   0.0000       0.364392         9.9156 
  60   0.0000       0.412869        11.2347 
  61   0.0000       0.412869        11.2347 
  62   0.0000       0.415821        11.3151 
  63   0.0000       0.447004        12.1636 
  64   0.0000       0.447004        12.1636 
  65   0.0000       0.502895        13.6845 
  66   0.0000       0.502895        13.6845 
  67   0.0000       0.519518        14.1368 
  68   0.0000       0.529800        14.4166 
  69   0.0000       0.529800        14.4166 
  70   0.0000       0.565962        15.4006 
  71   0.0000       0.569183        15.4883 
  72   0.0000       0.569183        15.4883 
  73   0.0000       0.586321        15.9546 
  74   0.0000       0.586321        15.9546 
  75   0.0000       0.589105        16.0304 
  76   0.0000       0.589105        16.0304 
  77   0.0000       0.624148        16.9839 
  78   0.0000       0.655541        17.8382 
  79   0.0000       0.665580        18.1114 
  80   0.0000       0.665580        18.1114 
  81   0.0000       0.827271        22.5112 
  82   0.0000       0.827271        22.5112 
  83   0.0000       0.831692        22.6315 
  84   0.0000       0.938198        25.5297 
  85   0.0000       0.938198        25.5297 
  86   0.0000       0.965597        26.2752 
  87   0.0000       0.965597        26.2752 
  88   0.0000       1.097123        29.8542 
  89   0.0000       1.097124        29.8543 
  90   0.0000       1.128014        30.6948 
  91   0.0000       1.261667        34.3317 
  92   0.0000       1.264693        34.4140 
  93   0.0000       1.264693        34.4140 
  94   0.0000       1.365106        37.1464 
  95   0.0000       1.384195        37.6659 
  96   0.0000       1.384195        37.6659 
  97   0.0000       1.413995        38.4768 
  98   0.0000       1.413995        38.4768 
  99   0.0000       1.449223        39.4354 
 100   0.0000       1.449223        39.4354 
 101   0.0000       1.460268        39.7359 
 102   0.0000       1.460268        39.7359 
 103   0.0000       1.488629        40.5077 
 104   0.0000       1.488629        40.5077 
 105   0.0000       1.515422        41.2367 
 106   0.0000       1.544240        42.0209 
 107   0.0000       1.544240        42.0209 
 108   0.0000       1.802335        49.0440 
 109   0.0000       1.834256        49.9127 
 110   0.0000       1.834256        49.9127 
 111   0.0000       2.046165        55.6790 
 112   0.0000       2.905144        79.0530 
 113   0.0000       2.905182        79.0540 
 114   0.0000       3.012120        81.9639 
 115   0.0000       3.012120        81.9639 
 116   0.0000       3.133584        85.2692 
 117   0.0000       3.344945        91.0206 
 118   0.0000       3.393792        92.3498 
 119   0.0000       3.393792        92.3498 
 120   0.0000       3.611409        98.2714 
 121   0.0000       3.611409        98.2714 
 122   0.0000       3.678853       100.1067 
 123   0.0000       3.736799       101.6835 
 124   0.0000       3.811757       103.7232 
 125   0.0000       3.811786       103.7240 
 126   0.0000       3.968655       107.9926 
 127   0.0000       3.968655       107.9926 
 128   0.0000       4.017835       109.3308 
 129   0.0000       4.017841       109.3310 
 130   0.0000       4.042083       109.9907 
 131   0.0000       4.045219       110.0760 
 132   0.0000       4.045219       110.0760 
 133   0.0000       4.186798       113.9286 
 134   0.0000       4.186798       113.9286 
 135   0.0000       4.599711       125.1645 
 136   0.0000       5.613826       152.7600 
 137   0.0000       5.613826       152.7600 
 138   0.0000       5.714331       155.4948 
 139   0.0000       5.714331       155.4948 
 140   0.0000       6.278389       170.8436 
 141   0.0000       8.324019       226.5081 
 142   0.0000       8.324019       226.5081 
 143   0.0000       8.563117       233.0143 
 144   0.0000       8.784618       239.0416 
 145   0.0000       8.784986       239.0516 
 146   0.0000       8.903974       242.2894 
 147   0.0000       8.903974       242.2894 
 148   0.0000       9.246170       251.6011 
 149   0.0000      10.281180       279.7651 
 150   0.0000      12.365381       336.4791 
 151   0.0000      12.365381       336.4791 
 152   0.0000      12.481987       339.6521 
 153   0.0000      12.482422       339.6640 
 154   0.0000      12.685105       345.1793 
 155   0.0000      12.685105       345.1793 
 156   0.0000      12.808820       348.5457 
 157   0.0000      16.886529       459.5058 
 158   0.0000      16.886644       459.5089 
 159   0.0000      16.886644       459.5089 
 160   0.0000      16.887111       459.5217 
 161   0.0000      16.887111       459.5217 
 162   0.0000      16.887212       459.5244 
 163   0.0000      16.888510       459.5597 
 164   0.0000      16.892348       459.6642 
 165   0.0000      16.898358       459.8277 
 166   0.0000      23.219269       631.8284 
 167   0.0000      23.219269       631.8284 
 168   0.0000      23.464469       638.5007 
 169   0.0000      38.520322      1048.1912 
 170   0.0000      90.911516      2473.8281 
 171   0.0000      90.911516      2473.8281 
 172   0.0000      91.086693      2478.5949 

                 SPIN DOWN ORBITALS
  NO   OCC          E(Eh)            E(eV) 
   0   1.0000     -37.896394     -1031.2133 
   1   1.0000      -2.064290       -56.1722 
   2   1.0000      -1.041010       -28.3273 
   3   1.0000      -1.041010       -28.3273 
   4   1.0000      -1.037992       -28.2452 
   5   1.0000      -0.155673        -4.2361 
   6   0.0000      -0.066584        -1.8118 
   7   0.0000      -0.013823        -0.3762 
   8   0.0000      -0.013823        -0.3762 
   9   0.0000       0.001191         0.0324 
  10   0.0000       0.008754         0.2382 
  11   0.0000       0.017584         0.4785 
  12   0.0000       0.017584         0.4785 
  13   0.0000       0.023497         0.6394 
  14   0.0000       0.027338         0.7439 
  15   0.0000       0.035452         0.9647 
  16   0.0000       0.035452         0.9647 
  17   0.0000       0.035923         0.9775 
  18   0.0000       0.035923         0.9775 
  19   0.0000       0.045041         1.2256 
  20   0.0000       0.064205         1.7471 
  21   0.0000       0.070703         1.9239 
  22   0.0000       0.070703         1.9239 
  23   0.0000       0.075564         2.0562 
  24   0.0000       0.079818         2.1720 
  25   0.0000       0.079818         2.1720 
  26   0.0000       0.081729         2.2240 
  27   0.0000       0.081729         2.2240 
  28   0.0000       0.081970         2.2305 
  29   0.0000       0.081970         2.2305 
  30   0.0000       0.095349         2.5946 
  31   0.0000       0.118166         3.2154 
  32   0.0000       0.122798         3.3415 
  33   0.0000       0.122798         3.3415 
  34   0.0000       0.131492         3.5781 
  35   0.0000       0.131492         3.5781 
  36   0.0000       0.132716         3.6114 
  37   0.0000       0.132716         3.6114 
  38   0.0000       0.134295         3.6544 
  39   0.0000       0.134679         3.6648 
  40   0.0000       0.134679         3.6648 
  41   0.0000       0.135500         3.6872 
  42   0.0000       0.135500         3.6872 
  43   0.0000       0.174060         4.7364 
  44   0.0000       0.193531         5.2662 
  45   0.0000       0.193531         5.2662 
  46   0.0000       0.196800         5.3552 
  47   0.0000       0.212926         5.7940 
  48   0.0000       0.212926         5.7940 
  49   0.0000       0.250611         6.8195 
  50   0.0000       0.250611         6.8195 
  51   0.0000       0.273513         7.4427 
  52   0.0000       0.284056         7.7296 
  53   0.0000       0.326532         8.8854 
  54   0.0000       0.326532         8.8854 
  55   0.0000       0.342203         9.3118 
  56   0.0000       0.349939         9.5223 
  57   0.0000       0.349939         9.5223 
  58   0.0000       0.364392         9.9156 
  59   0.0000       0.364392         9.9156 
  60   0.0000       0.412869        11.2347 
  61   0.0000       0.412869        11.2347 
  62   0.0000       0.415821        11.3151 
  63   0.0000       0.447004        12.1636 
  64   0.0000       0.447004        12.1636 
  65   0.0000       0.502895        13.6845 
  66   0.0000       0.502895        13.6845 
  67   0.0000       0.519518        14.1368 
  68   0.0000       0.529800        14.4166 
  69   0.0000       0.529800        14.4166 
  70   0.0000       0.565962        15.4006 
  71   0.0000       0.569183        15.4883 
  72   0.0000       0.569183        15.4883 
  73   0.0000       0.586321        15.9546 
  74   0.0000       0.586321        15.9546 
  75   0.0000       0.589105        16.0304 
  76   0.0000       0.589105        16.0304 
  77   0.0000       0.624148        16.9839 
  78   0.0000       0.655541        17.8382 
  79   0.0000       0.665580        18.1114 
  80   0.0000       0.665580        18.1114 
  81   0.0000       0.827271        22.5112 
  82   0.0000       0.827271        22.5112 
  83   0.0000       0.831692        22.6315 
  84   0.0000       0.938198        25.5297 
  85   0.0000       0.938198        25.5297 
  86   0.0000       0.965597        26.2752 
  87   0.0000       0.965597        26.2752 
  88   0.0000       1.097123        29.8542 
  89   0.0000       1.097124        29.8543 
  90   0.0000       1.128014        30.6948 
  91   0.0000       1.261667        34.3317 
  92   0.0000       1.264693        34.4140 
  93   0.0000       1.264693        34.4140 
  94   0.0000       1.365106        37.1464 
  95   0.0000       1.384195        37.6659 
  96   0.0000       1.384195        37.6659 
  97   0.0000       1.413995        38.4768 
  98   0.0000       1.413995        38.4768 
  99   0.0000       1.449223        39.4354 
 100   0.0000       1.449223        39.4354 
 101   0.0000       1.460268        39.7359 
 102   0.0000       1.460268        39.7359 
 103   0.0000       1.488629        40.5077 
 104   0.0000       1.488629        40.5077 
 105   0.0000       1.515422        41.2367 
 106   0.0000       1.544240        42.0209 
 107   0.0000       1.544240        42.0209 
 108   0.0000       1.802335        49.0440 
 109   0.0000       1.834256        49.9127 
 110   0.0000       1.834256        49.9127 
 111   0.0000       2.046165        55.6790 
 112   0.0000       2.905144        79.0530 
 113   0.0000       2.905182        79.0540 
 114   0.0000       3.012120        81.9639 
 115   0.0000       3.012120        81.9639 
 116   0.0000       3.133584        85.2692 
 117   0.0000       3.344945        91.0206 
 118   0.0000       3.393792        92.3498 
 119   0.0000       3.393792        92.3498 
 120   0.0000       3.611409        98.2714 
 121   0.0000       3.611409        98.2714 
 122   0.0000       3.678853       100.1067 
 123   0.0000       3.736799       101.6835 
 124   0.0000       3.811757       103.7232 
 125   0.0000       3.811786       103.7240 
 126   0.0000       3.968655       107.9926 
 127   0.0000       3.968655       107.9926 
 128   0.0000       4.017835       109.3308 
 129   0.0000       4.017841       109.3310 
 130   0.0000       4.042083       109.9907 
 131   0.0000       4.045219       110.0760 
 132   0.0000       4.045219       110.0760 
 133   0.0000       4.186798       113.9286 
 134   0.0000       4.186798       113.9286 
 135   0.0000       4.599711       125.1645 
 136   0.0000       5.613826       152.7600 
 137   0.0000       5.613826       152.7600 
 138   0.0000       5.714331       155.4948 
 139   0.0000       5.714331       155.4948 
 140   0.0000       6.278389       170.8436 
 141   0.0000       8.324019       226.5081 
 142   0.0000       8.324019       226.5081 
 143   0.0000       8.563117       233.0143 
 144   0.0000       8.784618       239.0416 
 145   0.0000       8.784986       239.0516 
 146   0.0000       8.903974       242.2894 
 147   0.0000       8.903974       242.2894 
 148   0.0000       9.246170       251.6011 
 149   0.0000      10.281180       279.7651 
 150   0.0000      12.365381       336.4791 
 151   0.0000      12.365381       336.4791 
 152   0.0000      12.481987       339.6521 
 153   0.0000      12.482422       339.6640 
 154   0.0000      12.685105       345.1793 
 155   0.0000      12.685105       345.1793 
 156   0.0000      12.808820       348.5457 
 157   0.0000      16.886529       459.5058 
 158   0.0000      16.886644       459.5089 
 159   0.0000      16.886644       459.5089 
 160   0.0000      16.887111       459.5217 
 161   0.0000      16.887111       459.5217 
 162   0.0000      16.887212       459.5244 
 163   0.0000      16.888510       459.5597 
 164   0.0000      16.892348       459.6642 
 165   0.0000      16.898358       459.8277 
 166   0.0000      23.219269       631.8284 
 167   0.0000      23.219269       631.8284 
 168   0.0000      23.464469       638.5007 
 169   0.0000      38.520322      1048.1912 
 170   0.0000      90.911516      2473.8281 
 171   0.0000      90.911516      2473.8281 
 172   0.0000      91.086693      2478.5949 

                    ********************************
                    * MULLIKEN POPULATION ANALYSIS *
                    ********************************

--------------------------------------------
MULLIKEN ATOMIC CHARGES AND SPIN POPULATIONS
--------------------------------------------
   0 Na:    0.626953   -0.000000
   1 H :   -0.626953    0.000000
Sum of atomic charges         :    0.0000000
Sum of atomic spin populations:    0.0000000

-----------------------------------------------------
MULLIKEN REDUCED ORBITAL CHARGES AND SPIN POPULATIONS
-----------------------------------------------------
CHARGE
  0 Nas       :     4.299298  s :     4.299298
      pz      :     2.043323  p :     6.046487
      px      :     2.001582
      py      :     2.001582
      dz2     :     0.024985  d :     0.025148
      dxz     :     0.000081
      dyz     :     0.000081
      dx2y2   :     0.000000
      dxy     :     0.000000
      f0      :     0.001905  f :     0.001906
      f+1     :     0.000001
      f-1     :     0.000001
      f+2     :    -0.000000
      f-2     :     0.000000
      f+3     :     0.000000
      f-3     :     0.000000
      g0      :     0.000208  g :     0.000208
      g+1     :     0.000000
      g-1     :     0.000000
      g+2     :     0.000000
      g-2     :     0.000000
      g+3     :     0.000000
      g-3     :     0.000000
      g+4     :     0.000000
      g-4     :     0.000000
  1 H s       :     1.609420  s :     1.609420
      pz      :     0.022762  p :     0.022095
      px      :    -0.000334
      py      :    -0.000334
      dz2     :     0.000850  d :    -0.000370
      dxz     :    -0.000610
      dyz     :    -0.000610
      dx2y2   :    -0.000000
      dxy     :     0.000000
      f0      :    -0.002088  f :    -0.003046
      f+1     :    -0.000479
      f-1     :    -0.000479
      f+2     :     0.000000
      f-2     :     0.000000
      f+3     :     0.000000
      f-3     :     0.000000
      g0      :    -0.000663  g :    -0.001146
      g+1     :    -0.000242
      g-1     :    -0.000242
      g+2     :     0.000000
      g-2     :     0.000000
      g+3     :     0.000000
      g-3     :     0.000000
      g+4     :     0.000000
      g-4     :    -0.000000

SPIN
  0 Nas       :    -0.000000  s :    -0.000000
      pz      :    -0.000000  p :    -0.000000
      px      :    -0.000000
      py      :    -0.000000
      dz2     :    -0.000000  d :    -0.000000
      dxz     :     0.000000
      dyz     :     0.000000
      dx2y2   :     0.000000
      dxy     :     0.000000
      f0      :     0.000000  f :     0.000000
      f+1     :    -0.000000
      f-1     :    -0.000000
      f+2     :    -0.000000
      f-2     :     0.000000
      f+3     :    -0.000000
      f-3     :     0.000000
      g0      :     0.000000  g :     0.000000
      g+1     :    -0.000000
      g-1     :     0.000000
      g+2     :    -0.000000
      g-2     :    -0.000000
      g+3     :     0.000000
      g-3     :     0.000000
      g+4     :     0.000000
      g-4     :     0.000000
  1 H s       :     0.000000  s :     0.000000
      pz      :     0.000000  p :     0.000000
      px      :     0.000000
      py      :     0.000000
      dz2     :     0.000000  d :     0.000000
      dxz     :     0.000000
      dyz     :     0.000000
      dx2y2   :     0.000000
      dxy     :    -0.000000
      f0      :     0.000000  f :     0.000000
      f+1     :     0.000000
      f-1     :     0.000000
      f+2     :    -0.000000
      f-2     :    -0.000000
      f+3     :     0.000000
      f-3     :    -0.000000
      g0      :     0.000000  g :     0.000000
      g+1     :     0.000000
      g-1     :     0.000000
      g+2     :    -0.000000
      g-2     :     0.000000
      g+3     :    -0.000000
      g-3     :     0.000000
      g+4     :    -0.000000
      g-4     :    -0.000000


                     *******************************
                     * LOEWDIN POPULATION ANALYSIS *
                     *******************************

-------------------------------------------
LOEWDIN ATOMIC CHARGES AND SPIN POPULATIONS
-------------------------------------------
   0 Na:    0.692163   -0.000000
   1 H :   -0.692163    0.000000

----------------------------------------------------
LOEWDIN REDUCED ORBITAL CHARGES AND SPIN POPULATIONS
----------------------------------------------------
CHARGE
  0 Nas       :     4.193113  s :     4.193113
      pz      :     2.100733  p :     6.034665
      px      :     1.966966
      py      :     1.966966
      dz2     :     0.061262  d :     0.061685
      dxz     :     0.000212
      dyz     :     0.000212
      dx2y2   :     0.000000
      dxy     :     0.000000
      f0      :     0.013983  f :     0.014014
      f+1     :     0.000016
      f-1     :     0.000016
      f+2     :     0.000000
      f-2     :     0.000000
      f+3     :     0.000000
      f-3     :     0.000000
      g0      :     0.004332  g :     0.004360
      g+1     :     0.000014
      g-1     :     0.000014
      g+2     :     0.000000
      g-2     :     0.000000
      g+3     :     0.000000
      g-3     :     0.000000
      g+4     :     0.000000
      g-4     :     0.000000
  1 H s       :     1.296252  s :     1.296252
      pz      :     0.094060  p :     0.097063
      px      :     0.001501
      py      :     0.001501
      dz2     :     0.112924  d :     0.125300
      dxz     :     0.006188
      dyz     :     0.006188
      dx2y2   :     0.000000
      dxy     :     0.000000
      f0      :     0.071000  f :     0.091264
      f+1     :     0.010132
      f-1     :     0.010132
      f+2     :     0.000000
      f-2     :     0.000000
      f+3     :     0.000000
      f-3     :     0.000000
      g0      :     0.052340  g :     0.082285
      g+1     :     0.014972
      g-1     :     0.014972
      g+2     :     0.000000
      g-2     :     0.000000
      g+3     :     0.000000
      g-3     :     0.000000
      g+4     :     0.000000
      g-4     :     0.000000

SPIN
  0 Nas       :    -0.000000  s :    -0.000000
      pz      :     0.000000  p :     0.000000
      px      :     0.000000
      py      :     0.000000
      dz2     :     0.000000  d :     0.000000
      dxz     :     0.000000
      dyz     :    -0.000000
      dx2y2   :     0.000000
      dxy     :     0.000000
      f0      :     0.000000  f :     0.000000
      f+1     :    -0.000000
      f-1     :    -0.000000
      f+2     :    -0.000000
      f-2     :     0.000000
      f+3     :    -0.000000
      f-3     :     0.000000
      g0      :     0.000000  g :     0.000000
      g+1     :     0.000000
      g-1     :     0.000000
      g+2     :    -0.000000
      g-2     :    -0.000000
      g+3     :     0.000000
      g-3     :     0.000000
      g+4     :     0.000000
      g-4     :     0.000000
  1 H s       :     0.000000  s :     0.000000
      pz      :     0.000000  p :     0.000000
      px      :    -0.000000
      py      :    -0.000000
      dz2     :     0.000000  d :     0.000000
      dxz     :    -0.000000
      dyz     :     0.000000
      dx2y2   :     0.000000
      dxy     :    -0.000000
      f0      :    -0.000000  f :    -0.000000
      f+1     :     0.000000
      f-1     :     0.000000
      f+2     :     0.000000
      f-2     :     0.000000
      f+3     :     0.000000
      f-3     :    -0.000000
      g0      :     0.000000  g :     0.000000
      g+1     :    -0.000000
      g-1     :     0.000000
      g+2     :    -0.000000
      g-2     :     0.000000
      g+3     :    -0.000000
      g-3     :     0.000000
      g+4     :    -0.000000
      g-4     :    -0.000000


                      *****************************
                      * MAYER POPULATION ANALYSIS *
                      *****************************

  NA   - Mulliken gross atomic population
  ZA   - Total nuclear charge
  QA   - Mulliken gross atomic charge
  VA   - Mayer's total valence
  BVA  - Mayer's bonded valence
  FA   - Mayer's free valence

  ATOM       NA         ZA         QA         VA         BVA        FA
  0 Na    10.3730    11.0000     0.6270     0.6219     0.6219     0.0000
  1 H      1.6270     1.0000    -0.6270     0.6219     0.6219     0.0000

  Mayer bond orders larger than 0.1
B(  0-Na,  1-H ) :   0.6219 

-------
TIMINGS
-------

Total SCF time: 0 days 0 hours 1 min 3 sec 

Total time                  ....      63.487 sec
Sum of individual times     ....      62.749 sec  ( 98.8%)

Fock matrix formation       ....      61.207 sec  ( 96.4%)
  XC integration            ....       5.172 sec  (  8.5% of F)
    Basis function eval.    ....       0.423 sec  (  8.2% of XC)
    Density eval.           ....       0.659 sec  ( 12.7% of XC)
    XC-Functional eval.     ....       0.148 sec  (  2.9% of XC)
    XC-Potential eval.      ....       1.966 sec  ( 38.0% of XC)
Diagonalization             ....       0.363 sec  (  0.6%)
Density matrix formation    ....       0.008 sec  (  0.0%)
Population analysis         ....       0.527 sec  (  0.8%)
Initial guess               ....       0.204 sec  (  0.3%)
Orbital Transformation      ....       0.000 sec  (  0.0%)
Orbital Orthonormalization  ....       0.000 sec  (  0.0%)
DIIS solution               ....       0.231 sec  (  0.4%)
Grid generation             ....       0.209 sec  (  0.3%)

-------------------------   --------------------
FINAL SINGLE POINT ENERGY      -162.740480142715
-------------------------   --------------------


                            ***************************************
                            *     ORCA property calculations      *
                            ***************************************

                                    ---------------------
                                    Active property flags
                                    ---------------------
   (+) Dipole Moment
   (+) Polarizability


------------------------------------------------------------------------------
                       ORCA ELECTRIC PROPERTIES CALCULATION
------------------------------------------------------------------------------

Dipole Moment Calculation                       ... on
Quadrupole Moment Calculation                   ... off
Polarizability Calculation                      ... Analytic (CP-SCF)
GBWName                                         ... nah_pbe.gbw
Electron density file                           ... nah_pbe.scfp.tmp
The origin for moment calculation is the CENTER OF MASS  = ( 0.000000,  0.000000  0.149813)

-------------
DIPOLE MOMENT
-------------
                                X             Y             Z
Electronic contribution:      0.00000       0.00000      -4.03358
Nuclear contribution   :      0.00000       0.00000       1.76892
                        -----------------------------------------
Total Dipole Moment    :      0.00000       0.00000      -2.26467
                        -----------------------------------------
Magnitude (a.u.)       :      2.26467
Magnitude (Debye)      :      5.75632



--------------------
Rotational spectrum 
--------------------
 
Rotational constants in cm-1:     0.000000     4.900547     4.900547 
Rotational constants in MHz :     0.000000 146914.698482 146914.698482 

 Dipole components along the rotational axes: 
x,y,z [a.u.] :    -2.264665     0.000000     0.000000 
x,y,z [Debye]:    -5.756322     0.000000     0.000000 

 
Transforming and storing MO dipole integrals   ... done

                ... starting polarizability calculation

Opening the Dipole integral file               ... (nah_pbe.dmo.tmp) done
Reading Dipole-MO integrals                    ... done
Solving CP-SCF equations                       ... 

           ************************************************************
           *        Program running with 4 parallel MPI-processes     *
           *              working on a common directory               *
           ************************************************************

------------------------------------------------------------------------------
                           ORCA CP-SCF CALCULATION
------------------------------------------------------------------------------

Input orbitals are from        ... nah_pbe.gbw
Input Perturbation             ... nah_pbe.cpv.tmp
Wavefunction output            ... nah_pbe.cpu.tmp
Perturbation mode              ... Real perturbation (singlet)
Solver                         ... POPLE
Max. number of iterations      ... 200
Convergence tolerance          ... 1.000e-06
Integral handling              ... Direct
Number of perturbations        ... 3
Number of operators            ... 2
Orbital ranges used for CP-SCF:
 Operator 0:  Orbitals   0...  5  to   6...172
 Operator 1:  Orbitals   0...  5  to   6...172
DFT calculation                         ... on
Exchange functional (SCF)               ... PBE
Exchange functional (CP-SCF)            ... PBE
   PBE kappa parameter  XKappa (SCF)    ...  0.804000
   PBE kappa parameter  XKappa (CP-SCF) ...  0.804000
   PBE mue parameter   XMuePBE (SCF)    ...  0.219520
   PBE mue parameter   XMuePBE (CP-SCF) ...  0.219520
Correlation functional (SCF)            ... PBE
Correlation functional (CP-SCF)         ... PBE
   PBE beta parameter CBetaPBE (SCF)    ...  0.066725
   PBE beta parameter CBetaPBE (CP-SCF) ...  0.066725
 LDA part of GGA corr.  LDAOpt (SCF)    ... PW91-LDA
 LDA part of GGA corr.  LDAOpt (CP-SCF) ... PW91-LDA
Variables per vector in CP-SCF ... 2004
Number of vectors sought       ... 3
Recalculating density on grid  ... done
Calculating the xc-kernel      ... done
     CP-SCF ITERATION   0: 
     CP-SCF ITERATION   1:      0.398111893211
     CP-SCF ITERATION   2:      0.001728414482
     CP-SCF ITERATION   3:      0.000048099390
     CP-SCF ITERATION   4:      0.000001821423
     CP-SCF ITERATION   5:      0.000000194851
done
Reading CP-SCF coefficients                    ... done
Doing the polarizability tensor   ... done
Cleaning up                                    ... done

-------------------------
THE POLARIZABILITY TENSOR
-------------------------

The raw cartesian tensor (atomic units):
   41.40012     -0.00000     -0.00000  
   -0.00000     41.40012     -0.00000  
   -0.00000     -0.00000     62.81696  
diagonalized tensor: 
   41.40012     41.40012     62.81696  

   -0.08817     -0.99611     -0.00000  
   -0.99611      0.08817     -0.00000  
   -0.00000     -0.00000      1.00000  

Isotropic polarizability :  48.53907


Timings for individual modules:

Sum of individual times         ...      119.902 sec (=   1.998 min)
GTO integral calculation        ...        8.940 sec (=   0.149 min)   7.5 %
SCF iterations                  ...       71.636 sec (=   1.194 min)  59.7 %
Solution of CP-SCF eqns.        ...       39.326 sec (=   0.655 min)  32.8 %
                             ****ORCA TERMINATED NORMALLY****
TOTAL RUN TIME: 0 days 0 hours 2 minutes 5 seconds 968 msec
