
                                 *****************
                                 * O   R   C   A *
                                 *****************

           --- An Ab Initio, DFT and Semiempirical electronic structure package ---

                  #######################################################
                  #                        -***-                        #
                  #          Department of theory and spectroscopy      #
                  #               Directorship: Frank Neese             #
                  #        Max Planck Institute fuer Kohlenforschung    #
                  #                Kaiser Wilhelm Platz 1               #
                  #                 D-45470 Muelheim/Ruhr               #
                  #                      Germany                        #
                  #                                                     #
                  #                  All rights reserved                #
                  #                        -***-                        #
                  #######################################################


                         Program Version 4.1.2  - RELEASE  -


 With contributions from (in alphabetic order):
   Daniel Aravena         : Magnetic Properties
   Michael Atanasov       : Ab Initio Ligand Field Theory
   Alexander A. Auer      : GIAO ZORA
   Ute Becker             : Parallelization
   Giovanni Bistoni       : ED, Open-shell LED
   Martin Brehm           : Molecular dynamics
   Dmytro Bykov           : SCF Hessian
   Vijay G. Chilkuri      : MRCI spin determinant printing
   Dipayan Datta          : RHF DLPNO-CCSD density
   Achintya Kumar Dutta   : EOM-CC, STEOM-CC
   Dmitry Ganyushin       : Spin-Orbit,Spin-Spin,Magnetic field MRCI
   Miquel Garcia          : C-PCM Hessian
   Yang Guo               : DLPNO-NEVPT2, CIM, IAO-localization
   Andreas Hansen         : Spin unrestricted coupled pair/coupled cluster methods
   Benjamin Helmich-Paris : CASSCF linear response (MC-RPA)
   Lee Huntington         : MR-EOM, pCC
   Robert Izsak           : Overlap fitted RIJCOSX, COSX-SCS-MP3, EOM
   Christian Kollmar      : KDIIS, OOCD, Brueckner-CCSD(T), CCSD density
   Simone Kossmann        : Meta GGA functionals, TD-DFT gradient, OOMP2, MP2 Hessian
   Martin Krupicka        : AUTO-CI
   Lucas Lang             : DCDCAS
   Dagmar Lenk            : GEPOL surface, SMD
   Dimitrios Liakos       : Extrapolation schemes; parallel MDCI
   Dimitrios Manganas     : ROCIS; embedding schemes
   Dimitrios Pantazis     : SARC Basis sets
   Taras Petrenko         : DFT Hessian,TD-DFT gradient, ASA, ECA, R-Raman, ABS, FL, XAS/XES, NRVS
   Peter Pinski           : DLPNO-MP2, DLPNO-MP2 Gradient
   Christoph Reimann      : Effective Core Potentials
   Marius Retegan         : Local ZFS, SOC
   Christoph Riplinger    : Optimizer, TS searches, QM/MM, DLPNO-CCSD(T), (RO)-DLPNO pert. Triples
   Tobias Risthaus        : Range-separated hybrids, TD-DFT gradient, RPA, STAB
   Michael Roemelt        : Restricted open shell CIS
   Masaaki Saitow         : Open-shell DLPNO
   Barbara Sandhoefer     : DKH picture change effects
   Avijit Sen             : IP-ROCIS
   Kantharuban Sivalingam : CASSCF convergence, NEVPT2, FIC-MRCI
   Bernardo de Souza      : ESD, SOC TD-DFT
   Georgi Stoychev        : AutoAux, RI-MP2 NMR
   Willem Van den Heuvel  : Paramagnetic NMR
   Boris Wezisla          : Elementary symmetry handling
   Frank Wennmohs         : Technical directorship


 We gratefully acknowledge several colleagues who have allowed us to
 interface, adapt or use parts of their codes:
   Stefan Grimme, W. Hujo, H. Kruse,             : VdW corrections, initial TS optimization,
                  C. Bannwarth                     DFT functionals, gCP, sTDA/sTD-DF
   Ed Valeev                                     : LibInt (2-el integral package), F12 methods
   Garnet Chan, S. Sharma, J. Yang, R. Olivares  : DMRG
   Ulf Ekstrom                                   : XCFun DFT Library
   Mihaly Kallay                                 : mrcc  (arbitrary order and MRCC methods)
   Andreas Klamt, Michael Diedenhofen            : otool_cosmo (COSMO solvation model)
   Jiri Pittner, Ondrej Demel                    : Mk-CCSD
   Frank Weinhold                                : gennbo (NPA and NBO analysis)
   Christopher J. Cramer and Donald G. Truhlar   : smd solvation model
   Lars Goerigk                                  : TD-DFT with DH, B97 family of functionals
   V. Asgeirsson, H. Jonsson                     : NEB implementation
   FAccTs GmbH                                   : IRC, NEB, NEB-TS, Multilevel


 Your calculation uses the libint2 library for the computation of 2-el integrals
 For citations please refer to: http://libint.valeyev.net

 This ORCA versions uses:
   CBLAS   interface :  Fast vector & matrix operations
   LAPACKE interface :  Fast linear algebra routines
   SCALAPACK package :  Parallel linear algebra routines


----- Orbital basis set information -----
Your calculation utilizes the basis: aug-pc-4
   H, C-F              : F. Jensen, J. Chem. Phys. 115, 9113 (2001).
                         F. Jensen, J. Chem. Phys. 116, 7372 (2002).
                         F. Jensen, J. Chem. Phys. 117, 9234 (2002).
   Si-Cl               : F. Jensen, T. Helgaker, J. Chem. Phys. 121, 3463 (2004).
   He-B, Ne-Mg, Al, Ar : F. Jensen, J. Phys. Chem. A 111, 11198 (2007).
   K, Ca, Ga-Kr        : F. Jensen, J. Chem. Phys. 136, 094110 (2012).
   Sc-Zn               : F. Jensen, J. Chem. Phys. 138, 014107 (2013).

================================================================================
                                        WARNINGS
                       Please study these warnings very carefully!
================================================================================


INFO   : the flag for use of LIBINT has been found!

================================================================================
                                       INPUT FILE
================================================================================
NAME = nco_pbe.inp
|  1> !uks pbe nori aug-pc-4 grid5 nofinalgrid verytightscf
|  2> 
|  3> %maxcore 1500
|  4> 
|  5> %pal nprocs 4 end
|  6> 
|  7> %scf
|  8> 	maxiter 200
|  9> end
| 10> %elprop
| 11> 	dipole true
| 12> 	 polar 1
| 13> 	 maxiter 200
| 14> end
| 15> 
| 16> * xyz 0 2
| 17> N 0.0000002327 -0.0000000061 -1.2737003115
| 18> C -0.0000004964 0.0000000123 -0.0271008600
| 19> O 0.0000002638 -0.0000000061 1.1312011715
| 20> *
| 21> 
| 22>                          ****END OF INPUT****
================================================================================

                       ****************************
                       * Single Point Calculation *
                       ****************************

---------------------------------
CARTESIAN COORDINATES (ANGSTROEM)
---------------------------------
  N      0.000000   -0.000000   -1.273700
  C     -0.000000    0.000000   -0.027101
  O      0.000000   -0.000000    1.131201

----------------------------
CARTESIAN COORDINATES (A.U.)
----------------------------
  NO LB      ZA    FRAG     MASS         X           Y           Z
   0 N     7.0000    0    14.007    0.000000   -0.000000   -2.406945
   1 C     6.0000    0    12.011   -0.000001    0.000000   -0.051213
   2 O     8.0000    0    15.999    0.000000   -0.000000    2.137660

--------------------------------
INTERNAL COORDINATES (ANGSTROEM)
--------------------------------
 N      0   0   0     0.000000000000     0.00000000     0.00000000
 C      1   0   0     1.246599451500     0.00000000     0.00000000
 O      2   1   0     1.158302031500   179.99992886     0.00000000

---------------------------
INTERNAL COORDINATES (A.U.)
---------------------------
 N      0   0   0     0.000000000000     0.00000000     0.00000000
 C      1   0   0     2.355731562032     0.00000000     0.00000000
 O      2   1   0     2.188873619900   179.99992886     0.00000000

---------------------
BASIS SET INFORMATION
---------------------
There are 3 groups of distinct atoms

 Group   1 Type N   : 27s12p7d4f3g2h contracted to 9s8p7d4f3g2h pattern {1191111111/51111111/1111111/1111/111/11}
 Group   2 Type C   : 28s12p7d4f3g2h contracted to 9s8p7d4f3g2h pattern {11101111111/51111111/1111111/1111/111/11}
 Group   3 Type O   : 27s12p7d4f3g2h contracted to 9s8p7d4f3g2h pattern {1191111111/51111111/1111111/1111/111/11}

Atom   0N    basis set group =>   1
Atom   1C    basis set group =>   2
Atom   2O    basis set group =>   3


           ************************************************************
           *        Program running with 4 parallel MPI-processes     *
           *              working on a common directory               *
           ************************************************************
------------------------------------------------------------------------------
                           ORCA GTO INTEGRAL CALCULATION
------------------------------------------------------------------------------

                         BASIS SET STATISTICS AND STARTUP INFO

 # of primitive gaussian shells          ...  166
 # of primitive gaussian functions       ...  526
 # of contracted shells                  ...   99
 # of contracted basis functions         ...  435
 Highest angular momentum                ...    5
 Maximum contraction depth               ...   11
 Integral package used                   ... LIBINT
 Integral threshhold            Thresh   ...  1.000e-12
 Primitive cut-off              TCut     ...  1.000e-14


------------------------------ INTEGRAL EVALUATION ----------------------------


 * One electron integrals 
 Pre-screening matrix                    ... done
 Shell pair data                         ... done (   0.002 sec)



           ************************************************************
           *        Program running with 4 parallel MPI-processes     *
           *              working on a common directory               *
           ************************************************************
-------------------------------------------------------------------------------
                                 ORCA SCF
-------------------------------------------------------------------------------

------------
SCF SETTINGS
------------
Hamiltonian:
 Density Functional     Method          .... DFT(GTOs)
 Exchange Functional    Exchange        .... PBE
   PBE kappa parameter   XKappa         ....  0.804000
   PBE mue parameter    XMuePBE         ....  0.219520
 Correlation Functional Correlation     .... PBE
   PBE beta parameter  CBetaPBE         ....  0.066725
 LDA part of GGA corr.  LDAOpt          .... PW91-LDA
 Gradients option       PostSCFGGA      .... off
   Density functional embedding theory  .... OFF
   NL short-range parameter             ....  6.400000


General Settings:
 Integral files         IntName         .... nco_pbe
 Hartree-Fock type      HFTyp           .... UHF
 Total Charge           Charge          ....    0
 Multiplicity           Mult            ....    2
 Number of Electrons    NEL             ....   21
 Basis Dimension        Dim             ....  435
 Nuclear Repulsion      ENuc            ....     52.0802460375 Eh

Convergence Acceleration:
 DIIS                   CNVDIIS         .... on
   Start iteration      DIISMaxIt       ....    12
   Startup error        DIISStart       ....  0.200000
   # of expansion vecs  DIISMaxEq       ....     5
   Bias factor          DIISBfac        ....   1.050
   Max. coefficient     DIISMaxC        ....  10.000
 Newton-Raphson         CNVNR           .... off
 SOSCF                  CNVSOSCF        .... off
 Level Shifting         CNVShift        .... on
   Level shift para.    LevelShift      ....    0.2500
   Turn off err/grad.   ShiftErr        ....    0.0010
 Zerner damping         CNVZerner       .... off
 Static damping         CNVDamp         .... on
   Fraction old density DampFac         ....    0.7000
   Max. Damping (<1)    DampMax         ....    0.9800
   Min. Damping (>=0)   DampMin         ....    0.0000
   Turn off err/grad.   DampErr         ....    0.1000
 Fernandez-Rico         CNVRico         .... off

SCF Procedure:
 Maximum # iterations   MaxIter         ....   200
 SCF integral mode      SCFMode         .... Direct
   Integral package                     .... LIBINT
 Reset frequency        DirectResetFreq ....    20
 Integral Threshold     Thresh          ....  1.000e-12 Eh
 Primitive CutOff       TCut            ....  1.000e-14 Eh

Convergence Tolerance:
 Convergence Check Mode ConvCheckMode   .... Total+1el-Energy
 Convergence forced     ConvForced      .... 0
 Energy Change          TolE            ....  1.000e-09 Eh
 1-El. energy change                    ....  1.000e-06 Eh
 DIIS Error             TolErr          ....  1.000e-08


Diagonalization of the overlap matrix:
Smallest eigenvalue                        ... 2.391e-07
Time for diagonalization                   ...    0.087 sec
Threshold for overlap eigenvalues          ... 1.000e-08
Number of eigenvalues below threshold      ... 0
Time for construction of square roots      ...    0.062 sec
Total time needed                          ...    0.149 sec

-------------------
DFT GRID GENERATION
-------------------

General Integration Accuracy     IntAcc      ...  5.010
Radial Grid Type                 RadialGrid  ... Gauss-Chebyshev
Angular Grid (max. acc.)         AngularGrid ... Lebedev-434
Angular grid pruning method      GridPruning ... 3 (G Style)
Weight generation scheme         WeightScheme... Becke
Basis function cutoff            BFCut       ...    1.0000e-12
Integration weight cutoff        WCut        ...    1.0000e-14
Grids for H and He will be reduced by one unit

# of grid points (after initial pruning)     ...  32130 (   0.0 sec)
# of grid points (after weights+screening)   ...  31755 (   0.0 sec)
nearest neighbour list constructed           ...    0.0 sec
Grid point re-assignment to atoms done       ...    0.0 sec
Grid point division into batches done        ...    0.3 sec
Reduced shell lists constructed in    0.4 sec

Total number of grid points                  ...    31755
Total number of batches                      ...      498
Average number of points per batch           ...       63
Average number of grid points per atom       ...    10585
Average number of shells per batch           ...    60.71 (61.33%)
Average number of basis functions per batch  ...   276.63 (63.59%)
Average number of large shells per batch     ...    51.83 (85.36%)
Average number of large basis fcns per batch ...   236.84 (85.62%)
Maximum spatial batch extension              ...  16.29, 16.27, 15.28 au
Average spatial batch extension              ...   1.31,  1.27,  1.10 au

Time for grid setup =    0.496 sec

------------------------------
INITIAL GUESS: MODEL POTENTIAL
------------------------------
Loading Hartree-Fock densities                     ... done
Calculating cut-offs                               ... done
Setting up the integral package                    ... done
Initializing the effective Hamiltonian             ... done
Starting the Coulomb interaction                   ... done (   0.0 sec)
Reading the grid                                   ... done
Mapping shells                                     ... done
Starting the XC term evaluation                    ... done (   0.8 sec)
  promolecular density results
     # of electrons  =     20.999998881
     EX              =    -19.698696880
     EC              =     -0.682616212
     EX+EC           =    -20.381313092
Transforming the Hamiltonian                       ... done (   0.0 sec)
Diagonalizing the Hamiltonian                      ... done (   0.0 sec)
Back transforming the eigenvectors                 ... done (   0.0 sec)
Now organizing SCF variables                       ... done
                      ------------------
                      INITIAL GUESS DONE (   1.5 sec)
                      ------------------
--------------
SCF ITERATIONS
--------------
ITER       Energy         Delta-E        Max-DP      RMS-DP      [F,P]     Damp
               ***  Starting incremental Fock matrix formation  ***
  0   -167.8478176484   0.000000000000 0.01353411  0.00012955  0.1676522 0.7000
  1   -167.8780357715  -0.030218123097 0.00724235  0.00007712  0.0565969 0.7000
                               ***Turning on DIIS***
  2   -167.8858297660  -0.007793994536 0.01074381  0.00011697  0.0223642 0.0000
  3   -167.9038658655  -0.018036099434 0.00368189  0.00004809  0.0352348 0.0000
  4   -167.9057254970  -0.001859631530 0.00344321  0.00001923  0.0170582 0.0000
  5   -167.9062949039  -0.000569406906 0.00091381  0.00000688  0.0052232 0.0000
  6   -167.9063381986  -0.000043294663 0.00021823  0.00000294  0.0033917 0.0000
  7   -167.9063553618  -0.000017163205 0.00022284  0.00000235  0.0006126 0.0000
  8   -167.9063585437  -0.000003181938 0.00009371  0.00000084  0.0002705 0.0000
  9   -167.9063589624  -0.000000418735 0.00003862  0.00000038  0.0001182 0.0000
 10   -167.9063590318  -0.000000069335 0.00001189  0.00000013  0.0000387 0.0000
 11   -167.9063590413  -0.000000009557 0.00000645  0.00000006  0.0000068 0.0000
 12   -167.9063590427  -0.000000001373 0.00000169  0.00000002  0.0000025 0.0000
 13   -167.9063590428  -0.000000000142 0.00000337  0.00000003  0.0000020 0.0000
 14   -167.9063590429  -0.000000000081 0.00000287  0.00000003  0.0000005 0.0000
                 **** Energy Check signals convergence ****

               *****************************************************
               *                     SUCCESS                       *
               *           SCF CONVERGED AFTER  15 CYCLES          *
               *****************************************************


----------------
TOTAL SCF ENERGY
----------------

Total Energy       :         -167.90635904 Eh           -4568.96431 eV

Components:
Nuclear Repulsion  :           52.08024604 Eh            1417.17554 eV
Electronic Energy  :         -219.98660508 Eh           -5986.13985 eV
One Electron Energy:         -330.94676487 Eh           -9005.51930 eV
Two Electron Energy:          110.96015979 Eh            3019.37945 eV

Virial components:
Potential Energy   :         -335.31808015 Eh           -9124.46884 eV
Kinetic Energy     :          167.41172110 Eh            4555.50453 eV
Virial Ratio       :            2.00295462


DFT components:
N(Alpha)           :       10.999999448517 electrons
N(Beta)            :        9.999999458460 electrons
N(Total)           :       20.999998906976 electrons
E(X)               :      -19.934842219531 Eh       
E(C)               :       -0.685567987879 Eh       
E(XC)              :      -20.620410207409 Eh       
DFET-embed. en.    :        0.000000000000 Eh       

---------------
SCF CONVERGENCE
---------------

  Last Energy change         ...   -3.6096e-12  Tolerance :   1.0000e-09
  Last MAX-Density change    ...    5.0457e-06  Tolerance :   1.0000e-08
  Last RMS-Density change    ...    4.5172e-08  Tolerance :   1.0000e-09
  Last DIIS Error            ...    1.4737e-07  Tolerance :   1.0000e-08

             **** THE GBW FILE WAS UPDATED (nco_pbe.gbw) ****
             **** DENSITY FILE WAS UPDATED (nco_pbe.scfp.tmp) ****
             **** ENERGY FILE WAS UPDATED (nco_pbe.en.tmp) ****
----------------------
UHF SPIN CONTAMINATION
----------------------

Warning: in a DFT calculation there is little theoretical justification to 
         calculate <S**2> as in Hartree-Fock theory. We will do it anyways
         but you should keep in mind that the values have only limited relevance

Expectation value of <S**2>     :     0.755248
Ideal value S*(S+1) for S=0.5   :     0.750000
Deviation                       :     0.005248

----------------
ORBITAL ENERGIES
----------------
                 SPIN UP ORBITALS
  NO   OCC          E(Eh)            E(eV) 
   0   1.0000     -18.864506      -513.3293 
   1   1.0000     -14.063361      -382.6835 
   2   1.0000     -10.036600      -273.1098 
   3   1.0000      -1.082216       -29.4486 
   4   1.0000      -0.875877       -23.8338 
   5   1.0000      -0.512363       -13.9421 
   6   1.0000      -0.474737       -12.9182 
   7   1.0000      -0.453130       -12.3303 
   8   1.0000      -0.388581       -10.5738 
   9   1.0000      -0.328400        -8.9362 
  10   1.0000      -0.290445        -7.9034 
  11   0.0000      -0.029984        -0.8159 
  12   0.0000      -0.029316        -0.7977 
  13   0.0000      -0.007060        -0.1921 
  14   0.0000       0.014493         0.3944 
  15   0.0000       0.015983         0.4349 
  16   0.0000       0.016569         0.4509 
  17   0.0000       0.035829         0.9750 
  18   0.0000       0.049635         1.3506 
  19   0.0000       0.050504         1.3743 
  20   0.0000       0.056965         1.5501 
  21   0.0000       0.058985         1.6051 
  22   0.0000       0.060927         1.6579 
  23   0.0000       0.062958         1.7132 
  24   0.0000       0.080864         2.2004 
  25   0.0000       0.080938         2.2024 
  26   0.0000       0.092331         2.5125 
  27   0.0000       0.104918         2.8550 
  28   0.0000       0.106054         2.8859 
  29   0.0000       0.113839         3.0977 
  30   0.0000       0.134126         3.6498 
  31   0.0000       0.136586         3.7167 
  32   0.0000       0.152363         4.1460 
  33   0.0000       0.160501         4.3675 
  34   0.0000       0.160506         4.3676 
  35   0.0000       0.164235         4.4691 
  36   0.0000       0.180546         4.9129 
  37   0.0000       0.183070         4.9816 
  38   0.0000       0.183179         4.9846 
  39   0.0000       0.184076         5.0090 
  40   0.0000       0.206368         5.6155 
  41   0.0000       0.206491         5.6189 
  42   0.0000       0.211284         5.7493 
  43   0.0000       0.216441         5.8897 
  44   0.0000       0.220810         6.0085 
  45   0.0000       0.221711         6.0331 
  46   0.0000       0.244808         6.6616 
  47   0.0000       0.247370         6.7313 
  48   0.0000       0.250761         6.8236 
  49   0.0000       0.269725         7.3396 
  50   0.0000       0.269748         7.3402 
  51   0.0000       0.294230         8.0064 
  52   0.0000       0.300799         8.1851 
  53   0.0000       0.304248         8.2790 
  54   0.0000       0.304618         8.2891 
  55   0.0000       0.325335         8.8528 
  56   0.0000       0.325338         8.8529 
  57   0.0000       0.332617         9.0510 
  58   0.0000       0.332626         9.0512 
  59   0.0000       0.333325         9.0702 
  60   0.0000       0.334863         9.1121 
  61   0.0000       0.343747         9.3538 
  62   0.0000       0.345537         9.4025 
  63   0.0000       0.345537         9.4025 
  64   0.0000       0.365613         9.9488 
  65   0.0000       0.365675         9.9505 
  66   0.0000       0.422955        11.5092 
  67   0.0000       0.422970        11.5096 
  68   0.0000       0.429069        11.6756 
  69   0.0000       0.434664        11.8278 
  70   0.0000       0.434871        11.8334 
  71   0.0000       0.443984        12.0814 
  72   0.0000       0.448359        12.2005 
  73   0.0000       0.448758        12.2113 
  74   0.0000       0.461964        12.5707 
  75   0.0000       0.465671        12.6715 
  76   0.0000       0.469623        12.7791 
  77   0.0000       0.486468        13.2375 
  78   0.0000       0.486680        13.2432 
  79   0.0000       0.487610        13.2685 
  80   0.0000       0.487610        13.2686 
  81   0.0000       0.489954        13.3323 
  82   0.0000       0.496695        13.5158 
  83   0.0000       0.498800        13.5730 
  84   0.0000       0.521937        14.2026 
  85   0.0000       0.522003        14.2044 
  86   0.0000       0.529103        14.3976 
  87   0.0000       0.529103        14.3976 
  88   0.0000       0.548926        14.9370 
  89   0.0000       0.548926        14.9370 
  90   0.0000       0.564700        15.3663 
  91   0.0000       0.583867        15.8878 
  92   0.0000       0.590297        16.0628 
  93   0.0000       0.615685        16.7536 
  94   0.0000       0.623578        16.9684 
  95   0.0000       0.623581        16.9685 
  96   0.0000       0.634498        17.2656 
  97   0.0000       0.634567        17.2674 
  98   0.0000       0.653283        17.7767 
  99   0.0000       0.657452        17.8902 
 100   0.0000       0.657846        17.9009 
 101   0.0000       0.660811        17.9816 
 102   0.0000       0.662767        18.0348 
 103   0.0000       0.689477        18.7616 
 104   0.0000       0.724093        19.7036 
 105   0.0000       0.724093        19.7036 
 106   0.0000       0.735295        20.0084 
 107   0.0000       0.738179        20.0869 
 108   0.0000       0.739339        20.1184 
 109   0.0000       0.739397        20.1200 
 110   0.0000       0.766845        20.8669 
 111   0.0000       0.766845        20.8669 
 112   0.0000       0.774820        21.0839 
 113   0.0000       0.806720        21.9520 
 114   0.0000       0.812323        22.1044 
 115   0.0000       0.816957        22.2305 
 116   0.0000       0.833788        22.6885 
 117   0.0000       0.834162        22.6987 
 118   0.0000       0.854609        23.2551 
 119   0.0000       0.854609        23.2551 
 120   0.0000       0.854682        23.2571 
 121   0.0000       0.854682        23.2571 
 122   0.0000       0.860649        23.4195 
 123   0.0000       0.861837        23.4518 
 124   0.0000       0.868320        23.6282 
 125   0.0000       0.878408        23.9027 
 126   0.0000       0.878580        23.9074 
 127   0.0000       0.890809        24.2401 
 128   0.0000       0.890809        24.2401 
 129   0.0000       0.901408        24.5286 
 130   0.0000       0.926379        25.2081 
 131   0.0000       0.926379        25.2081 
 132   0.0000       0.938466        25.5370 
 133   0.0000       0.961335        26.1593 
 134   0.0000       0.968014        26.3410 
 135   0.0000       0.968180        26.3455 
 136   0.0000       0.972721        26.4691 
 137   0.0000       0.988781        26.9061 
 138   0.0000       0.988816        26.9071 
 139   0.0000       1.016614        27.6635 
 140   0.0000       1.043146        28.3855 
 141   0.0000       1.050871        28.5956 
 142   0.0000       1.052798        28.6481 
 143   0.0000       1.053083        28.6559 
 144   0.0000       1.057207        28.7681 
 145   0.0000       1.057207        28.7681 
 146   0.0000       1.116487        30.3812 
 147   0.0000       1.116487        30.3812 
 148   0.0000       1.118197        30.4277 
 149   0.0000       1.125341        30.6221 
 150   0.0000       1.141705        31.0674 
 151   0.0000       1.150341        31.3024 
 152   0.0000       1.150924        31.3182 
 153   0.0000       1.204367        32.7725 
 154   0.0000       1.210031        32.9266 
 155   0.0000       1.214284        33.0424 
 156   0.0000       1.220903        33.2224 
 157   0.0000       1.220946        33.2236 
 158   0.0000       1.238646        33.7053 
 159   0.0000       1.253074        34.0979 
 160   0.0000       1.253152        34.1000 
 161   0.0000       1.321543        35.9610 
 162   0.0000       1.323697        36.0196 
 163   0.0000       1.334724        36.3197 
 164   0.0000       1.385222        37.6938 
 165   0.0000       1.391981        37.8777 
 166   0.0000       1.413266        38.4569 
 167   0.0000       1.413376        38.4599 
 168   0.0000       1.416466        38.5440 
 169   0.0000       1.485067        40.4107 
 170   0.0000       1.621285        44.1174 
 171   0.0000       1.638936        44.5977 
 172   0.0000       1.654601        45.0240 
 173   0.0000       1.703566        46.3564 
 174   0.0000       1.703587        46.3570 
 175   0.0000       1.747469        47.5510 
 176   0.0000       1.748454        47.5779 
 177   0.0000       1.758694        47.8565 
 178   0.0000       1.793929        48.8153 
 179   0.0000       1.793934        48.8154 
 180   0.0000       1.865116        50.7524 
 181   0.0000       1.895435        51.5774 
 182   0.0000       1.915271        52.1172 
 183   0.0000       1.937570        52.7239 
 184   0.0000       1.948824        53.0302 
 185   0.0000       1.991328        54.1868 
 186   0.0000       1.991423        54.1894 
 187   0.0000       2.027962        55.1837 
 188   0.0000       2.027963        55.1837 
 189   0.0000       2.107638        57.3517 
 190   0.0000       2.109229        57.3950 
 191   0.0000       2.109482        57.4019 
 192   0.0000       2.175436        59.1966 
 193   0.0000       2.189227        59.5719 
 194   0.0000       2.246270        61.1241 
 195   0.0000       2.304790        62.7165 
 196   0.0000       2.305003        62.7223 
 197   0.0000       2.313485        62.9531 
 198   0.0000       2.329263        63.3825 
 199   0.0000       2.369316        64.4724 
 200   0.0000       2.399592        65.2962 
 201   0.0000       2.410086        65.5818 
 202   0.0000       2.456052        66.8326 
 203   0.0000       2.620033        71.2947 
 204   0.0000       2.632335        71.6295 
 205   0.0000       2.742898        74.6380 
 206   0.0000       2.770515        75.3895 
 207   0.0000       2.771141        75.4066 
 208   0.0000       2.805513        76.3419 
 209   0.0000       3.050535        83.0093 
 210   0.0000       3.050831        83.0173 
 211   0.0000       3.143378        85.5357 
 212   0.0000       3.211373        87.3859 
 213   0.0000       3.233634        87.9917 
 214   0.0000       3.275571        89.1328 
 215   0.0000       3.293591        89.6232 
 216   0.0000       3.427216        93.2593 
 217   0.0000       3.516018        95.6757 
 218   0.0000       3.601606        98.0047 
 219   0.0000       3.619015        98.4784 
 220   0.0000       3.881356       105.6171 
 221   0.0000       3.882089       105.6370 
 222   0.0000       3.937426       107.1428 
 223   0.0000       3.988702       108.5381 
 224   0.0000       3.992497       108.6414 
 225   0.0000       3.992497       108.6414 
 226   0.0000       4.009304       109.0987 
 227   0.0000       4.032076       109.7184 
 228   0.0000       4.037537       109.8670 
 229   0.0000       4.037608       109.8689 
 230   0.0000       4.196484       114.1921 
 231   0.0000       4.196583       114.1948 
 232   0.0000       4.206436       114.4629 
 233   0.0000       4.206438       114.4630 
 234   0.0000       4.349089       118.3447 
 235   0.0000       4.362044       118.6972 
 236   0.0000       4.374096       119.0252 
 237   0.0000       4.494548       122.3029 
 238   0.0000       4.499870       122.4477 
 239   0.0000       4.500024       122.4519 
 240   0.0000       4.526731       123.1786 
 241   0.0000       4.594476       125.0221 
 242   0.0000       4.595353       125.0459 
 243   0.0000       4.600055       125.1739 
 244   0.0000       4.618704       125.6813 
 245   0.0000       4.715247       128.3084 
 246   0.0000       4.715339       128.3109 
 247   0.0000       4.724869       128.5702 
 248   0.0000       4.745170       129.1226 
 249   0.0000       4.971206       135.2734 
 250   0.0000       4.971330       135.2768 
 251   0.0000       4.971339       135.2770 
 252   0.0000       4.986733       135.6959 
 253   0.0000       5.081425       138.2726 
 254   0.0000       5.081440       138.2730 
 255   0.0000       5.098813       138.7458 
 256   0.0000       5.150466       140.1513 
 257   0.0000       5.332588       145.1071 
 258   0.0000       5.333289       145.1262 
 259   0.0000       5.417301       147.4123 
 260   0.0000       5.417315       147.4126 
 261   0.0000       5.550375       151.0334 
 262   0.0000       5.570164       151.5719 
 263   0.0000       5.779799       157.2763 
 264   0.0000       5.792822       157.6307 
 265   0.0000       5.792964       157.6346 
 266   0.0000       5.899809       160.5420 
 267   0.0000       5.899813       160.5421 
 268   0.0000       6.146891       167.2654 
 269   0.0000       6.332321       172.3112 
 270   0.0000       6.352136       172.8504 
 271   0.0000       6.505621       177.0269 
 272   0.0000       6.505621       177.0269 
 273   0.0000       6.608907       179.8375 
 274   0.0000       6.628823       180.3794 
 275   0.0000       6.665846       181.3869 
 276   0.0000       6.667458       181.4308 
 277   0.0000       6.794746       184.8944 
 278   0.0000       6.891499       187.5272 
 279   0.0000       6.939293       188.8278 
 280   0.0000       6.965534       189.5418 
 281   0.0000       7.013330       190.8424 
 282   0.0000       7.014468       190.8734 
 283   0.0000       7.282525       198.1676 
 284   0.0000       7.633772       207.7255 
 285   0.0000       7.656393       208.3410 
 286   0.0000       7.882933       214.5055 
 287   0.0000       8.077498       219.7999 
 288   0.0000       8.084043       219.9780 
 289   0.0000       8.090824       220.1625 
 290   0.0000       8.255419       224.6414 
 291   0.0000       8.270774       225.0592 
 292   0.0000       8.617330       234.4895 
 293   0.0000       8.816751       239.9160 
 294   0.0000       8.841336       240.5850 
 295   0.0000       9.144022       248.8215 
 296   0.0000       9.426219       256.5004 
 297   0.0000       9.438620       256.8379 
 298   0.0000       9.438672       256.8393 
 299   0.0000       9.469088       257.6670 
 300   0.0000       9.771981       265.9091 
 301   0.0000      10.187521       277.2165 
 302   0.0000      10.187539       277.2170 
 303   0.0000      10.227927       278.3160 
 304   0.0000      10.242846       278.7220 
 305   0.0000      10.306916       280.4655 
 306   0.0000      10.306921       280.4656 
 307   0.0000      10.367956       282.1264 
 308   0.0000      10.367970       282.1268 
 309   0.0000      10.414725       283.3991 
 310   0.0000      10.414726       283.3991 
 311   0.0000      10.420157       283.5469 
 312   0.0000      10.437630       284.0223 
 313   0.0000      10.518587       286.2253 
 314   0.0000      10.667526       290.2781 
 315   0.0000      10.667526       290.2781 
 316   0.0000      10.872424       295.8537 
 317   0.0000      10.873057       295.8709 
 318   0.0000      10.959672       298.2278 
 319   0.0000      11.084148       301.6150 
 320   0.0000      11.105781       302.2037 
 321   0.0000      11.105807       302.2044 
 322   0.0000      11.238599       305.8178 
 323   0.0000      11.260258       306.4072 
 324   0.0000      11.326484       308.2093 
 325   0.0000      11.326485       308.2093 
 326   0.0000      11.345227       308.7193 
 327   0.0000      11.345582       308.7290 
 328   0.0000      11.369752       309.3867 
 329   0.0000      11.429706       311.0181 
 330   0.0000      11.429709       311.0182 
 331   0.0000      11.532663       313.8197 
 332   0.0000      11.532889       313.8259 
 333   0.0000      11.664535       317.4081 
 334   0.0000      11.664831       317.4162 
 335   0.0000      11.692225       318.1616 
 336   0.0000      11.692228       318.1617 
 337   0.0000      11.693841       318.2056 
 338   0.0000      11.693847       318.2057 
 339   0.0000      11.786734       320.7333 
 340   0.0000      11.786848       320.7364 
 341   0.0000      11.948962       325.1478 
 342   0.0000      11.948962       325.1478 
 343   0.0000      12.028048       327.2998 
 344   0.0000      12.117393       329.7310 
 345   0.0000      12.117431       329.7321 
 346   0.0000      12.212252       332.3123 
 347   0.0000      12.212252       332.3123 
 348   0.0000      12.262627       333.6830 
 349   0.0000      12.286677       334.3375 
 350   0.0000      12.537549       341.1641 
 351   0.0000      12.537574       341.1647 
 352   0.0000      12.630892       343.7040 
 353   0.0000      12.672063       344.8244 
 354   0.0000      12.690211       345.3182 
 355   0.0000      13.047142       355.0308 
 356   0.0000      13.048264       355.0613 
 357   0.0000      13.145361       357.7035 
 358   0.0000      13.631879       370.9423 
 359   0.0000      13.697728       372.7341 
 360   0.0000      13.697733       372.7343 
 361   0.0000      13.819186       376.0392 
 362   0.0000      13.837312       376.5324 
 363   0.0000      14.173703       385.6861 
 364   0.0000      14.173767       385.6878 
 365   0.0000      14.190724       386.1492 
 366   0.0000      14.190752       386.1500 
 367   0.0000      14.369510       391.0142 
 368   0.0000      14.388516       391.5314 
 369   0.0000      14.433195       392.7472 
 370   0.0000      14.433393       392.7526 
 371   0.0000      14.649107       398.6225 
 372   0.0000      15.164804       412.6553 
 373   0.0000      15.165394       412.6713 
 374   0.0000      15.677824       426.6153 
 375   0.0000      15.709816       427.4858 
 376   0.0000      15.788402       429.6243 
 377   0.0000      16.168295       439.9617 
 378   0.0000      16.189321       440.5338 
 379   0.0000      16.249012       442.1581 
 380   0.0000      16.534423       449.9245 
 381   0.0000      16.534571       449.9285 
 382   0.0000      16.870105       459.0589 
 383   0.0000      16.870109       459.0590 
 384   0.0000      16.901703       459.9187 
 385   0.0000      16.901766       459.9204 
 386   0.0000      17.187932       467.7074 
 387   0.0000      17.187939       467.7076 
 388   0.0000      17.258950       469.6399 
 389   0.0000      17.450370       474.8487 
 390   0.0000      17.477082       475.5756 
 391   0.0000      17.662371       480.6176 
 392   0.0000      18.077051       491.9016 
 393   0.0000      18.077065       491.9019 
 394   0.0000      18.201711       495.2937 
 395   0.0000      18.225834       495.9502 
 396   0.0000      18.735430       509.8170 
 397   0.0000      18.767343       510.6854 
 398   0.0000      18.785585       511.1818 
 399   0.0000      19.453476       529.3560 
 400   0.0000      20.258349       551.2577 
 401   0.0000      20.268763       551.5411 
 402   0.0000      20.447140       556.3950 
 403   0.0000      22.907210       623.3369 
 404   0.0000      22.992924       625.6693 
 405   0.0000      22.993008       625.6715 
 406   0.0000      24.436007       664.9375 
 407   0.0000      24.454501       665.4408 
 408   0.0000      25.210615       686.0157 
 409   0.0000      26.253790       714.4019 
 410   0.0000      26.288113       715.3359 
 411   0.0000      26.751226       727.9379 
 412   0.0000      28.110926       764.9372 
 413   0.0000      30.488545       829.6355 
 414   0.0000      31.852116       866.7401 
 415   0.0000      31.852129       866.7405 
 416   0.0000      32.090631       873.2305 
 417   0.0000      32.110121       873.7608 
 418   0.0000      33.184764       903.0033 
 419   0.0000      33.190357       903.1555 
 420   0.0000      34.745679       945.4780 
 421   0.0000      36.247876       986.3549 
 422   0.0000      47.648197      1296.5733 
 423   0.0000      47.648342      1296.5773 
 424   0.0000      48.027887      1306.9053 
 425   0.0000      48.053086      1307.5909 
 426   0.0000      48.807140      1328.1098 
 427   0.0000      66.529535      1810.3607 
 428   0.0000      66.529581      1810.3619 
 429   0.0000      67.396693      1833.9573 
 430   0.0000      67.411130      1834.3501 
 431   0.0000      68.991536      1877.3551 
 432   0.0000      77.257061      2102.2715 
 433   0.0000     103.894359      2827.1092 
 434   0.0000     143.809052      3913.2433 

                 SPIN DOWN ORBITALS
  NO   OCC          E(Eh)            E(eV) 
   0   1.0000     -18.857312      -513.1335 
   1   1.0000     -14.049892      -382.3170 
   2   1.0000     -10.037360      -273.1305 
   3   1.0000      -1.070804       -29.1381 
   4   1.0000      -0.844626       -22.9834 
   5   1.0000      -0.503282       -13.6950 
   6   1.0000      -0.449294       -12.2259 
   7   1.0000      -0.447150       -12.1676 
   8   1.0000      -0.369947       -10.0668 
   9   1.0000      -0.278111        -7.5678 
  10   0.0000      -0.261498        -7.1157 
  11   0.0000      -0.026022        -0.7081 
  12   0.0000      -0.003176        -0.0864 
  13   0.0000       0.002932         0.0798 
  14   0.0000       0.016252         0.4422 
  15   0.0000       0.017136         0.4663 
  16   0.0000       0.017500         0.4762 
  17   0.0000       0.036641         0.9970 
  18   0.0000       0.050546         1.3754 
  19   0.0000       0.051480         1.4008 
  20   0.0000       0.057683         1.5696 
  21   0.0000       0.061271         1.6673 
  22   0.0000       0.062048         1.6884 
  23   0.0000       0.064241         1.7481 
  24   0.0000       0.082410         2.2425 
  25   0.0000       0.082726         2.2511 
  26   0.0000       0.093857         2.5540 
  27   0.0000       0.105935         2.8827 
  28   0.0000       0.106369         2.8944 
  29   0.0000       0.114885         3.1262 
  30   0.0000       0.137108         3.7309 
  31   0.0000       0.138713         3.7746 
  32   0.0000       0.155514         4.2317 
  33   0.0000       0.162549         4.4232 
  34   0.0000       0.162991         4.4352 
  35   0.0000       0.165597         4.5061 
  36   0.0000       0.184293         5.0149 
  37   0.0000       0.184373         5.0171 
  38   0.0000       0.184708         5.0261 
  39   0.0000       0.186613         5.0780 
  40   0.0000       0.208533         5.6745 
  41   0.0000       0.208811         5.6820 
  42   0.0000       0.211475         5.7545 
  43   0.0000       0.220787         6.0079 
  44   0.0000       0.221488         6.0270 
  45   0.0000       0.222258         6.0480 
  46   0.0000       0.247248         6.7280 
  47   0.0000       0.247553         6.7363 
  48   0.0000       0.252817         6.8795 
  49   0.0000       0.271212         7.3801 
  50   0.0000       0.271573         7.3899 
  51   0.0000       0.294763         8.0209 
  52   0.0000       0.304980         8.2989 
  53   0.0000       0.306789         8.3482 
  54   0.0000       0.307964         8.3801 
  55   0.0000       0.327769         8.9190 
  56   0.0000       0.327909         8.9229 
  57   0.0000       0.333663         9.0794 
  58   0.0000       0.333999         9.0886 
  59   0.0000       0.334937         9.1141 
  60   0.0000       0.335912         9.1406 
  61   0.0000       0.344889         9.3849 
  62   0.0000       0.346915         9.4400 
  63   0.0000       0.346950         9.4410 
  64   0.0000       0.370402        10.0792 
  65   0.0000       0.371203        10.1010 
  66   0.0000       0.425458        11.5773 
  67   0.0000       0.425561        11.5801 
  68   0.0000       0.435629        11.8541 
  69   0.0000       0.438720        11.9382 
  70   0.0000       0.438997        11.9457 
  71   0.0000       0.446948        12.1621 
  72   0.0000       0.451490        12.2857 
  73   0.0000       0.452184        12.3046 
  74   0.0000       0.464003        12.6262 
  75   0.0000       0.469952        12.7880 
  76   0.0000       0.470651        12.8071 
  77   0.0000       0.487864        13.2755 
  78   0.0000       0.489583        13.3222 
  79   0.0000       0.489623        13.3233 
  80   0.0000       0.489929        13.3316 
  81   0.0000       0.490194        13.3388 
  82   0.0000       0.498851        13.5744 
  83   0.0000       0.500396        13.6165 
  84   0.0000       0.524261        14.2659 
  85   0.0000       0.524656        14.2766 
  86   0.0000       0.531669        14.4674 
  87   0.0000       0.531761        14.4699 
  88   0.0000       0.550048        14.9676 
  89   0.0000       0.550054        14.9677 
  90   0.0000       0.566167        15.4062 
  91   0.0000       0.591580        16.0977 
  92   0.0000       0.593031        16.1372 
  93   0.0000       0.620102        16.8738 
  94   0.0000       0.625323        17.0159 
  95   0.0000       0.625355        17.0168 
  96   0.0000       0.636253        17.3133 
  97   0.0000       0.636628        17.3235 
  98   0.0000       0.657862        17.9013 
  99   0.0000       0.658692        17.9239 
 100   0.0000       0.662381        18.0243 
 101   0.0000       0.666338        18.1320 
 102   0.0000       0.667285        18.1577 
 103   0.0000       0.691365        18.8130 
 104   0.0000       0.728767        19.8308 
 105   0.0000       0.728812        19.8320 
 106   0.0000       0.738144        20.0859 
 107   0.0000       0.739200        20.1146 
 108   0.0000       0.745000        20.2725 
 109   0.0000       0.745965        20.2987 
 110   0.0000       0.772621        21.0241 
 111   0.0000       0.772834        21.0299 
 112   0.0000       0.781973        21.2786 
 113   0.0000       0.816129        22.2080 
 114   0.0000       0.818339        22.2681 
 115   0.0000       0.820162        22.3177 
 116   0.0000       0.839521        22.8445 
 117   0.0000       0.840472        22.8704 
 118   0.0000       0.855708        23.2850 
 119   0.0000       0.855760        23.2864 
 120   0.0000       0.856922        23.3180 
 121   0.0000       0.856943        23.3186 
 122   0.0000       0.867743        23.6125 
 123   0.0000       0.869765        23.6675 
 124   0.0000       0.873641        23.7730 
 125   0.0000       0.881712        23.9926 
 126   0.0000       0.882150        24.0045 
 127   0.0000       0.896194        24.3867 
 128   0.0000       0.896213        24.3872 
 129   0.0000       0.905780        24.6475 
 130   0.0000       0.929158        25.2837 
 131   0.0000       0.929176        25.2842 
 132   0.0000       0.942863        25.6566 
 133   0.0000       0.968831        26.3632 
 134   0.0000       0.970362        26.4049 
 135   0.0000       0.973804        26.4986 
 136   0.0000       0.976680        26.5768 
 137   0.0000       0.991110        26.9695 
 138   0.0000       0.991197        26.9719 
 139   0.0000       1.020969        27.7820 
 140   0.0000       1.051567        28.6146 
 141   0.0000       1.051693        28.6180 
 142   0.0000       1.056939        28.7608 
 143   0.0000       1.057463        28.7750 
 144   0.0000       1.059393        28.8276 
 145   0.0000       1.059399        28.8277 
 146   0.0000       1.119658        30.4674 
 147   0.0000       1.119696        30.4685 
 148   0.0000       1.126468        30.6527 
 149   0.0000       1.128092        30.6969 
 150   0.0000       1.144782        31.1511 
 151   0.0000       1.153874        31.3985 
 152   0.0000       1.154439        31.4139 
 153   0.0000       1.210790        32.9473 
 154   0.0000       1.211277        32.9605 
 155   0.0000       1.217856        33.1395 
 156   0.0000       1.223355        33.2892 
 157   0.0000       1.223469        33.2923 
 158   0.0000       1.242445        33.8087 
 159   0.0000       1.255726        34.1701 
 160   0.0000       1.256186        34.1825 
 161   0.0000       1.325302        36.0633 
 162   0.0000       1.336136        36.3581 
 163   0.0000       1.337621        36.3985 
 164   0.0000       1.391795        37.8727 
 165   0.0000       1.392082        37.8805 
 166   0.0000       1.419083        38.6152 
 167   0.0000       1.434987        39.0480 
 168   0.0000       1.438407        39.1410 
 169   0.0000       1.492234        40.6058 
 170   0.0000       1.629710        44.3467 
 171   0.0000       1.657267        45.0965 
 172   0.0000       1.662035        45.2263 
 173   0.0000       1.727466        47.0067 
 174   0.0000       1.727914        47.0189 
 175   0.0000       1.760114        47.8951 
 176   0.0000       1.760569        47.9075 
 177   0.0000       1.763456        47.9861 
 178   0.0000       1.799101        48.9560 
 179   0.0000       1.799208        48.9589 
 180   0.0000       1.871999        50.9397 
 181   0.0000       1.920920        52.2709 
 182   0.0000       1.928018        52.4640 
 183   0.0000       1.951255        53.0963 
 184   0.0000       1.954995        53.1981 
 185   0.0000       2.004000        54.5316 
 186   0.0000       2.005213        54.5646 
 187   0.0000       2.035426        55.3867 
 188   0.0000       2.035481        55.3882 
 189   0.0000       2.111457        57.4557 
 190   0.0000       2.112643        57.4879 
 191   0.0000       2.113763        57.5184 
 192   0.0000       2.191527        59.6345 
 193   0.0000       2.192215        59.6532 
 194   0.0000       2.257131        61.4197 
 195   0.0000       2.313269        62.9473 
 196   0.0000       2.314168        62.9717 
 197   0.0000       2.330456        63.4149 
 198   0.0000       2.331348        63.4392 
 199   0.0000       2.372335        64.5545 
 200   0.0000       2.408192        65.5302 
 201   0.0000       2.409509        65.5661 
 202   0.0000       2.465745        67.0963 
 203   0.0000       2.633735        71.6676 
 204   0.0000       2.635117        71.7052 
 205   0.0000       2.756761        75.0153 
 206   0.0000       2.778471        75.6060 
 207   0.0000       2.779346        75.6299 
 208   0.0000       2.816410        76.6384 
 209   0.0000       3.090984        84.1100 
 210   0.0000       3.097030        84.2745 
 211   0.0000       3.152394        85.7810 
 212   0.0000       3.237596        88.0995 
 213   0.0000       3.243371        88.2566 
 214   0.0000       3.296190        89.6939 
 215   0.0000       3.299130        89.7739 
 216   0.0000       3.441277        93.6419 
 217   0.0000       3.523740        95.8858 
 218   0.0000       3.621897        98.5568 
 219   0.0000       3.624932        98.6394 
 220   0.0000       3.893596       105.9501 
 221   0.0000       3.894568       105.9766 
 222   0.0000       3.946015       107.3765 
 223   0.0000       3.992989       108.6547 
 224   0.0000       3.992998       108.6550 
 225   0.0000       4.013896       109.2237 
 226   0.0000       4.018893       109.3596 
 227   0.0000       4.047443       110.1365 
 228   0.0000       4.050130       110.2096 
 229   0.0000       4.050362       110.2159 
 230   0.0000       4.208699       114.5245 
 231   0.0000       4.208778       114.5267 
 232   0.0000       4.215357       114.7057 
 233   0.0000       4.216957       114.7492 
 234   0.0000       4.370644       118.9313 
 235   0.0000       4.382002       119.2403 
 236   0.0000       4.390210       119.4637 
 237   0.0000       4.503062       122.5345 
 238   0.0000       4.538206       123.4909 
 239   0.0000       4.546723       123.7226 
 240   0.0000       4.548179       123.7622 
 241   0.0000       4.609032       125.4181 
 242   0.0000       4.610660       125.4624 
 243   0.0000       4.620281       125.7242 
 244   0.0000       4.622729       125.7908 
 245   0.0000       4.715243       128.3083 
 246   0.0000       4.715680       128.3202 
 247   0.0000       4.748837       129.2224 
 248   0.0000       4.752061       129.3101 
 249   0.0000       4.988040       135.7315 
 250   0.0000       4.988624       135.7474 
 251   0.0000       5.021957       136.6544 
 252   0.0000       5.022314       136.6641 
 253   0.0000       5.101197       138.8106 
 254   0.0000       5.101317       138.8139 
 255   0.0000       5.112258       139.1116 
 256   0.0000       5.163615       140.5091 
 257   0.0000       5.353751       145.6830 
 258   0.0000       5.356739       145.7643 
 259   0.0000       5.445702       148.1851 
 260   0.0000       5.446177       148.1980 
 261   0.0000       5.571723       151.6143 
 262   0.0000       5.573967       151.6754 
 263   0.0000       5.789190       157.5319 
 264   0.0000       5.807500       158.0301 
 265   0.0000       5.808913       158.0686 
 266   0.0000       5.918225       161.0431 
 267   0.0000       5.918228       161.0432 
 268   0.0000       6.157544       167.5553 
 269   0.0000       6.354005       172.9013 
 270   0.0000       6.356404       172.9665 
 271   0.0000       6.519636       177.4083 
 272   0.0000       6.519764       177.4118 
 273   0.0000       6.630569       180.4270 
 274   0.0000       6.633150       180.4972 
 275   0.0000       6.701590       182.3595 
 276   0.0000       6.706064       182.4813 
 277   0.0000       6.809116       185.2855 
 278   0.0000       6.906847       187.9449 
 279   0.0000       6.969812       189.6582 
 280   0.0000       6.979387       189.9188 
 281   0.0000       7.057411       192.0419 
 282   0.0000       7.065090       192.2509 
 283   0.0000       7.299804       198.6378 
 284   0.0000       7.658979       208.4114 
 285   0.0000       7.663380       208.5312 
 286   0.0000       7.895174       214.8386 
 287   0.0000       8.095094       220.2787 
 288   0.0000       8.099162       220.3894 
 289   0.0000       8.101025       220.4401 
 290   0.0000       8.272012       225.0929 
 291   0.0000       8.272215       225.0984 
 292   0.0000       8.640192       235.1116 
 293   0.0000       8.844077       240.6596 
 294   0.0000       8.848543       240.7811 
 295   0.0000       9.153760       249.0865 
 296   0.0000       9.465658       257.5736 
 297   0.0000       9.467324       257.6190 
 298   0.0000       9.483802       258.0674 
 299   0.0000       9.504984       258.6438 
 300   0.0000       9.788016       266.3454 
 301   0.0000      10.189005       277.2569 
 302   0.0000      10.189518       277.2709 
 303   0.0000      10.241298       278.6799 
 304   0.0000      10.241657       278.6897 
 305   0.0000      10.308527       280.5093 
 306   0.0000      10.308630       280.5121 
 307   0.0000      10.378301       282.4079 
 308   0.0000      10.378597       282.4160 
 309   0.0000      10.422364       283.6069 
 310   0.0000      10.422391       283.6077 
 311   0.0000      10.439630       284.0768 
 312   0.0000      10.442647       284.1589 
 313   0.0000      10.533212       286.6233 
 314   0.0000      10.664463       290.1948 
 315   0.0000      10.664464       290.1948 
 316   0.0000      10.891030       296.3600 
 317   0.0000      10.893302       296.4218 
 318   0.0000      10.977149       298.7034 
 319   0.0000      11.100923       302.0715 
 320   0.0000      11.183440       304.3169 
 321   0.0000      11.186142       304.3904 
 322   0.0000      11.264000       306.5090 
 323   0.0000      11.268341       306.6271 
 324   0.0000      11.357594       309.0559 
 325   0.0000      11.372620       309.4647 
 326   0.0000      11.379038       309.6394 
 327   0.0000      11.394707       310.0657 
 328   0.0000      11.394981       310.0732 
 329   0.0000      11.469962       312.1135 
 330   0.0000      11.470184       312.1196 
 331   0.0000      11.542477       314.0868 
 332   0.0000      11.544010       314.1285 
 333   0.0000      11.674073       317.6677 
 334   0.0000      11.675257       317.6999 
 335   0.0000      11.696845       318.2873 
 336   0.0000      11.696955       318.2903 
 337   0.0000      11.701024       318.4010 
 338   0.0000      11.701217       318.4063 
 339   0.0000      11.813890       321.4723 
 340   0.0000      11.818232       321.5905 
 341   0.0000      11.973581       325.8177 
 342   0.0000      11.973583       325.8178 
 343   0.0000      12.032664       327.4254 
 344   0.0000      12.140530       330.3606 
 345   0.0000      12.141010       330.3737 
 346   0.0000      12.229368       332.7780 
 347   0.0000      12.229385       332.7785 
 348   0.0000      12.289595       334.4169 
 349   0.0000      12.298741       334.6657 
 350   0.0000      12.569278       342.0274 
 351   0.0000      12.569443       342.0319 
 352   0.0000      12.641167       343.9836 
 353   0.0000      12.690274       345.3199 
 354   0.0000      12.694097       345.4239 
 355   0.0000      13.066342       355.5532 
 356   0.0000      13.067399       355.5820 
 357   0.0000      13.158254       358.0543 
 358   0.0000      13.641695       371.2094 
 359   0.0000      13.713847       373.1728 
 360   0.0000      13.714066       373.1787 
 361   0.0000      13.837513       376.5379 
 362   0.0000      13.841078       376.6349 
 363   0.0000      14.193837       386.2339 
 364   0.0000      14.196540       386.3075 
 365   0.0000      14.271363       388.3435 
 366   0.0000      14.272534       388.3754 
 367   0.0000      14.390515       391.5858 
 368   0.0000      14.395230       391.7141 
 369   0.0000      14.486445       394.1962 
 370   0.0000      14.488014       394.2389 
 371   0.0000      14.664743       399.0479 
 372   0.0000      15.201899       413.6647 
 373   0.0000      15.207300       413.8117 
 374   0.0000      15.713992       427.5995 
 375   0.0000      15.727359       427.9632 
 376   0.0000      15.811915       430.2641 
 377   0.0000      16.190433       440.5641 
 378   0.0000      16.196723       440.7353 
 379   0.0000      16.259554       442.4450 
 380   0.0000      16.545986       450.2392 
 381   0.0000      16.547409       450.2779 
 382   0.0000      16.931828       460.7385 
 383   0.0000      16.934803       460.8194 
 384   0.0000      16.934866       460.8211 
 385   0.0000      16.937439       460.8912 
 386   0.0000      17.211641       468.3526 
 387   0.0000      17.211724       468.3548 
 388   0.0000      17.267570       469.8745 
 389   0.0000      17.480297       475.6631 
 390   0.0000      17.493318       476.0174 
 391   0.0000      17.676105       480.9913 
 392   0.0000      18.094616       492.3795 
 393   0.0000      18.095577       492.4057 
 394   0.0000      18.229274       496.0438 
 395   0.0000      18.239075       496.3105 
 396   0.0000      18.742934       510.0212 
 397   0.0000      18.787649       511.2379 
 398   0.0000      18.790523       511.3161 
 399   0.0000      19.473679       529.9057 
 400   0.0000      20.267410       551.5043 
 401   0.0000      20.267813       551.5152 
 402   0.0000      20.460420       556.7563 
 403   0.0000      22.922192       623.7446 
 404   0.0000      23.024604       626.5313 
 405   0.0000      23.026093       626.5719 
 406   0.0000      24.457115       665.5119 
 407   0.0000      24.464994       665.7263 
 408   0.0000      25.218855       686.2399 
 409   0.0000      26.303480       715.7541 
 410   0.0000      26.329419       716.4599 
 411   0.0000      26.763793       728.2798 
 412   0.0000      28.129534       765.4435 
 413   0.0000      30.499892       829.9443 
 414   0.0000      31.850436       866.6944 
 415   0.0000      31.850496       866.6961 
 416   0.0000      32.116495       873.9342 
 417   0.0000      32.123911       874.1361 
 418   0.0000      33.188173       903.0961 
 419   0.0000      33.188572       903.1070 
 420   0.0000      34.755756       945.7522 
 421   0.0000      36.248103       986.3610 
 422   0.0000      47.694910      1297.8445 
 423   0.0000      47.699604      1297.9722 
 424   0.0000      48.059833      1307.7745 
 425   0.0000      48.074790      1308.1815 
 426   0.0000      48.828530      1328.6919 
 427   0.0000      66.551146      1810.9487 
 428   0.0000      66.552087      1810.9744 
 429   0.0000      67.413962      1834.4272 
 430   0.0000      67.418970      1834.5634 
 431   0.0000      69.001208      1877.6183 
 432   0.0000      77.256368      2102.2526 
 433   0.0000     103.909178      2827.5125 
 434   0.0000     143.816959      3913.4584 

                    ********************************
                    * MULLIKEN POPULATION ANALYSIS *
                    ********************************

--------------------------------------------
MULLIKEN ATOMIC CHARGES AND SPIN POPULATIONS
--------------------------------------------
   0 N :   -0.063713    0.723229
   1 C :    0.101818   -0.058849
   2 O :   -0.038105    0.335620
Sum of atomic charges         :    0.0000000
Sum of atomic spin populations:    1.0000000

-----------------------------------------------------
MULLIKEN REDUCED ORBITAL CHARGES AND SPIN POPULATIONS
-----------------------------------------------------
CHARGE
  0 N s       :     3.748057  s :     3.748057
      pz      :     1.142355  p :     3.273801
      px      :     0.786661
      py      :     1.344785
      dz2     :     0.015169  d :     0.039649
      dxz     :     0.010857
      dyz     :     0.013367
      dx2y2   :     0.000255
      dxy     :     0.000000
      f0      :     0.000877  f :     0.001675
      f+1     :     0.000256
      f-1     :     0.000407
      f+2     :     0.000025
      f-2     :     0.000000
      f+3     :     0.000053
      f-3     :     0.000058
      g0      :     0.000198  g :     0.000382
      g+1     :     0.000110
      g-1     :     0.000071
      g+2     :     0.000001
      g-2     :     0.000000
      g+3     :     0.000001
      g-3     :     0.000002
      g+4     :     0.000000
      g-4     :     0.000000
      h0      :     0.000013  h :     0.000149
      h+1     :     0.000076
      h-1     :     0.000060
      h+2     :     0.000000
      h-2     :     0.000000
      h+3     :    -0.000000
      h-3     :     0.000000
      h+4     :     0.000000
      h-4     :     0.000000
      h+5     :     0.000000
      h-5     :     0.000000
  1 C s       :     3.170721  s :     3.170721
      pz      :     0.839837  p :     2.484673
      px      :     0.772638
      py      :     0.872198
      dz2     :     0.054809  d :     0.211871
      dxz     :     0.052770
      dyz     :     0.104269
      dx2y2   :     0.000023
      dxy     :     0.000000
      f0      :     0.007507  f :     0.027683
      f+1     :     0.010400
      f-1     :     0.009757
      f+2     :     0.000009
      f-2     :     0.000000
      f+3     :     0.000004
      f-3     :     0.000005
      g0      :     0.000841  g :     0.003063
      g+1     :     0.000753
      g-1     :     0.001479
      g+2     :     0.000000
      g-2     :     0.000000
      g+3     :    -0.000005
      g-3     :    -0.000006
      g+4     :    -0.000000
      g-4     :    -0.000000
      h0      :    -0.000023  h :     0.000171
      h+1     :     0.000104
      h-1     :     0.000088
      h+2     :    -0.000000
      h-2     :    -0.000000
      h+3     :     0.000001
      h-3     :     0.000001
      h+4     :    -0.000000
      h-4     :    -0.000000
      h+5     :    -0.000000
      h-5     :    -0.000000
  2 O s       :     3.755278  s :     3.755278
      pz      :     1.260621  p :     4.236792
      px      :     1.344784
      py      :     1.631388
      dz2     :     0.005439  d :     0.041307
      dxz     :     0.017725
      dyz     :     0.018108
      dx2y2   :     0.000034
      dxy     :     0.000000
      f0      :    -0.001577  f :     0.003465
      f+1     :     0.002090
      f-1     :     0.002936
      f+2     :     0.000004
      f-2     :    -0.000000
      f+3     :     0.000006
      f-3     :     0.000006
      g0      :    -0.000433  g :     0.000872
      g+1     :     0.000535
      g-1     :     0.000770
      g+2     :     0.000000
      g-2     :    -0.000000
      g+3     :    -0.000000
      g-3     :    -0.000000
      g+4     :     0.000000
      g-4     :    -0.000000
      h0      :    -0.000039  h :     0.000393
      h+1     :     0.000181
      h-1     :     0.000250
      h+2     :     0.000000
      h-2     :    -0.000000
      h+3     :    -0.000000
      h-3     :    -0.000000
      h+4     :    -0.000000
      h-4     :     0.000000
      h+5     :     0.000000
      h-5     :     0.000000

SPIN
  0 N s       :     0.035770  s :     0.035770
      pz      :     0.009348  p :     0.682752
      px      :     0.652608
      py      :     0.020795
      dz2     :     0.001755  d :     0.005691
      dxz     :     0.003581
      dyz     :     0.000167
      dx2y2   :     0.000188
      dxy     :    -0.000000
      f0      :    -0.000141  f :    -0.000701
      f+1     :    -0.000502
      f-1     :    -0.000179
      f+2     :     0.000022
      f-2     :    -0.000000
      f+3     :     0.000049
      f-3     :     0.000051
      g0      :     0.000006  g :    -0.000225
      g+1     :    -0.000186
      g-1     :    -0.000049
      g+2     :     0.000000
      g-2     :    -0.000000
      g+3     :     0.000002
      g-3     :     0.000002
      g+4     :    -0.000000
      g-4     :    -0.000000
      h0      :    -0.000001  h :    -0.000059
      h+1     :    -0.000043
      h-1     :    -0.000015
      h+2     :    -0.000000
      h-2     :    -0.000000
      h+3     :     0.000000
      h-3     :     0.000000
      h+4     :    -0.000000
      h-4     :    -0.000000
      h+5     :    -0.000000
      h-5     :    -0.000000
  1 C s       :    -0.057418  s :    -0.057418
      pz      :    -0.022538  p :    -0.039781
      px      :     0.006650
      py      :    -0.023892
      dz2     :    -0.003914  d :     0.037688
      dxz     :     0.043493
      dyz     :    -0.001886
      dx2y2   :    -0.000005
      dxy     :    -0.000000
      f0      :    -0.000549  f :     0.000296
      f+1     :     0.000628
      f-1     :     0.000206
      f+2     :     0.000005
      f-2     :    -0.000000
      f+3     :     0.000003
      f-3     :     0.000003
      g0      :    -0.000029  g :     0.000410
      g+1     :     0.000535
      g-1     :    -0.000087
      g+2     :     0.000000
      g-2     :     0.000000
      g+3     :    -0.000004
      g-3     :    -0.000005
      g+4     :     0.000000
      g-4     :    -0.000000
      h0      :    -0.000015  h :    -0.000045
      h+1     :    -0.000028
      h-1     :    -0.000004
      h+2     :    -0.000001
      h-2     :    -0.000000
      h+3     :     0.000001
      h-3     :     0.000001
      h+4     :     0.000000
      h-4     :    -0.000000
      h+5     :     0.000000
      h-5     :     0.000000
  2 O s       :     0.027810  s :     0.027810
      pz      :     0.007436  p :     0.304551
      px      :     0.292624
      py      :     0.004491
      dz2     :     0.001423  d :     0.000474
      dxz     :    -0.001146
      dyz     :     0.000163
      dx2y2   :     0.000033
      dxy     :     0.000000
      f0      :     0.000587  f :     0.001597
      f+1     :     0.000909
      f-1     :     0.000089
      f+2     :     0.000005
      f-2     :    -0.000000
      f+3     :     0.000004
      f-3     :     0.000004
      g0      :     0.000188  g :     0.000913
      g+1     :     0.000625
      g-1     :     0.000103
      g+2     :    -0.000001
      g-2     :    -0.000000
      g+3     :    -0.000001
      g-3     :    -0.000001
      g+4     :    -0.000000
      g-4     :    -0.000000
      h0      :     0.000035  h :     0.000275
      h+1     :     0.000198
      h-1     :     0.000042
      h+2     :    -0.000000
      h-2     :    -0.000000
      h+3     :    -0.000000
      h-3     :    -0.000000
      h+4     :     0.000000
      h-4     :     0.000000
      h+5     :    -0.000000
      h-5     :    -0.000000


                     *******************************
                     * LOEWDIN POPULATION ANALYSIS *
                     *******************************

-------------------------------------------
LOEWDIN ATOMIC CHARGES AND SPIN POPULATIONS
-------------------------------------------
   0 N :    0.192144    0.529102
   1 C :   -0.482498    0.198008
   2 O :    0.290354    0.272890

----------------------------------------------------
LOEWDIN REDUCED ORBITAL CHARGES AND SPIN POPULATIONS
----------------------------------------------------
CHARGE
  0 N s       :     3.103850  s :     3.103850
      pz      :     1.357723  p :     3.099763
      px      :     0.653560
      py      :     1.088480
      dz2     :     0.125042  d :     0.256988
      dxz     :     0.064816
      dyz     :     0.066899
      dx2y2   :     0.000232
      dxy     :     0.000000
      f0      :     0.059868  f :     0.152934
      f+1     :     0.044987
      f-1     :     0.047964
      f+2     :     0.000027
      f-2     :     0.000000
      f+3     :     0.000042
      f-3     :     0.000046
      g0      :     0.044347  g :     0.113251
      g+1     :     0.032812
      g-1     :     0.036088
      g+2     :     0.000002
      g-2     :     0.000000
      g+3     :     0.000001
      g-3     :     0.000001
      g+4     :     0.000000
      g-4     :     0.000000
      h0      :     0.029325  h :     0.081070
      h+1     :     0.023776
      h-1     :     0.027969
      h+2     :     0.000000
      h-2     :     0.000000
      h+3     :     0.000000
      h-3     :     0.000000
      h+4     :     0.000000
      h-4     :     0.000000
      h+5     :     0.000000
      h-5     :     0.000000
  1 C s       :     2.639699  s :     2.639699
      pz      :     1.170768  p :     2.475697
      px      :     0.618844
      py      :     0.686084
      dz2     :     0.393967  d :     1.000029
      dxz     :     0.212184
      dyz     :     0.393858
      dx2y2   :     0.000020
      dxy     :     0.000000
      f0      :     0.117448  f :     0.258933
      f+1     :     0.070988
      f-1     :     0.070468
      f+2     :     0.000018
      f-2     :     0.000000
      f+3     :     0.000005
      f-3     :     0.000006
      g0      :     0.021210  g :     0.093742
      g+1     :     0.026829
      g-1     :     0.045692
      g+2     :     0.000007
      g-2     :     0.000000
      g+3     :     0.000002
      g-3     :     0.000002
      g+4     :     0.000000
      g-4     :     0.000000
      h0      :     0.006154  h :     0.014398
      h+1     :     0.004063
      h-1     :     0.004177
      h+2     :     0.000002
      h-2     :     0.000000
      h+3     :     0.000001
      h-3     :     0.000001
      h+4     :     0.000000
      h-4     :     0.000000
      h+5     :     0.000000
      h-5     :     0.000000
  2 O s       :     3.155019  s :     3.155019
      pz      :     1.506325  p :     3.910502
      px      :     1.097218
      py      :     1.306960
      dz2     :     0.128692  d :     0.286869
      dxz     :     0.064732
      dyz     :     0.093413
      dx2y2   :     0.000032
      dxy     :     0.000000
      f0      :     0.069668  f :     0.175943
      f+1     :     0.042967
      f-1     :     0.063288
      f+2     :     0.000005
      f-2     :     0.000000
      f+3     :     0.000007
      f-3     :     0.000007
      g0      :     0.045339  g :     0.112110
      g+1     :     0.025757
      g-1     :     0.041009
      g+2     :     0.000002
      g-2     :     0.000000
      g+3     :     0.000001
      g-3     :     0.000001
      g+4     :     0.000000
      g-4     :     0.000000
      h0      :     0.025204  h :     0.069203
      h+1     :     0.016408
      h-1     :     0.027586
      h+2     :     0.000003
      h-2     :     0.000000
      h+3     :     0.000001
      h-3     :     0.000001
      h+4     :     0.000000
      h-4     :     0.000000
      h+5     :     0.000000
      h-5     :     0.000000

SPIN
  0 N s       :     0.005209  s :     0.005209
      pz      :     0.000060  p :     0.524377
      px      :     0.507694
      py      :     0.016623
      dz2     :     0.000101  d :    -0.003919
      dxz     :    -0.002889
      dyz     :    -0.001284
      dx2y2   :     0.000153
      dxy     :     0.000000
      f0      :    -0.000536  f :    -0.002125
      f+1     :    -0.000718
      f-1     :    -0.000971
      f+2     :     0.000023
      f-2     :    -0.000000
      f+3     :     0.000039
      f-3     :     0.000039
      g0      :    -0.000047  g :     0.001803
      g+1     :     0.002103
      g-1     :    -0.000255
      g+2     :     0.000001
      g-2     :    -0.000000
      g+3     :     0.000001
      g-3     :     0.000001
      g+4     :    -0.000000
      g-4     :    -0.000000
      h0      :     0.000042  h :     0.003756
      h+1     :     0.003790
      h-1     :    -0.000076
      h+2     :     0.000000
      h-2     :    -0.000000
      h+3     :     0.000000
      h-3     :     0.000000
      h+4     :    -0.000000
      h-4     :    -0.000000
      h+5     :    -0.000000
      h-5     :    -0.000000
  1 C s       :    -0.004787  s :    -0.004787
      pz      :    -0.005418  p :    -0.002677
      px      :     0.015184
      py      :    -0.012443
      dz2     :     0.002028  d :     0.172652
      dxz     :     0.172197
      dyz     :    -0.001586
      dx2y2   :     0.000013
      dxy     :     0.000000
      f0      :     0.000947  f :     0.011873
      f+1     :     0.008785
      f-1     :     0.002119
      f+2     :     0.000013
      f-2     :    -0.000000
      f+3     :     0.000004
      f-3     :     0.000005
      g0      :    -0.000013  g :     0.020509
      g+1     :     0.020247
      g-1     :     0.000267
      g+2     :     0.000005
      g-2     :     0.000000
      g+3     :     0.000001
      g-3     :     0.000001
      g+4     :    -0.000000
      g-4     :     0.000000
      h0      :    -0.000076  h :     0.000437
      h+1     :     0.000443
      h-1     :     0.000067
      h+2     :     0.000002
      h-2     :    -0.000000
      h+3     :     0.000001
      h-3     :     0.000001
      h+4     :    -0.000000
      h-4     :     0.000000
      h+5     :    -0.000000
      h-5     :    -0.000000
  2 O s       :     0.001656  s :     0.001656
      pz      :     0.000824  p :     0.216805
      px      :     0.214723
      py      :     0.001259
      dz2     :    -0.000780  d :     0.010823
      dxz     :     0.014723
      dyz     :    -0.003150
      dx2y2   :     0.000029
      dxy     :    -0.000000
      f0      :    -0.000062  f :     0.013961
      f+1     :     0.015135
      f-1     :    -0.001130
      f+2     :     0.000004
      f-2     :    -0.000000
      f+3     :     0.000007
      f-3     :     0.000007
      g0      :     0.000315  g :     0.016140
      g+1     :     0.015684
      g-1     :     0.000138
      g+2     :     0.000001
      g-2     :    -0.000000
      g+3     :     0.000001
      g-3     :     0.000001
      g+4     :    -0.000000
      g-4     :    -0.000000
      h0      :     0.000290  h :     0.013505
      h+1     :     0.012843
      h-1     :     0.000366
      h+2     :     0.000002
      h-2     :    -0.000000
      h+3     :     0.000001
      h-3     :     0.000001
      h+4     :    -0.000000
      h-4     :    -0.000000
      h+5     :    -0.000000
      h-5     :    -0.000000


                      *****************************
                      * MAYER POPULATION ANALYSIS *
                      *****************************

  NA   - Mulliken gross atomic population
  ZA   - Total nuclear charge
  QA   - Mulliken gross atomic charge
  VA   - Mayer's total valence
  BVA  - Mayer's bonded valence
  FA   - Mayer's free valence

  ATOM       NA         ZA         QA         VA         BVA        FA
  0 N      7.0637     7.0000    -0.0637     2.7899     2.3505     0.4394
  1 C      5.8982     6.0000     0.1018     4.1720     4.1550     0.0170
  2 O      8.0381     8.0000    -0.0381     2.3234     2.2399     0.0834

  Mayer bond orders larger than 0.1
B(  0-N ,  1-C ) :   2.1328 B(  0-N ,  2-O ) :   0.2177 B(  1-C ,  2-O ) :   2.0222 


-------
TIMINGS
-------

Total SCF time: 0 days 0 hours 31 min 21 sec 

Total time                  ....    1881.301 sec
Sum of individual times     ....    1879.697 sec  ( 99.9%)

Fock matrix formation       ....    1873.953 sec  ( 99.6%)
  XC integration            ....      26.531 sec  (  1.4% of F)
    Basis function eval.    ....       1.501 sec  (  5.7% of XC)
    Density eval.           ....       6.754 sec  ( 25.5% of XC)
    XC-Functional eval.     ....       0.215 sec  (  0.8% of XC)
    XC-Potential eval.      ....      16.152 sec  ( 60.9% of XC)
Diagonalization             ....       2.471 sec  (  0.1%)
Density matrix formation    ....       0.039 sec  (  0.0%)
Population analysis         ....       0.252 sec  (  0.0%)
Initial guess               ....       0.998 sec  (  0.1%)
Orbital Transformation      ....       0.000 sec  (  0.0%)
Orbital Orthonormalization  ....       0.000 sec  (  0.0%)
DIIS solution               ....       1.488 sec  (  0.1%)
Grid generation             ....       0.496 sec  (  0.0%)

-------------------------   --------------------
FINAL SINGLE POINT ENERGY      -167.906359042919
-------------------------   --------------------


                            ***************************************
                            *     ORCA property calculations      *
                            ***************************************

                                    ---------------------
                                    Active property flags
                                    ---------------------
   (+) Dipole Moment
   (+) Polarizability


------------------------------------------------------------------------------
                       ORCA ELECTRIC PROPERTIES CALCULATION
------------------------------------------------------------------------------

Dipole Moment Calculation                       ... on
Quadrupole Moment Calculation                   ... off
Polarizability Calculation                      ... Analytic (CP-SCF)
GBWName                                         ... nco_pbe.gbw
Electron density file                           ... nco_pbe.scfp.tmp
The origin for moment calculation is the CENTER OF MASS  = ( 0.000000, -0.000000 -0.003065)

-------------
DIPOLE MOMENT
-------------
                                X             Y             Z
Electronic contribution:     -0.00000       0.00000       0.32934
Nuclear contribution   :      0.00000      -0.00000       0.00975
                        -----------------------------------------
Total Dipole Moment    :     -0.00000       0.00000       0.33909
                        -----------------------------------------
Magnitude (a.u.)       :      0.33909
Magnitude (Debye)      :      0.86191



--------------------
Rotational spectrum 
--------------------
 
Rotational constants in cm-1:     0.000000     0.390178     0.390178 
Rotational constants in MHz :     0.000000 11697.239848 11697.239848 

 Dipole components along the rotational axes: 
x,y,z [a.u.] :     0.339093     0.000001     0.000000 
x,y,z [Debye]:     0.861905     0.000002     0.000000 

 
Transforming and storing MO dipole integrals   ... done

                ... starting polarizability calculation

Opening the Dipole integral file               ... (nco_pbe.dmo.tmp) done
Reading Dipole-MO integrals                    ... done
Solving CP-SCF equations                       ... 

           ************************************************************
           *        Program running with 4 parallel MPI-processes     *
           *              working on a common directory               *
           ************************************************************

------------------------------------------------------------------------------
                           ORCA CP-SCF CALCULATION
------------------------------------------------------------------------------

Input orbitals are from        ... nco_pbe.gbw
Input Perturbation             ... nco_pbe.cpv.tmp
Wavefunction output            ... nco_pbe.cpu.tmp
Perturbation mode              ... Real perturbation (singlet)
Solver                         ... POPLE
Max. number of iterations      ... 200
Convergence tolerance          ... 1.000e-06
Integral handling              ... Direct
Number of perturbations        ... 3
Number of operators            ... 2
Orbital ranges used for CP-SCF:
 Operator 0:  Orbitals   0... 10  to  11...434
 Operator 1:  Orbitals   0...  9  to  10...434
DFT calculation                         ... on
Exchange functional (SCF)               ... PBE
Exchange functional (CP-SCF)            ... PBE
   PBE kappa parameter  XKappa (SCF)    ...  0.804000
   PBE kappa parameter  XKappa (CP-SCF) ...  0.804000
   PBE mue parameter   XMuePBE (SCF)    ...  0.219520
   PBE mue parameter   XMuePBE (CP-SCF) ...  0.219520
Correlation functional (SCF)            ... PBE
Correlation functional (CP-SCF)         ... PBE
   PBE beta parameter CBetaPBE (SCF)    ...  0.066725
   PBE beta parameter CBetaPBE (CP-SCF) ...  0.066725
 LDA part of GGA corr.  LDAOpt (SCF)    ... PW91-LDA
 LDA part of GGA corr.  LDAOpt (CP-SCF) ... PW91-LDA
Variables per vector in CP-SCF ... 8914
Number of vectors sought       ... 3
Recalculating density on grid  ... done
Calculating the xc-kernel      ... done
     CP-SCF ITERATION   0: 
     CP-SCF ITERATION   1:      0.507567905330
     CP-SCF ITERATION   2:      0.069510072439
     CP-SCF ITERATION   3:      0.004067972011
     CP-SCF ITERATION   4:      0.000488177303
     CP-SCF ITERATION   5:      0.000007398214
     CP-SCF ITERATION   6:      0.000000854749
done
Reading CP-SCF coefficients                    ... done
Doing the polarizability tensor   ... done
Cleaning up                                    ... done

-------------------------
THE POLARIZABILITY TENSOR
-------------------------

The raw cartesian tensor (atomic units):
   15.87729      0.00000     -0.00043  
    0.00000     16.16946      0.00000  
   -0.00043      0.00000     33.11866  
diagonalized tensor: 
   15.87729     16.16946     33.11866  

   -1.00000      0.00000     -0.00003  
    0.00000      1.00000      0.00000  
   -0.00003     -0.00000      1.00000  

Isotropic polarizability :  21.72180


Timings for individual modules:

Sum of individual times         ...     3208.555 sec (=  53.476 min)
GTO integral calculation        ...        5.181 sec (=   0.086 min)   0.2 %
SCF iterations                  ...     1882.898 sec (=  31.382 min)  58.7 %
Solution of CP-SCF eqns.        ...     1320.476 sec (=  22.008 min)  41.2 %
                             ****ORCA TERMINATED NORMALLY****
TOTAL RUN TIME: 0 days 0 hours 53 minutes 31 seconds 663 msec
