
                                 *****************
                                 * O   R   C   A *
                                 *****************

           --- An Ab Initio, DFT and Semiempirical electronic structure package ---

                  #######################################################
                  #                        -***-                        #
                  #          Department of theory and spectroscopy      #
                  #               Directorship: Frank Neese             #
                  #        Max Planck Institute fuer Kohlenforschung    #
                  #                Kaiser Wilhelm Platz 1               #
                  #                 D-45470 Muelheim/Ruhr               #
                  #                      Germany                        #
                  #                                                     #
                  #                  All rights reserved                #
                  #                        -***-                        #
                  #######################################################


                         Program Version 4.1.2  - RELEASE  -


 With contributions from (in alphabetic order):
   Daniel Aravena         : Magnetic Properties
   Michael Atanasov       : Ab Initio Ligand Field Theory
   Alexander A. Auer      : GIAO ZORA
   Ute Becker             : Parallelization
   Giovanni Bistoni       : ED, Open-shell LED
   Martin Brehm           : Molecular dynamics
   Dmytro Bykov           : SCF Hessian
   Vijay G. Chilkuri      : MRCI spin determinant printing
   Dipayan Datta          : RHF DLPNO-CCSD density
   Achintya Kumar Dutta   : EOM-CC, STEOM-CC
   Dmitry Ganyushin       : Spin-Orbit,Spin-Spin,Magnetic field MRCI
   Miquel Garcia          : C-PCM Hessian
   Yang Guo               : DLPNO-NEVPT2, CIM, IAO-localization
   Andreas Hansen         : Spin unrestricted coupled pair/coupled cluster methods
   Benjamin Helmich-Paris : CASSCF linear response (MC-RPA)
   Lee Huntington         : MR-EOM, pCC
   Robert Izsak           : Overlap fitted RIJCOSX, COSX-SCS-MP3, EOM
   Christian Kollmar      : KDIIS, OOCD, Brueckner-CCSD(T), CCSD density
   Simone Kossmann        : Meta GGA functionals, TD-DFT gradient, OOMP2, MP2 Hessian
   Martin Krupicka        : AUTO-CI
   Lucas Lang             : DCDCAS
   Dagmar Lenk            : GEPOL surface, SMD
   Dimitrios Liakos       : Extrapolation schemes; parallel MDCI
   Dimitrios Manganas     : ROCIS; embedding schemes
   Dimitrios Pantazis     : SARC Basis sets
   Taras Petrenko         : DFT Hessian,TD-DFT gradient, ASA, ECA, R-Raman, ABS, FL, XAS/XES, NRVS
   Peter Pinski           : DLPNO-MP2, DLPNO-MP2 Gradient
   Christoph Reimann      : Effective Core Potentials
   Marius Retegan         : Local ZFS, SOC
   Christoph Riplinger    : Optimizer, TS searches, QM/MM, DLPNO-CCSD(T), (RO)-DLPNO pert. Triples
   Tobias Risthaus        : Range-separated hybrids, TD-DFT gradient, RPA, STAB
   Michael Roemelt        : Restricted open shell CIS
   Masaaki Saitow         : Open-shell DLPNO
   Barbara Sandhoefer     : DKH picture change effects
   Avijit Sen             : IP-ROCIS
   Kantharuban Sivalingam : CASSCF convergence, NEVPT2, FIC-MRCI
   Bernardo de Souza      : ESD, SOC TD-DFT
   Georgi Stoychev        : AutoAux, RI-MP2 NMR
   Willem Van den Heuvel  : Paramagnetic NMR
   Boris Wezisla          : Elementary symmetry handling
   Frank Wennmohs         : Technical directorship


 We gratefully acknowledge several colleagues who have allowed us to
 interface, adapt or use parts of their codes:
   Stefan Grimme, W. Hujo, H. Kruse,             : VdW corrections, initial TS optimization,
                  C. Bannwarth                     DFT functionals, gCP, sTDA/sTD-DF
   Ed Valeev                                     : LibInt (2-el integral package), F12 methods
   Garnet Chan, S. Sharma, J. Yang, R. Olivares  : DMRG
   Ulf Ekstrom                                   : XCFun DFT Library
   Mihaly Kallay                                 : mrcc  (arbitrary order and MRCC methods)
   Andreas Klamt, Michael Diedenhofen            : otool_cosmo (COSMO solvation model)
   Jiri Pittner, Ondrej Demel                    : Mk-CCSD
   Frank Weinhold                                : gennbo (NPA and NBO analysis)
   Christopher J. Cramer and Donald G. Truhlar   : smd solvation model
   Lars Goerigk                                  : TD-DFT with DH, B97 family of functionals
   V. Asgeirsson, H. Jonsson                     : NEB implementation
   FAccTs GmbH                                   : IRC, NEB, NEB-TS, Multilevel


 Your calculation uses the libint2 library for the computation of 2-el integrals
 For citations please refer to: http://libint.valeyev.net

 This ORCA versions uses:
   CBLAS   interface :  Fast vector & matrix operations
   LAPACKE interface :  Fast linear algebra routines
   SCALAPACK package :  Parallel linear algebra routines


----- Orbital basis set information -----
Your calculation utilizes the basis: aug-pc-4
   H, C-F              : F. Jensen, J. Chem. Phys. 115, 9113 (2001).
                         F. Jensen, J. Chem. Phys. 116, 7372 (2002).
                         F. Jensen, J. Chem. Phys. 117, 9234 (2002).
   Si-Cl               : F. Jensen, T. Helgaker, J. Chem. Phys. 121, 3463 (2004).
   He-B, Ne-Mg, Al, Ar : F. Jensen, J. Phys. Chem. A 111, 11198 (2007).
   K, Ca, Ga-Kr        : F. Jensen, J. Chem. Phys. 136, 094110 (2012).
   Sc-Zn               : F. Jensen, J. Chem. Phys. 138, 014107 (2013).

================================================================================
                                        WARNINGS
                       Please study these warnings very carefully!
================================================================================


INFO   : the flag for use of LIBINT has been found!

================================================================================
                                       INPUT FILE
================================================================================
NAME = ne_pbe.inp
|  1> !uks pbe nori aug-pc-4 grid5 nofinalgrid verytightscf
|  2> 
|  3> %maxcore 1500
|  4> 
|  5> %pal nprocs 4 end
|  6> 
|  7> %scf
|  8> 	maxiter 200
|  9> end
| 10> %elprop
| 11> 	dipole true
| 12> 	 polar 1
| 13> 	 maxiter 200
| 14> end
| 15> 
| 16> * xyz 0 1
| 17> Ne 0.0 0.0 0.0
| 18> *
| 19> 
| 20>                          ****END OF INPUT****
================================================================================

                       ****************************
                       * Single Point Calculation *
                       ****************************

---------------------------------
CARTESIAN COORDINATES (ANGSTROEM)
---------------------------------
  Ne     0.000000    0.000000    0.000000

----------------------------
CARTESIAN COORDINATES (A.U.)
----------------------------
  NO LB      ZA    FRAG     MASS         X           Y           Z
   0 Ne   10.0000    0    20.179    0.000000    0.000000    0.000000

--------------------------------
INTERNAL COORDINATES (ANGSTROEM)
--------------------------------
 Ne     0   0   0     0.000000000000     0.00000000     0.00000000

---------------------------
INTERNAL COORDINATES (A.U.)
---------------------------
 Ne     0   0   0     0.000000000000     0.00000000     0.00000000

---------------------
BASIS SET INFORMATION
---------------------
There are 1 groups of distinct atoms

 Group   1 Type Ne  : 27s12p7d4f3g2h contracted to 9s8p7d4f3g2h pattern {1191111111/51111111/1111111/1111/111/11}

Atom   0Ne   basis set group =>   1


           ************************************************************
           *        Program running with 4 parallel MPI-processes     *
           *              working on a common directory               *
           ************************************************************
------------------------------------------------------------------------------
                           ORCA GTO INTEGRAL CALCULATION
------------------------------------------------------------------------------

                         BASIS SET STATISTICS AND STARTUP INFO

 # of primitive gaussian shells          ...   55
 # of primitive gaussian functions       ...  175
 # of contracted shells                  ...   33
 # of contracted basis functions         ...  145
 Highest angular momentum                ...    5
 Maximum contraction depth               ...   11
 Integral package used                   ... LIBINT
 Integral threshhold            Thresh   ...  1.000e-12
 Primitive cut-off              TCut     ...  1.000e-14


------------------------------ INTEGRAL EVALUATION ----------------------------


 * One electron integrals 
 Pre-screening matrix                    ... done
 Shell pair data                         ... done (   0.000 sec)



           ************************************************************
           *        Program running with 4 parallel MPI-processes     *
           *              working on a common directory               *
           ************************************************************
-------------------------------------------------------------------------------
                                 ORCA SCF
-------------------------------------------------------------------------------

------------
SCF SETTINGS
------------
Hamiltonian:
 Density Functional     Method          .... DFT(GTOs)
 Exchange Functional    Exchange        .... PBE
   PBE kappa parameter   XKappa         ....  0.804000
   PBE mue parameter    XMuePBE         ....  0.219520
 Correlation Functional Correlation     .... PBE
   PBE beta parameter  CBetaPBE         ....  0.066725
 LDA part of GGA corr.  LDAOpt          .... PW91-LDA
 Gradients option       PostSCFGGA      .... off
   Density functional embedding theory  .... OFF
   NL short-range parameter             ....  6.400000


General Settings:
 Integral files         IntName         .... ne_pbe
 Hartree-Fock type      HFTyp           .... UHF
 Total Charge           Charge          ....    0
 Multiplicity           Mult            ....    1
 Number of Electrons    NEL             ....   10
 Basis Dimension        Dim             ....  145
 Nuclear Repulsion      ENuc            ....      0.0000000000 Eh

Convergence Acceleration:
 DIIS                   CNVDIIS         .... on
   Start iteration      DIISMaxIt       ....    12
   Startup error        DIISStart       ....  0.200000
   # of expansion vecs  DIISMaxEq       ....     5
   Bias factor          DIISBfac        ....   1.050
   Max. coefficient     DIISMaxC        ....  10.000
 Newton-Raphson         CNVNR           .... off
 SOSCF                  CNVSOSCF        .... off
 Level Shifting         CNVShift        .... on
   Level shift para.    LevelShift      ....    0.2500
   Turn off err/grad.   ShiftErr        ....    0.0010
 Zerner damping         CNVZerner       .... off
 Static damping         CNVDamp         .... on
   Fraction old density DampFac         ....    0.7000
   Max. Damping (<1)    DampMax         ....    0.9800
   Min. Damping (>=0)   DampMin         ....    0.0000
   Turn off err/grad.   DampErr         ....    0.1000
 Fernandez-Rico         CNVRico         .... off

SCF Procedure:
 Maximum # iterations   MaxIter         ....   200
 SCF integral mode      SCFMode         .... Direct
   Integral package                     .... LIBINT
 Reset frequency        DirectResetFreq ....    20
 Integral Threshold     Thresh          ....  1.000e-12 Eh
 Primitive CutOff       TCut            ....  1.000e-14 Eh

Convergence Tolerance:
 Convergence Check Mode ConvCheckMode   .... Total+1el-Energy
 Convergence forced     ConvForced      .... 0
 Energy Change          TolE            ....  1.000e-09 Eh
 1-El. energy change                    ....  1.000e-06 Eh
 DIIS Error             TolErr          ....  1.000e-08


Diagonalization of the overlap matrix:
Smallest eigenvalue                        ... 1.134e-03
Time for diagonalization                   ...    0.003 sec
Threshold for overlap eigenvalues          ... 1.000e-08
Number of eigenvalues below threshold      ... 0
Time for construction of square roots      ...    0.015 sec
Total time needed                          ...    0.018 sec

-------------------
DFT GRID GENERATION
-------------------

General Integration Accuracy     IntAcc      ...  5.010
Radial Grid Type                 RadialGrid  ... Gauss-Chebyshev
Angular Grid (max. acc.)         AngularGrid ... Lebedev-434
Angular grid pruning method      GridPruning ... 3 (G Style)
Weight generation scheme         WeightScheme... Becke
Basis function cutoff            BFCut       ...    1.0000e-12
Integration weight cutoff        WCut        ...    1.0000e-14
Grids for H and He will be reduced by one unit

# of grid points (after initial pruning)     ...  10818 (   0.0 sec)
# of grid points (after weights+screening)   ...  10818 (   0.0 sec)
Grid point division into batches done        ...    0.1 sec
Reduced shell lists constructed in    0.1 sec

Total number of grid points                  ...    10818
Total number of batches                      ...      170
Average number of points per batch           ...       63
Average number of grid points per atom       ...    10818
Average number of shells per batch           ...    11.66 (35.33%)
Average number of basis functions per batch  ...    55.52 (38.29%)
Average number of large shells per batch     ...     9.34 (80.12%)
Average number of large basis fcns per batch ...    42.66 (76.83%)
Maximum spatial batch extension              ...  16.29, 16.29, 16.29 au
Average spatial batch extension              ...   2.70,  2.63,  2.59 au

Time for grid setup =    0.129 sec

------------------------------
INITIAL GUESS: MODEL POTENTIAL
------------------------------
Loading Hartree-Fock densities                     ... done
Calculating cut-offs                               ... done
Setting up the integral package                    ... done
Initializing the effective Hamiltonian             ... done
Starting the Coulomb interaction                   ... done (   0.0 sec)
Reading the grid                                   ... done
Mapping shells                                     ... done
Starting the XC term evaluation                    ... done (   0.0 sec)
  promolecular density results
     # of electrons  =     10.000000232
     EX              =    -12.067622592
     EC              =     -0.351196717
     EX+EC           =    -12.418819309
Transforming the Hamiltonian                       ... done (   0.0 sec)
Diagonalizing the Hamiltonian                      ... done (   0.0 sec)
Back transforming the eigenvectors                 ... done (   0.0 sec)
Now organizing SCF variables                       ... done
                      ------------------
                      INITIAL GUESS DONE (   0.3 sec)
                      ------------------
--------------
SCF ITERATIONS
--------------
ITER       Energy         Delta-E        Max-DP      RMS-DP      [F,P]     Damp
               ***  Starting incremental Fock matrix formation  ***
  0   -128.8653739497   0.000000000000 0.00117140  0.00003220  0.0401770 0.7000
  1   -128.8658842022  -0.000510252472 0.00062009  0.00001871  0.0162749 0.7000
                               ***Turning on DIIS***
  2   -128.8660642944  -0.000180092193 0.00078756  0.00002707  0.0044044 0.0000
  3   -128.8663886472  -0.000324352752 0.00031087  0.00000859  0.0087274 0.0000
  4   -128.8664342130  -0.000045565870 0.00009605  0.00000293  0.0020283 0.0000
  5   -128.8664372947  -0.000003081709 0.00003840  0.00000094  0.0003772 0.0000
  6   -128.8664374464  -0.000000151691 0.00000166  0.00000004  0.0000157 0.0000
  7   -128.8664374466  -0.000000000169 0.00000005  0.00000000  0.0000018 0.0000
  8   -128.8664374466  -0.000000000002 0.00000001  0.00000000  0.0000002 0.0000
                 **** Energy Check signals convergence ****

               *****************************************************
               *                     SUCCESS                       *
               *           SCF CONVERGED AFTER   9 CYCLES          *
               *****************************************************


----------------
TOTAL SCF ENERGY
----------------

Total Energy       :         -128.86643745 Eh           -3506.63404 eV

Components:
Nuclear Repulsion  :            0.00000000 Eh               0.00000 eV
Electronic Energy  :         -128.86643745 Eh           -3506.63404 eV
One Electron Energy:         -182.33507247 Eh           -4961.58956 eV
Two Electron Energy:           53.46863502 Eh            1454.95553 eV

Virial components:
Potential Energy   :         -257.42889634 Eh           -7004.99640 eV
Kinetic Energy     :          128.56245889 Eh            3498.36236 eV
Virial Ratio       :            2.00236444


DFT components:
N(Alpha)           :        4.999999983461 electrons
N(Beta)            :        4.999999983461 electrons
N(Total)           :        9.999999966922 electrons
E(X)               :      -12.027502519535 Eh       
E(C)               :       -0.346984001459 Eh       
E(XC)              :      -12.374486520994 Eh       
DFET-embed. en.    :        0.000000000000 Eh       

---------------
SCF CONVERGENCE
---------------

  Last Energy change         ...    4.2633e-13  Tolerance :   1.0000e-09
  Last MAX-Density change    ...    8.0220e-10  Tolerance :   1.0000e-08
  Last RMS-Density change    ...    1.0729e-11  Tolerance :   1.0000e-09
  Last DIIS Error            ...    1.7228e-09  Tolerance :   1.0000e-08

             **** THE GBW FILE WAS UPDATED (ne_pbe.gbw) ****
             **** DENSITY FILE WAS UPDATED (ne_pbe.scfp.tmp) ****
             **** ENERGY FILE WAS UPDATED (ne_pbe.en.tmp) ****
----------------------
UHF SPIN CONTAMINATION
----------------------

Warning: in a DFT calculation there is little theoretical justification to 
         calculate <S**2> as in Hartree-Fock theory. We will do it anyways
         but you should keep in mind that the values have only limited relevance

Expectation value of <S**2>     :    -0.000000
Ideal value S*(S+1) for S=0.0   :     0.000000
Deviation                       :    -0.000000

----------------
ORBITAL ENERGIES
----------------
                 SPIN UP ORBITALS
  NO   OCC          E(Eh)            E(eV) 
   0   1.0000     -30.489321      -829.6566 
   1   1.0000      -1.333190       -36.2779 
   2   1.0000      -0.490503       -13.3473 
   3   1.0000      -0.490503       -13.3473 
   4   1.0000      -0.490503       -13.3473 
   5   0.0000       0.042022         1.1435 
   6   0.0000       0.061204         1.6654 
   7   0.0000       0.061204         1.6654 
   8   0.0000       0.061204         1.6654 
   9   0.0000       0.280017         7.6196 
  10   0.0000       0.280017         7.6196 
  11   0.0000       0.280017         7.6196 
  12   0.0000       0.301442         8.2027 
  13   0.0000       0.301442         8.2027 
  14   0.0000       0.301442         8.2027 
  15   0.0000       0.301442         8.2027 
  16   0.0000       0.301442         8.2027 
  17   0.0000       0.560424        15.2499 
  18   0.0000       0.614257        16.7148 
  19   0.0000       0.614257        16.7148 
  20   0.0000       0.614257        16.7148 
  21   0.0000       0.614257        16.7148 
  22   0.0000       0.614257        16.7148 
  23   0.0000       0.614257        16.7148 
  24   0.0000       0.614257        16.7148 
  25   0.0000       0.946303        25.7502 
  26   0.0000       0.946303        25.7502 
  27   0.0000       0.946303        25.7502 
  28   0.0000       0.982598        26.7378 
  29   0.0000       0.982598        26.7378 
  30   0.0000       0.982598        26.7378 
  31   0.0000       0.982598        26.7378 
  32   0.0000       0.982598        26.7378 
  33   0.0000       1.008486        27.4423 
  34   0.0000       1.008486        27.4423 
  35   0.0000       1.008486        27.4423 
  36   0.0000       1.008486        27.4423 
  37   0.0000       1.008486        27.4423 
  38   0.0000       1.008486        27.4423 
  39   0.0000       1.008486        27.4423 
  40   0.0000       1.008486        27.4423 
  41   0.0000       1.008486        27.4423 
  42   0.0000       1.477082        40.1935 
  43   0.0000       1.477082        40.1935 
  44   0.0000       1.477082        40.1935 
  45   0.0000       1.477082        40.1935 
  46   0.0000       1.477082        40.1935 
  47   0.0000       1.477082        40.1935 
  48   0.0000       1.477082        40.1935 
  49   0.0000       1.477082        40.1935 
  50   0.0000       1.477082        40.1935 
  51   0.0000       1.477082        40.1935 
  52   0.0000       1.477082        40.1935 
  53   0.0000       2.146096        58.3982 
  54   0.0000       2.571345        69.9699 
  55   0.0000       2.571345        69.9699 
  56   0.0000       2.571345        69.9699 
  57   0.0000       2.571345        69.9699 
  58   0.0000       2.571345        69.9699 
  59   0.0000       2.604692        70.8773 
  60   0.0000       2.604692        70.8773 
  61   0.0000       2.604692        70.8773 
  62   0.0000       2.604692        70.8773 
  63   0.0000       2.604692        70.8773 
  64   0.0000       2.604692        70.8773 
  65   0.0000       2.604692        70.8773 
  66   0.0000       2.702620        73.5420 
  67   0.0000       2.702620        73.5420 
  68   0.0000       2.702620        73.5420 
  69   0.0000       6.299600       171.4208 
  70   0.0000       6.299600       171.4208 
  71   0.0000       6.299600       171.4208 
  72   0.0000       6.299600       171.4208 
  73   0.0000       6.299600       171.4208 
  74   0.0000       6.600522       179.6093 
  75   0.0000       7.020718       191.0435 
  76   0.0000       7.020718       191.0435 
  77   0.0000       7.020718       191.0435 
  78   0.0000       7.020718       191.0435 
  79   0.0000       7.020718       191.0435 
  80   0.0000       7.020718       191.0435 
  81   0.0000       7.020718       191.0435 
  82   0.0000       7.093751       193.0308 
  83   0.0000       7.093751       193.0308 
  84   0.0000       7.093751       193.0308 
  85   0.0000       8.271374       225.0755 
  86   0.0000       8.271374       225.0755 
  87   0.0000       8.271374       225.0755 
  88   0.0000       8.271374       225.0755 
  89   0.0000       8.271374       225.0755 
  90   0.0000       8.271374       225.0755 
  91   0.0000       8.271374       225.0755 
  92   0.0000       8.271374       225.0755 
  93   0.0000       8.271374       225.0755 
  94   0.0000      13.304754       362.0408 
  95   0.0000      13.304754       362.0408 
  96   0.0000      13.304754       362.0408 
  97   0.0000      13.304754       362.0408 
  98   0.0000      13.304754       362.0408 
  99   0.0000      13.304754       362.0408 
 100   0.0000      13.304754       362.0408 
 101   0.0000      13.304754       362.0408 
 102   0.0000      13.304754       362.0408 
 103   0.0000      13.304754       362.0408 
 104   0.0000      13.304754       362.0408 
 105   0.0000      15.040434       409.2710 
 106   0.0000      15.040434       409.2710 
 107   0.0000      15.040434       409.2710 
 108   0.0000      15.040434       409.2710 
 109   0.0000      15.040434       409.2710 
 110   0.0000      17.228015       468.7981 
 111   0.0000      17.228015       468.7981 
 112   0.0000      17.228015       468.7981 
 113   0.0000      17.228015       468.7981 
 114   0.0000      17.228015       468.7981 
 115   0.0000      17.228015       468.7981 
 116   0.0000      17.228015       468.7981 
 117   0.0000      17.952106       488.5016 
 118   0.0000      17.952106       488.5016 
 119   0.0000      17.952106       488.5016 
 120   0.0000      18.854492       513.0568 
 121   0.0000      23.380630       636.2193 
 122   0.0000      23.380630       636.2193 
 123   0.0000      23.380630       636.2193 
 124   0.0000      23.380630       636.2193 
 125   0.0000      23.380630       636.2193 
 126   0.0000      23.380630       636.2193 
 127   0.0000      23.380630       636.2193 
 128   0.0000      23.380630       636.2193 
 129   0.0000      23.380630       636.2193 
 130   0.0000      37.859445      1030.2079 
 131   0.0000      37.859445      1030.2079 
 132   0.0000      37.859445      1030.2079 
 133   0.0000      37.859445      1030.2079 
 134   0.0000      37.859445      1030.2079 
 135   0.0000      52.720802      1434.6060 
 136   0.0000      52.720802      1434.6060 
 137   0.0000      52.720802      1434.6060 
 138   0.0000      54.438795      1481.3549 
 139   0.0000     114.391228      3112.7436 
 140   0.0000     114.391228      3112.7436 
 141   0.0000     114.391228      3112.7436 
 142   0.0000     114.391228      3112.7436 
 143   0.0000     114.391228      3112.7436 
 144   0.0000     259.872953      7071.5026 

                 SPIN DOWN ORBITALS
  NO   OCC          E(Eh)            E(eV) 
   0   1.0000     -30.489321      -829.6566 
   1   1.0000      -1.333190       -36.2779 
   2   1.0000      -0.490503       -13.3473 
   3   1.0000      -0.490503       -13.3473 
   4   1.0000      -0.490503       -13.3473 
   5   0.0000       0.042022         1.1435 
   6   0.0000       0.061204         1.6654 
   7   0.0000       0.061204         1.6654 
   8   0.0000       0.061204         1.6654 
   9   0.0000       0.280017         7.6196 
  10   0.0000       0.280017         7.6196 
  11   0.0000       0.280017         7.6196 
  12   0.0000       0.301442         8.2027 
  13   0.0000       0.301442         8.2027 
  14   0.0000       0.301442         8.2027 
  15   0.0000       0.301442         8.2027 
  16   0.0000       0.301442         8.2027 
  17   0.0000       0.560424        15.2499 
  18   0.0000       0.614257        16.7148 
  19   0.0000       0.614257        16.7148 
  20   0.0000       0.614257        16.7148 
  21   0.0000       0.614257        16.7148 
  22   0.0000       0.614257        16.7148 
  23   0.0000       0.614257        16.7148 
  24   0.0000       0.614257        16.7148 
  25   0.0000       0.946303        25.7502 
  26   0.0000       0.946303        25.7502 
  27   0.0000       0.946303        25.7502 
  28   0.0000       0.982598        26.7378 
  29   0.0000       0.982598        26.7378 
  30   0.0000       0.982598        26.7378 
  31   0.0000       0.982598        26.7378 
  32   0.0000       0.982598        26.7378 
  33   0.0000       1.008486        27.4423 
  34   0.0000       1.008486        27.4423 
  35   0.0000       1.008486        27.4423 
  36   0.0000       1.008486        27.4423 
  37   0.0000       1.008486        27.4423 
  38   0.0000       1.008486        27.4423 
  39   0.0000       1.008486        27.4423 
  40   0.0000       1.008486        27.4423 
  41   0.0000       1.008486        27.4423 
  42   0.0000       1.477082        40.1935 
  43   0.0000       1.477082        40.1935 
  44   0.0000       1.477082        40.1935 
  45   0.0000       1.477082        40.1935 
  46   0.0000       1.477082        40.1935 
  47   0.0000       1.477082        40.1935 
  48   0.0000       1.477082        40.1935 
  49   0.0000       1.477082        40.1935 
  50   0.0000       1.477082        40.1935 
  51   0.0000       1.477082        40.1935 
  52   0.0000       1.477082        40.1935 
  53   0.0000       2.146096        58.3982 
  54   0.0000       2.571345        69.9699 
  55   0.0000       2.571345        69.9699 
  56   0.0000       2.571345        69.9699 
  57   0.0000       2.571345        69.9699 
  58   0.0000       2.571345        69.9699 
  59   0.0000       2.604692        70.8773 
  60   0.0000       2.604692        70.8773 
  61   0.0000       2.604692        70.8773 
  62   0.0000       2.604692        70.8773 
  63   0.0000       2.604692        70.8773 
  64   0.0000       2.604692        70.8773 
  65   0.0000       2.604692        70.8773 
  66   0.0000       2.702620        73.5420 
  67   0.0000       2.702620        73.5420 
  68   0.0000       2.702620        73.5420 
  69   0.0000       6.299600       171.4208 
  70   0.0000       6.299600       171.4208 
  71   0.0000       6.299600       171.4208 
  72   0.0000       6.299600       171.4208 
  73   0.0000       6.299600       171.4208 
  74   0.0000       6.600522       179.6093 
  75   0.0000       7.020718       191.0435 
  76   0.0000       7.020718       191.0435 
  77   0.0000       7.020718       191.0435 
  78   0.0000       7.020718       191.0435 
  79   0.0000       7.020718       191.0435 
  80   0.0000       7.020718       191.0435 
  81   0.0000       7.020718       191.0435 
  82   0.0000       7.093751       193.0308 
  83   0.0000       7.093751       193.0308 
  84   0.0000       7.093751       193.0308 
  85   0.0000       8.271374       225.0755 
  86   0.0000       8.271374       225.0755 
  87   0.0000       8.271374       225.0755 
  88   0.0000       8.271374       225.0755 
  89   0.0000       8.271374       225.0755 
  90   0.0000       8.271374       225.0755 
  91   0.0000       8.271374       225.0755 
  92   0.0000       8.271374       225.0755 
  93   0.0000       8.271374       225.0755 
  94   0.0000      13.304754       362.0408 
  95   0.0000      13.304754       362.0408 
  96   0.0000      13.304754       362.0408 
  97   0.0000      13.304754       362.0408 
  98   0.0000      13.304754       362.0408 
  99   0.0000      13.304754       362.0408 
 100   0.0000      13.304754       362.0408 
 101   0.0000      13.304754       362.0408 
 102   0.0000      13.304754       362.0408 
 103   0.0000      13.304754       362.0408 
 104   0.0000      13.304754       362.0408 
 105   0.0000      15.040434       409.2710 
 106   0.0000      15.040434       409.2710 
 107   0.0000      15.040434       409.2710 
 108   0.0000      15.040434       409.2710 
 109   0.0000      15.040434       409.2710 
 110   0.0000      17.228015       468.7981 
 111   0.0000      17.228015       468.7981 
 112   0.0000      17.228015       468.7981 
 113   0.0000      17.228015       468.7981 
 114   0.0000      17.228015       468.7981 
 115   0.0000      17.228015       468.7981 
 116   0.0000      17.228015       468.7981 
 117   0.0000      17.952106       488.5016 
 118   0.0000      17.952106       488.5016 
 119   0.0000      17.952106       488.5016 
 120   0.0000      18.854492       513.0568 
 121   0.0000      23.380630       636.2193 
 122   0.0000      23.380630       636.2193 
 123   0.0000      23.380630       636.2193 
 124   0.0000      23.380630       636.2193 
 125   0.0000      23.380630       636.2193 
 126   0.0000      23.380630       636.2193 
 127   0.0000      23.380630       636.2193 
 128   0.0000      23.380630       636.2193 
 129   0.0000      23.380630       636.2193 
 130   0.0000      37.859445      1030.2079 
 131   0.0000      37.859445      1030.2079 
 132   0.0000      37.859445      1030.2079 
 133   0.0000      37.859445      1030.2079 
 134   0.0000      37.859445      1030.2079 
 135   0.0000      52.720802      1434.6060 
 136   0.0000      52.720802      1434.6060 
 137   0.0000      52.720802      1434.6060 
 138   0.0000      54.438795      1481.3549 
 139   0.0000     114.391228      3112.7436 
 140   0.0000     114.391228      3112.7436 
 141   0.0000     114.391228      3112.7436 
 142   0.0000     114.391228      3112.7436 
 143   0.0000     114.391228      3112.7436 
 144   0.0000     259.872953      7071.5026 

                    ********************************
                    * MULLIKEN POPULATION ANALYSIS *
                    ********************************

--------------------------------------------
MULLIKEN ATOMIC CHARGES AND SPIN POPULATIONS
--------------------------------------------
   0 Ne:   -0.000000    0.000000
Sum of atomic charges         :   -0.0000000
Sum of atomic spin populations:    0.0000000

-----------------------------------------------------
MULLIKEN REDUCED ORBITAL CHARGES AND SPIN POPULATIONS
-----------------------------------------------------
CHARGE
  0 Nes       :     4.000000  s :     4.000000
      pz      :     2.000000  p :     6.000000
      px      :     2.000000
      py      :     2.000000
      dz2     :     0.000000  d :     0.000000
      dxz     :     0.000000
      dyz     :     0.000000
      dx2y2   :     0.000000
      dxy     :     0.000000
      f0      :     0.000000  f :     0.000000
      f+1     :     0.000000
      f-1     :     0.000000
      f+2     :     0.000000
      f-2     :     0.000000
      f+3     :     0.000000
      f-3     :     0.000000
      g0      :     0.000000  g :     0.000000
      g+1     :     0.000000
      g-1     :     0.000000
      g+2     :     0.000000
      g-2     :     0.000000
      g+3     :     0.000000
      g-3     :     0.000000
      g+4     :     0.000000
      g-4     :     0.000000
      h0      :     0.000000  h :     0.000000
      h+1     :     0.000000
      h-1     :     0.000000
      h+2     :     0.000000
      h-2     :     0.000000
      h+3     :     0.000000
      h-3     :     0.000000
      h+4     :     0.000000
      h-4     :     0.000000
      h+5     :     0.000000
      h-5     :     0.000000

SPIN
  0 Nes       :    -0.000000  s :    -0.000000
      pz      :     0.000000  p :     0.000000
      px      :     0.000000
      py      :     0.000000
      dz2     :    -0.000000  d :     0.000000
      dxz     :     0.000000
      dyz     :     0.000000
      dx2y2   :     0.000000
      dxy     :     0.000000
      f0      :     0.000000  f :     0.000000
      f+1     :     0.000000
      f-1     :    -0.000000
      f+2     :     0.000000
      f-2     :     0.000000
      f+3     :     0.000000
      f-3     :     0.000000
      g0      :     0.000000  g :     0.000000
      g+1     :     0.000000
      g-1     :     0.000000
      g+2     :     0.000000
      g-2     :    -0.000000
      g+3     :     0.000000
      g-3     :    -0.000000
      g+4     :    -0.000000
      g-4     :     0.000000
      h0      :     0.000000  h :    -0.000000
      h+1     :    -0.000000
      h-1     :    -0.000000
      h+2     :    -0.000000
      h-2     :    -0.000000
      h+3     :    -0.000000
      h-3     :    -0.000000
      h+4     :     0.000000
      h-4     :     0.000000
      h+5     :    -0.000000
      h-5     :     0.000000


                     *******************************
                     * LOEWDIN POPULATION ANALYSIS *
                     *******************************

-------------------------------------------
LOEWDIN ATOMIC CHARGES AND SPIN POPULATIONS
-------------------------------------------
   0 Ne:   -0.000000    0.000000

----------------------------------------------------
LOEWDIN REDUCED ORBITAL CHARGES AND SPIN POPULATIONS
----------------------------------------------------
CHARGE
  0 Nes       :     4.000000  s :     4.000000
      pz      :     2.000000  p :     6.000000
      px      :     2.000000
      py      :     2.000000
      dz2     :     0.000000  d :     0.000000
      dxz     :     0.000000
      dyz     :     0.000000
      dx2y2   :     0.000000
      dxy     :     0.000000
      f0      :     0.000000  f :     0.000000
      f+1     :     0.000000
      f-1     :     0.000000
      f+2     :     0.000000
      f-2     :     0.000000
      f+3     :     0.000000
      f-3     :     0.000000
      g0      :     0.000000  g :     0.000000
      g+1     :     0.000000
      g-1     :     0.000000
      g+2     :     0.000000
      g-2     :     0.000000
      g+3     :     0.000000
      g-3     :     0.000000
      g+4     :     0.000000
      g-4     :     0.000000
      h0      :     0.000000  h :     0.000000
      h+1     :     0.000000
      h-1     :     0.000000
      h+2     :     0.000000
      h-2     :     0.000000
      h+3     :     0.000000
      h-3     :     0.000000
      h+4     :     0.000000
      h-4     :     0.000000
      h+5     :     0.000000
      h-5     :     0.000000

SPIN
  0 Nes       :    -0.000000  s :    -0.000000
      pz      :     0.000000  p :     0.000000
      px      :     0.000000
      py      :     0.000000
      dz2     :    -0.000000  d :     0.000000
      dxz     :     0.000000
      dyz     :     0.000000
      dx2y2   :     0.000000
      dxy     :     0.000000
      f0      :     0.000000  f :     0.000000
      f+1     :     0.000000
      f-1     :    -0.000000
      f+2     :     0.000000
      f-2     :     0.000000
      f+3     :     0.000000
      f-3     :     0.000000
      g0      :     0.000000  g :     0.000000
      g+1     :     0.000000
      g-1     :     0.000000
      g+2     :     0.000000
      g-2     :    -0.000000
      g+3     :     0.000000
      g-3     :    -0.000000
      g+4     :    -0.000000
      g-4     :     0.000000
      h0      :     0.000000  h :    -0.000000
      h+1     :    -0.000000
      h-1     :    -0.000000
      h+2     :    -0.000000
      h-2     :    -0.000000
      h+3     :    -0.000000
      h-3     :    -0.000000
      h+4     :     0.000000
      h-4     :     0.000000
      h+5     :    -0.000000
      h-5     :     0.000000


                      *****************************
                      * MAYER POPULATION ANALYSIS *
                      *****************************

  NA   - Mulliken gross atomic population
  ZA   - Total nuclear charge
  QA   - Mulliken gross atomic charge
  VA   - Mayer's total valence
  BVA  - Mayer's bonded valence
  FA   - Mayer's free valence

  ATOM       NA         ZA         QA         VA         BVA        FA
  0 Ne    10.0000    10.0000    -0.0000     0.0000     0.0000     0.0000

  Mayer bond orders larger than 0.1


-------
TIMINGS
-------

Total SCF time: 0 days 0 hours 0 min 7 sec 

Total time                  ....       7.794 sec
Sum of individual times     ....       7.031 sec  ( 90.2%)

Fock matrix formation       ....       6.353 sec  ( 81.5%)
  XC integration            ....       3.510 sec  ( 55.3% of F)
    Basis function eval.    ....       0.118 sec  (  3.4% of XC)
    Density eval.           ....       0.159 sec  (  4.5% of XC)
    XC-Functional eval.     ....       0.048 sec  (  1.4% of XC)
    XC-Potential eval.      ....       0.504 sec  ( 14.4% of XC)
Diagonalization             ....       0.240 sec  (  3.1%)
Density matrix formation    ....       0.003 sec  (  0.0%)
Population analysis         ....       0.099 sec  (  1.3%)
Initial guess               ....       0.151 sec  (  1.9%)
Orbital Transformation      ....       0.000 sec  (  0.0%)
Orbital Orthonormalization  ....       0.000 sec  (  0.0%)
DIIS solution               ....       0.056 sec  (  0.7%)
Grid generation             ....       0.129 sec  (  1.7%)

-------------------------   --------------------
FINAL SINGLE POINT ENERGY      -128.866437446600
-------------------------   --------------------


                            ***************************************
                            *     ORCA property calculations      *
                            ***************************************

                                    ---------------------
                                    Active property flags
                                    ---------------------
   (+) Dipole Moment
   (+) Polarizability


------------------------------------------------------------------------------
                       ORCA ELECTRIC PROPERTIES CALCULATION
------------------------------------------------------------------------------

Dipole Moment Calculation                       ... on
Quadrupole Moment Calculation                   ... off
Polarizability Calculation                      ... Analytic (CP-SCF)
GBWName                                         ... ne_pbe.gbw
Electron density file                           ... ne_pbe.scfp.tmp
The origin for moment calculation is the CENTER OF MASS  = ( 0.000000,  0.000000  0.000000)

-------------
DIPOLE MOMENT
-------------
                                X             Y             Z
Electronic contribution:      0.00000      -0.00000      -0.00000
Nuclear contribution   :      0.00000       0.00000       0.00000
                        -----------------------------------------
Total Dipole Moment    :      0.00000      -0.00000      -0.00000
                        -----------------------------------------
Magnitude (a.u.)       :      0.00000
Magnitude (Debye)      :      0.00000



--------------------
Rotational spectrum 
--------------------
 
Rotational constants in cm-1:     0.000000     0.000000     0.000000 
Rotational constants in MHz :     0.000000     0.000000     0.000000 

 Dipole components along the rotational axes: 
x,y,z [a.u.] :     0.000000    -0.000000    -0.000000 
x,y,z [Debye]:     0.000000    -0.000000    -0.000000 

 
Transforming and storing MO dipole integrals   ... done

                ... starting polarizability calculation

Opening the Dipole integral file               ... (ne_pbe.dmo.tmp) done
Reading Dipole-MO integrals                    ... done
Solving CP-SCF equations                       ... 

           ************************************************************
           *        Program running with 4 parallel MPI-processes     *
           *              working on a common directory               *
           ************************************************************

------------------------------------------------------------------------------
                           ORCA CP-SCF CALCULATION
------------------------------------------------------------------------------

Input orbitals are from        ... ne_pbe.gbw
Input Perturbation             ... ne_pbe.cpv.tmp
Wavefunction output            ... ne_pbe.cpu.tmp
Perturbation mode              ... Real perturbation (singlet)
Solver                         ... POPLE
Max. number of iterations      ... 200
Convergence tolerance          ... 1.000e-06
Integral handling              ... Direct
Number of perturbations        ... 3
Number of operators            ... 2
Orbital ranges used for CP-SCF:
 Operator 0:  Orbitals   0...  4  to   5...144
 Operator 1:  Orbitals   0...  4  to   5...144
DFT calculation                         ... on
Exchange functional (SCF)               ... PBE
Exchange functional (CP-SCF)            ... PBE
   PBE kappa parameter  XKappa (SCF)    ...  0.804000
   PBE kappa parameter  XKappa (CP-SCF) ...  0.804000
   PBE mue parameter   XMuePBE (SCF)    ...  0.219520
   PBE mue parameter   XMuePBE (CP-SCF) ...  0.219520
Correlation functional (SCF)            ... PBE
Correlation functional (CP-SCF)         ... PBE
   PBE beta parameter CBetaPBE (SCF)    ...  0.066725
   PBE beta parameter CBetaPBE (CP-SCF) ...  0.066725
 LDA part of GGA corr.  LDAOpt (SCF)    ... PW91-LDA
 LDA part of GGA corr.  LDAOpt (CP-SCF) ... PW91-LDA
Variables per vector in CP-SCF ... 1400
Number of vectors sought       ... 3
Recalculating density on grid  ... done
Calculating the xc-kernel      ... done
     CP-SCF ITERATION   0: 
     CP-SCF ITERATION   1:      0.000174882188
     CP-SCF ITERATION   2:      0.000000047244
done
Reading CP-SCF coefficients                    ... done
Doing the polarizability tensor   ... done
Cleaning up                                    ... done

-------------------------
THE POLARIZABILITY TENSOR
-------------------------

The raw cartesian tensor (atomic units):
    3.06941      0.00000      0.00000  
    0.00000      3.06941     -0.00000  
    0.00000     -0.00000      3.06941  
diagonalized tensor: 
    3.06941      3.06941      3.06941  

   -0.01136     -0.99912     -0.04032  
    0.41614      0.03194     -0.90874  
    0.90923     -0.02710      0.41541  

Isotropic polarizability :   3.06941


Timings for individual modules:

Sum of individual times         ...       11.927 sec (=   0.199 min)
GTO integral calculation        ...        0.907 sec (=   0.015 min)   7.6 %
SCF iterations                  ...        8.100 sec (=   0.135 min)  67.9 %
Solution of CP-SCF eqns.        ...        2.919 sec (=   0.049 min)  24.5 %
                             ****ORCA TERMINATED NORMALLY****
TOTAL RUN TIME: 0 days 0 hours 0 minutes 13 seconds 39 msec
