
                                 *****************
                                 * O   R   C   A *
                                 *****************

           --- An Ab Initio, DFT and Semiempirical electronic structure package ---

                  #######################################################
                  #                        -***-                        #
                  #          Department of theory and spectroscopy      #
                  #               Directorship: Frank Neese             #
                  #        Max Planck Institute fuer Kohlenforschung    #
                  #                Kaiser Wilhelm Platz 1               #
                  #                 D-45470 Muelheim/Ruhr               #
                  #                      Germany                        #
                  #                                                     #
                  #                  All rights reserved                #
                  #                        -***-                        #
                  #######################################################


                         Program Version 4.1.2  - RELEASE  -


 With contributions from (in alphabetic order):
   Daniel Aravena         : Magnetic Properties
   Michael Atanasov       : Ab Initio Ligand Field Theory
   Alexander A. Auer      : GIAO ZORA
   Ute Becker             : Parallelization
   Giovanni Bistoni       : ED, Open-shell LED
   Martin Brehm           : Molecular dynamics
   Dmytro Bykov           : SCF Hessian
   Vijay G. Chilkuri      : MRCI spin determinant printing
   Dipayan Datta          : RHF DLPNO-CCSD density
   Achintya Kumar Dutta   : EOM-CC, STEOM-CC
   Dmitry Ganyushin       : Spin-Orbit,Spin-Spin,Magnetic field MRCI
   Miquel Garcia          : C-PCM Hessian
   Yang Guo               : DLPNO-NEVPT2, CIM, IAO-localization
   Andreas Hansen         : Spin unrestricted coupled pair/coupled cluster methods
   Benjamin Helmich-Paris : CASSCF linear response (MC-RPA)
   Lee Huntington         : MR-EOM, pCC
   Robert Izsak           : Overlap fitted RIJCOSX, COSX-SCS-MP3, EOM
   Christian Kollmar      : KDIIS, OOCD, Brueckner-CCSD(T), CCSD density
   Simone Kossmann        : Meta GGA functionals, TD-DFT gradient, OOMP2, MP2 Hessian
   Martin Krupicka        : AUTO-CI
   Lucas Lang             : DCDCAS
   Dagmar Lenk            : GEPOL surface, SMD
   Dimitrios Liakos       : Extrapolation schemes; parallel MDCI
   Dimitrios Manganas     : ROCIS; embedding schemes
   Dimitrios Pantazis     : SARC Basis sets
   Taras Petrenko         : DFT Hessian,TD-DFT gradient, ASA, ECA, R-Raman, ABS, FL, XAS/XES, NRVS
   Peter Pinski           : DLPNO-MP2, DLPNO-MP2 Gradient
   Christoph Reimann      : Effective Core Potentials
   Marius Retegan         : Local ZFS, SOC
   Christoph Riplinger    : Optimizer, TS searches, QM/MM, DLPNO-CCSD(T), (RO)-DLPNO pert. Triples
   Tobias Risthaus        : Range-separated hybrids, TD-DFT gradient, RPA, STAB
   Michael Roemelt        : Restricted open shell CIS
   Masaaki Saitow         : Open-shell DLPNO
   Barbara Sandhoefer     : DKH picture change effects
   Avijit Sen             : IP-ROCIS
   Kantharuban Sivalingam : CASSCF convergence, NEVPT2, FIC-MRCI
   Bernardo de Souza      : ESD, SOC TD-DFT
   Georgi Stoychev        : AutoAux, RI-MP2 NMR
   Willem Van den Heuvel  : Paramagnetic NMR
   Boris Wezisla          : Elementary symmetry handling
   Frank Wennmohs         : Technical directorship


 We gratefully acknowledge several colleagues who have allowed us to
 interface, adapt or use parts of their codes:
   Stefan Grimme, W. Hujo, H. Kruse,             : VdW corrections, initial TS optimization,
                  C. Bannwarth                     DFT functionals, gCP, sTDA/sTD-DF
   Ed Valeev                                     : LibInt (2-el integral package), F12 methods
   Garnet Chan, S. Sharma, J. Yang, R. Olivares  : DMRG
   Ulf Ekstrom                                   : XCFun DFT Library
   Mihaly Kallay                                 : mrcc  (arbitrary order and MRCC methods)
   Andreas Klamt, Michael Diedenhofen            : otool_cosmo (COSMO solvation model)
   Jiri Pittner, Ondrej Demel                    : Mk-CCSD
   Frank Weinhold                                : gennbo (NPA and NBO analysis)
   Christopher J. Cramer and Donald G. Truhlar   : smd solvation model
   Lars Goerigk                                  : TD-DFT with DH, B97 family of functionals
   V. Asgeirsson, H. Jonsson                     : NEB implementation
   FAccTs GmbH                                   : IRC, NEB, NEB-TS, Multilevel


 Your calculation uses the libint2 library for the computation of 2-el integrals
 For citations please refer to: http://libint.valeyev.net

 This ORCA versions uses:
   CBLAS   interface :  Fast vector & matrix operations
   LAPACKE interface :  Fast linear algebra routines
   SCALAPACK package :  Parallel linear algebra routines


----- Orbital basis set information -----
Your calculation utilizes the basis: aug-pc-4
   H, C-F              : F. Jensen, J. Chem. Phys. 115, 9113 (2001).
                         F. Jensen, J. Chem. Phys. 116, 7372 (2002).
                         F. Jensen, J. Chem. Phys. 117, 9234 (2002).
   Si-Cl               : F. Jensen, T. Helgaker, J. Chem. Phys. 121, 3463 (2004).
   He-B, Ne-Mg, Al, Ar : F. Jensen, J. Phys. Chem. A 111, 11198 (2007).
   K, Ca, Ga-Kr        : F. Jensen, J. Chem. Phys. 136, 094110 (2012).
   Sc-Zn               : F. Jensen, J. Chem. Phys. 138, 014107 (2013).

================================================================================
                                        WARNINGS
                       Please study these warnings very carefully!
================================================================================


INFO   : the flag for use of LIBINT has been found!

================================================================================
                                       INPUT FILE
================================================================================
NAME = nh2_pbe.inp
|  1> !uks pbe nori aug-pc-4 grid5 nofinalgrid verytightscf
|  2> 
|  3> %maxcore 1500
|  4> 
|  5> %pal nprocs 4 end
|  6> 
|  7> %scf
|  8> 	maxiter 200
|  9> end
| 10> %elprop
| 11> 	dipole true
| 12> 	 polar 1
| 13> 	 maxiter 200
| 14> end
| 15> 
| 16> * xyz 0 2
| 17> N 0.0000 0.0000 0.0000
| 18> H 0.0000 0.8036 0.6347
| 19> H 0.0000 -0.8036 0.6347
| 20> *
| 21> 
| 22>                          ****END OF INPUT****
================================================================================

                       ****************************
                       * Single Point Calculation *
                       ****************************

---------------------------------
CARTESIAN COORDINATES (ANGSTROEM)
---------------------------------
  N      0.000000    0.000000    0.000000
  H      0.000000    0.803600    0.634700
  H      0.000000   -0.803600    0.634700

----------------------------
CARTESIAN COORDINATES (A.U.)
----------------------------
  NO LB      ZA    FRAG     MASS         X           Y           Z
   0 N     7.0000    0    14.007    0.000000    0.000000    0.000000
   1 H     1.0000    0     1.008    0.000000    1.518584    1.199409
   2 H     1.0000    0     1.008    0.000000   -1.518584    1.199409

--------------------------------
INTERNAL COORDINATES (ANGSTROEM)
--------------------------------
 N      0   0   0     0.000000000000     0.00000000     0.00000000
 H      1   0   0     1.024020043749     0.00000000     0.00000000
 H      1   2   0     1.024020043749   103.39517332     0.00000000

---------------------------
INTERNAL COORDINATES (A.U.)
---------------------------
 N      0   0   0     0.000000000000     0.00000000     0.00000000
 H      1   0   0     1.935117438332     0.00000000     0.00000000
 H      1   2   0     1.935117438332   103.39517332     0.00000000

---------------------
BASIS SET INFORMATION
---------------------
There are 2 groups of distinct atoms

 Group   1 Type N   : 27s12p7d4f3g2h contracted to 9s8p7d4f3g2h pattern {1191111111/51111111/1111111/1111/111/11}
 Group   2 Type H   : 12s7p4d3f2g contracted to 8s7p4d3f2g pattern {51111111/1111111/1111/111/11}

Atom   0N    basis set group =>   1
Atom   1H    basis set group =>   2
Atom   2H    basis set group =>   2


           ************************************************************
           *        Program running with 4 parallel MPI-processes     *
           *              working on a common directory               *
           ************************************************************
------------------------------------------------------------------------------
                           ORCA GTO INTEGRAL CALCULATION
------------------------------------------------------------------------------

                         BASIS SET STATISTICS AND STARTUP INFO

 # of primitive gaussian shells          ...  111
 # of primitive gaussian functions       ...  359
 # of contracted shells                  ...   81
 # of contracted basis functions         ...  321
 Highest angular momentum                ...    5
 Maximum contraction depth               ...   11
 Integral package used                   ... LIBINT
 Integral threshhold            Thresh   ...  1.000e-12
 Primitive cut-off              TCut     ...  1.000e-14


------------------------------ INTEGRAL EVALUATION ----------------------------


 * One electron integrals 
 Pre-screening matrix                    ... done
 Shell pair data                         ... done (   0.001 sec)



           ************************************************************
           *        Program running with 4 parallel MPI-processes     *
           *              working on a common directory               *
           ************************************************************
-------------------------------------------------------------------------------
                                 ORCA SCF
-------------------------------------------------------------------------------

------------
SCF SETTINGS
------------
Hamiltonian:
 Density Functional     Method          .... DFT(GTOs)
 Exchange Functional    Exchange        .... PBE
   PBE kappa parameter   XKappa         ....  0.804000
   PBE mue parameter    XMuePBE         ....  0.219520
 Correlation Functional Correlation     .... PBE
   PBE beta parameter  CBetaPBE         ....  0.066725
 LDA part of GGA corr.  LDAOpt          .... PW91-LDA
 Gradients option       PostSCFGGA      .... off
   Density functional embedding theory  .... OFF
   NL short-range parameter             ....  6.400000


General Settings:
 Integral files         IntName         .... nh2_pbe
 Hartree-Fock type      HFTyp           .... UHF
 Total Charge           Charge          ....    0
 Multiplicity           Mult            ....    2
 Number of Electrons    NEL             ....    9
 Basis Dimension        Dim             ....  321
 Nuclear Repulsion      ENuc            ....      7.5639571445 Eh

Convergence Acceleration:
 DIIS                   CNVDIIS         .... on
   Start iteration      DIISMaxIt       ....    12
   Startup error        DIISStart       ....  0.200000
   # of expansion vecs  DIISMaxEq       ....     5
   Bias factor          DIISBfac        ....   1.050
   Max. coefficient     DIISMaxC        ....  10.000
 Newton-Raphson         CNVNR           .... off
 SOSCF                  CNVSOSCF        .... off
 Level Shifting         CNVShift        .... on
   Level shift para.    LevelShift      ....    0.2500
   Turn off err/grad.   ShiftErr        ....    0.0010
 Zerner damping         CNVZerner       .... off
 Static damping         CNVDamp         .... on
   Fraction old density DampFac         ....    0.7000
   Max. Damping (<1)    DampMax         ....    0.9800
   Min. Damping (>=0)   DampMin         ....    0.0000
   Turn off err/grad.   DampErr         ....    0.1000
 Fernandez-Rico         CNVRico         .... off

SCF Procedure:
 Maximum # iterations   MaxIter         ....   200
 SCF integral mode      SCFMode         .... Direct
   Integral package                     .... LIBINT
 Reset frequency        DirectResetFreq ....    20
 Integral Threshold     Thresh          ....  1.000e-12 Eh
 Primitive CutOff       TCut            ....  1.000e-14 Eh

Convergence Tolerance:
 Convergence Check Mode ConvCheckMode   .... Total+1el-Energy
 Convergence forced     ConvForced      .... 0
 Energy Change          TolE            ....  1.000e-09 Eh
 1-El. energy change                    ....  1.000e-06 Eh
 DIIS Error             TolErr          ....  1.000e-08


Diagonalization of the overlap matrix:
Smallest eigenvalue                        ... 2.583e-06
Time for diagonalization                   ...    0.021 sec
Threshold for overlap eigenvalues          ... 1.000e-08
Number of eigenvalues below threshold      ... 0
Time for construction of square roots      ...    0.014 sec
Total time needed                          ...    0.035 sec

-------------------
DFT GRID GENERATION
-------------------

General Integration Accuracy     IntAcc      ...  5.010
Radial Grid Type                 RadialGrid  ... Gauss-Chebyshev
Angular Grid (max. acc.)         AngularGrid ... Lebedev-434
Angular grid pruning method      GridPruning ... 3 (G Style)
Weight generation scheme         WeightScheme... Becke
Basis function cutoff            BFCut       ...    1.0000e-12
Integration weight cutoff        WCut        ...    1.0000e-14
Grids for H and He will be reduced by one unit

# of grid points (after initial pruning)     ...  23974 (   0.0 sec)
# of grid points (after weights+screening)   ...  23766 (   0.0 sec)
nearest neighbour list constructed           ...    0.0 sec
Grid point re-assignment to atoms done       ...    0.0 sec
Grid point division into batches done        ...    0.1 sec
Reduced shell lists constructed in    0.2 sec

Total number of grid points                  ...    23766
Total number of batches                      ...      372
Average number of points per batch           ...       63
Average number of grid points per atom       ...     7922
Average number of shells per batch           ...    65.10 (80.37%)
Average number of basis functions per batch  ...   264.56 (82.42%)
Average number of large shells per batch     ...    59.80 (91.86%)
Average number of large basis fcns per batch ...   245.18 (92.67%)
Maximum spatial batch extension              ...  16.27, 13.72, 10.79 au
Average spatial batch extension              ...   0.77,  0.71,  0.65 au

Time for grid setup =    0.227 sec

------------------------------
INITIAL GUESS: MODEL POTENTIAL
------------------------------
Loading Hartree-Fock densities                     ... done
Calculating cut-offs                               ... done
Setting up the integral package                    ... done
Initializing the effective Hamiltonian             ... done
Starting the Coulomb interaction                   ... done (   0.0 sec)
Reading the grid                                   ... done
Mapping shells                                     ... done
Starting the XC term evaluation                    ... done (   0.3 sec)
  promolecular density results
     # of electrons  =      8.999019937
     EX              =     -7.048187175
     EC              =     -0.268817594
     EX+EC           =     -7.317004770
Transforming the Hamiltonian                       ... done (   0.0 sec)
Diagonalizing the Hamiltonian                      ... done (   0.0 sec)
Back transforming the eigenvectors                 ... done (   0.0 sec)
Now organizing SCF variables                       ... done
                      ------------------
                      INITIAL GUESS DONE (   0.7 sec)
                      ------------------
--------------
SCF ITERATIONS
--------------
ITER       Energy         Delta-E        Max-DP      RMS-DP      [F,P]     Damp
               ***  Starting incremental Fock matrix formation  ***
  0    -55.7937646198   0.000000000000 0.01510297  0.00014033  0.1953277 0.7000
  1    -55.8151920962  -0.021427476386 0.01339862  0.00010889  0.0862259 0.7000
                               ***Turning on DIIS***
  2    -55.8220504830  -0.006858386751 0.02203921  0.00017053  0.0187392 0.0000
  3    -55.8330596727  -0.011009189751 0.00830784  0.00006601  0.0556430 0.0000
  4    -55.8363185991  -0.003258926354 0.00290660  0.00002292  0.0118144 0.0000
  5    -55.8365308127  -0.000212213670 0.00052659  0.00000570  0.0024776 0.0000
  6    -55.8365486768  -0.000017864026 0.00032712  0.00000443  0.0007394 0.0000
  7    -55.8365516428  -0.000002966066 0.00010020  0.00000076  0.0001146 0.0000
  8    -55.8365516821  -0.000000039247 0.00001226  0.00000009  0.0000237 0.0000
  9    -55.8365516850  -0.000000002874 0.00000318  0.00000003  0.0000044 0.0000
 10    -55.8365516854  -0.000000000405 0.00000192  0.00000002  0.0000008 0.0000
                 **** Energy Check signals convergence ****

               *****************************************************
               *                     SUCCESS                       *
               *           SCF CONVERGED AFTER  11 CYCLES          *
               *****************************************************


----------------
TOTAL SCF ENERGY
----------------

Total Energy       :          -55.83655169 Eh           -1519.38982 eV

Components:
Nuclear Repulsion  :            7.56395714 Eh             205.82574 eV
Electronic Energy  :          -63.40050883 Eh           -1725.21555 eV
One Electron Energy:          -90.20844329 Eh           -2454.69654 eV
Two Electron Energy:           26.80793446 Eh             729.48098 eV

Virial components:
Potential Energy   :         -111.48461031 Eh           -3033.65047 eV
Kinetic Energy     :           55.64805862 Eh            1514.26066 eV
Virial Ratio       :            2.00338724


DFT components:
N(Alpha)           :        4.999999756718 electrons
N(Beta)            :        3.999999832138 electrons
N(Total)           :        8.999999588856 electrons
E(X)               :       -7.246859520169 Eh       
E(C)               :       -0.269792920117 Eh       
E(XC)              :       -7.516652440285 Eh       
DFET-embed. en.    :        0.000000000000 Eh       

---------------
SCF CONVERGENCE
---------------

  Last Energy change         ...   -7.2191e-11  Tolerance :   1.0000e-09
  Last MAX-Density change    ...    6.5536e-07  Tolerance :   1.0000e-08
  Last RMS-Density change    ...    5.3699e-09  Tolerance :   1.0000e-09
  Last DIIS Error            ...    1.6549e-07  Tolerance :   1.0000e-08

             **** THE GBW FILE WAS UPDATED (nh2_pbe.gbw) ****
             **** DENSITY FILE WAS UPDATED (nh2_pbe.scfp.tmp) ****
             **** ENERGY FILE WAS UPDATED (nh2_pbe.en.tmp) ****
----------------------
UHF SPIN CONTAMINATION
----------------------

Warning: in a DFT calculation there is little theoretical justification to 
         calculate <S**2> as in Hartree-Fock theory. We will do it anyways
         but you should keep in mind that the values have only limited relevance

Expectation value of <S**2>     :     0.753009
Ideal value S*(S+1) for S=0.5   :     0.750000
Deviation                       :     0.003009

----------------
ORBITAL ENERGIES
----------------
                 SPIN UP ORBITALS
  NO   OCC          E(Eh)            E(eV) 
   0   1.0000     -14.019349      -381.4859 
   1   1.0000      -0.782602       -21.2957 
   2   1.0000      -0.429675       -11.6920 
   3   1.0000      -0.286211        -7.7882 
   4   1.0000      -0.275494        -7.4966 
   5   0.0000      -0.028314        -0.7705 
   6   0.0000       0.012704         0.3457 
   7   0.0000       0.024880         0.6770 
   8   0.0000       0.027213         0.7405 
   9   0.0000       0.041237         1.1221 
  10   0.0000       0.053554         1.4573 
  11   0.0000       0.059380         1.6158 
  12   0.0000       0.074547         2.0285 
  13   0.0000       0.078786         2.1439 
  14   0.0000       0.081531         2.2186 
  15   0.0000       0.083283         2.2662 
  16   0.0000       0.124193         3.3795 
  17   0.0000       0.126958         3.4547 
  18   0.0000       0.131194         3.5700 
  19   0.0000       0.133601         3.6355 
  20   0.0000       0.155406         4.2288 
  21   0.0000       0.164757         4.4833 
  22   0.0000       0.174945         4.7605 
  23   0.0000       0.175300         4.7702 
  24   0.0000       0.177793         4.8380 
  25   0.0000       0.187202         5.0940 
  26   0.0000       0.189111         5.1460 
  27   0.0000       0.192499         5.2382 
  28   0.0000       0.211420         5.7530 
  29   0.0000       0.212507         5.7826 
  30   0.0000       0.223287         6.0759 
  31   0.0000       0.224597         6.1116 
  32   0.0000       0.235931         6.4200 
  33   0.0000       0.240487         6.5440 
  34   0.0000       0.254024         6.9123 
  35   0.0000       0.272849         7.4246 
  36   0.0000       0.282971         7.7000 
  37   0.0000       0.316972         8.6252 
  38   0.0000       0.318295         8.6612 
  39   0.0000       0.320795         8.7293 
  40   0.0000       0.325509         8.8575 
  41   0.0000       0.336228         9.1492 
  42   0.0000       0.351063         9.5529 
  43   0.0000       0.352369         9.5884 
  44   0.0000       0.356896         9.7116 
  45   0.0000       0.386432        10.5154 
  46   0.0000       0.388930        10.5833 
  47   0.0000       0.399431        10.8691 
  48   0.0000       0.400453        10.8969 
  49   0.0000       0.408037        11.1033 
  50   0.0000       0.417039        11.3482 
  51   0.0000       0.424995        11.5647 
  52   0.0000       0.426645        11.6096 
  53   0.0000       0.427855        11.6425 
  54   0.0000       0.430337        11.7101 
  55   0.0000       0.446603        12.1527 
  56   0.0000       0.460086        12.5196 
  57   0.0000       0.464133        12.6297 
  58   0.0000       0.487340        13.2612 
  59   0.0000       0.490798        13.3553 
  60   0.0000       0.491393        13.3715 
  61   0.0000       0.509647        13.8682 
  62   0.0000       0.525594        14.3021 
  63   0.0000       0.527330        14.3494 
  64   0.0000       0.534511        14.5448 
  65   0.0000       0.535940        14.5837 
  66   0.0000       0.538772        14.6607 
  67   0.0000       0.546676        14.8758 
  68   0.0000       0.557423        15.1683 
  69   0.0000       0.565874        15.3982 
  70   0.0000       0.580567        15.7980 
  71   0.0000       0.610024        16.5996 
  72   0.0000       0.611139        16.6299 
  73   0.0000       0.663681        18.0597 
  74   0.0000       0.678741        18.4695 
  75   0.0000       0.681740        18.5511 
  76   0.0000       0.682229        18.5644 
  77   0.0000       0.688659        18.7394 
  78   0.0000       0.694615        18.9014 
  79   0.0000       0.702063        19.1041 
  80   0.0000       0.708782        19.2869 
  81   0.0000       0.714889        19.4531 
  82   0.0000       0.715429        19.4678 
  83   0.0000       0.721992        19.6464 
  84   0.0000       0.735571        20.0159 
  85   0.0000       0.736329        20.0365 
  86   0.0000       0.762486        20.7483 
  87   0.0000       0.762621        20.7520 
  88   0.0000       0.772604        21.0236 
  89   0.0000       0.792934        21.5768 
  90   0.0000       0.798417        21.7260 
  91   0.0000       0.801007        21.7965 
  92   0.0000       0.807928        21.9848 
  93   0.0000       0.820907        22.3380 
  94   0.0000       0.822277        22.3753 
  95   0.0000       0.832423        22.6514 
  96   0.0000       0.842631        22.9291 
  97   0.0000       0.852689        23.2029 
  98   0.0000       0.880533        23.9605 
  99   0.0000       0.894706        24.3462 
 100   0.0000       0.897419        24.4200 
 101   0.0000       0.908070        24.7098 
 102   0.0000       0.915536        24.9130 
 103   0.0000       0.918874        25.0038 
 104   0.0000       0.930868        25.3302 
 105   0.0000       0.931324        25.3426 
 106   0.0000       0.938516        25.5383 
 107   0.0000       0.981286        26.7022 
 108   0.0000       0.990301        26.9475 
 109   0.0000       0.999973        27.2106 
 110   0.0000       1.001788        27.2601 
 111   0.0000       1.027647        27.9637 
 112   0.0000       1.033952        28.1353 
 113   0.0000       1.040265        28.3071 
 114   0.0000       1.070686        29.1348 
 115   0.0000       1.158554        31.5259 
 116   0.0000       1.172049        31.8931 
 117   0.0000       1.197865        32.5956 
 118   0.0000       1.294976        35.2381 
 119   0.0000       1.354154        36.8484 
 120   0.0000       1.376386        37.4534 
 121   0.0000       1.406718        38.2787 
 122   0.0000       1.450660        39.4745 
 123   0.0000       1.483809        40.3765 
 124   0.0000       1.487404        40.4743 
 125   0.0000       1.527208        41.5574 
 126   0.0000       1.549127        42.1539 
 127   0.0000       1.576565        42.9005 
 128   0.0000       1.610085        43.8126 
 129   0.0000       1.615973        43.9728 
 130   0.0000       1.629811        44.3494 
 131   0.0000       1.661787        45.2195 
 132   0.0000       1.662334        45.2344 
 133   0.0000       1.761996        47.9464 
 134   0.0000       1.808963        49.2244 
 135   0.0000       1.843284        50.1583 
 136   0.0000       1.848662        50.3046 
 137   0.0000       1.856009        50.5046 
 138   0.0000       1.984479        54.0004 
 139   0.0000       2.046766        55.6953 
 140   0.0000       2.142966        58.3131 
 141   0.0000       2.330654        63.4203 
 142   0.0000       2.338678        63.6387 
 143   0.0000       2.393702        65.1359 
 144   0.0000       2.396325        65.2073 
 145   0.0000       2.432591        66.1942 
 146   0.0000       2.583343        70.2963 
 147   0.0000       2.622013        71.3486 
 148   0.0000       2.662701        72.4558 
 149   0.0000       2.748789        74.7983 
 150   0.0000       2.860553        77.8396 
 151   0.0000       2.892890        78.7195 
 152   0.0000       2.906104        79.0791 
 153   0.0000       3.027598        82.3851 
 154   0.0000       3.081739        83.8584 
 155   0.0000       3.110517        84.6415 
 156   0.0000       3.259266        88.6891 
 157   0.0000       3.308032        90.0161 
 158   0.0000       3.321542        90.3837 
 159   0.0000       3.388839        92.2150 
 160   0.0000       3.423801        93.1664 
 161   0.0000       3.452002        93.9337 
 162   0.0000       3.467230        94.3481 
 163   0.0000       3.507792        95.4519 
 164   0.0000       3.531276        96.0909 
 165   0.0000       3.587147        97.6112 
 166   0.0000       3.661374        99.6310 
 167   0.0000       3.714846       101.0861 
 168   0.0000       3.753412       102.1355 
 169   0.0000       3.779571       102.8473 
 170   0.0000       3.817073       103.8678 
 171   0.0000       3.927481       106.8722 
 172   0.0000       3.997627       108.7810 
 173   0.0000       4.035764       109.8187 
 174   0.0000       4.083204       111.1096 
 175   0.0000       4.150484       112.9404 
 176   0.0000       4.237885       115.3187 
 177   0.0000       4.297521       116.9415 
 178   0.0000       4.361928       118.6941 
 179   0.0000       4.398813       119.6978 
 180   0.0000       4.516070       122.8885 
 181   0.0000       4.847730       131.9135 
 182   0.0000       4.898378       133.2917 
 183   0.0000       4.965835       135.1272 
 184   0.0000       4.982684       135.5857 
 185   0.0000       5.005595       136.2092 
 186   0.0000       5.174374       140.8019 
 187   0.0000       5.174492       140.8051 
 188   0.0000       5.485376       149.2647 
 189   0.0000       5.556986       151.2133 
 190   0.0000       5.602063       152.4399 
 191   0.0000       5.663168       154.1026 
 192   0.0000       5.708388       155.3331 
 193   0.0000       5.777398       157.2110 
 194   0.0000       5.925181       161.2324 
 195   0.0000       6.117785       166.4734 
 196   0.0000       6.164822       167.7533 
 197   0.0000       6.178805       168.1338 
 198   0.0000       6.213454       169.0767 
 199   0.0000       6.278373       170.8432 
 200   0.0000       6.298821       171.3996 
 201   0.0000       6.496642       176.7826 
 202   0.0000       6.522182       177.4776 
 203   0.0000       6.541999       178.0169 
 204   0.0000       6.861952       186.7232 
 205   0.0000       7.208386       196.1501 
 206   0.0000       7.376272       200.7186 
 207   0.0000       7.445302       202.5970 
 208   0.0000       7.534577       205.0263 
 209   0.0000       7.794108       212.0885 
 210   0.0000       8.023019       218.3174 
 211   0.0000       8.331849       226.7211 
 212   0.0000       8.341954       226.9961 
 213   0.0000       8.351616       227.2590 
 214   0.0000       8.414618       228.9734 
 215   0.0000       8.605450       234.1662 
 216   0.0000       8.741573       237.8703 
 217   0.0000       8.851724       240.8677 
 218   0.0000       8.955142       243.6818 
 219   0.0000       9.039976       245.9903 
 220   0.0000       9.081013       247.1069 
 221   0.0000       9.395458       255.6634 
 222   0.0000       9.425582       256.4831 
 223   0.0000       9.618627       261.7362 
 224   0.0000       9.629373       262.0286 
 225   0.0000       9.816554       267.1220 
 226   0.0000       9.930661       270.2270 
 227   0.0000       9.998521       272.0736 
 228   0.0000      10.057002       273.6649 
 229   0.0000      11.222566       305.3815 
 230   0.0000      11.269359       306.6549 
 231   0.0000      11.288371       307.1722 
 232   0.0000      11.299655       307.4793 
 233   0.0000      11.310643       307.7782 
 234   0.0000      11.317467       307.9639 
 235   0.0000      11.440078       311.3003 
 236   0.0000      11.466963       312.0319 
 237   0.0000      11.484870       312.5192 
 238   0.0000      11.498472       312.8893 
 239   0.0000      11.606865       315.8388 
 240   0.0000      11.640283       316.7482 
 241   0.0000      11.750558       319.7489 
 242   0.0000      11.781563       320.5926 
 243   0.0000      12.216531       332.4287 
 244   0.0000      12.368120       336.5537 
 245   0.0000      12.398288       337.3746 
 246   0.0000      12.506174       340.3103 
 247   0.0000      12.518666       340.6502 
 248   0.0000      12.644326       344.0696 
 249   0.0000      12.652439       344.2904 
 250   0.0000      12.775524       347.6397 
 251   0.0000      12.792489       348.1013 
 252   0.0000      12.893394       350.8471 
 253   0.0000      13.392676       364.4332 
 254   0.0000      13.414841       365.0364 
 255   0.0000      13.900566       378.2536 
 256   0.0000      13.982205       380.4751 
 257   0.0000      14.127444       384.4273 
 258   0.0000      14.132798       384.5730 
 259   0.0000      14.755819       401.5262 
 260   0.0000      14.891416       405.2160 
 261   0.0000      14.971833       407.4043 
 262   0.0000      15.068388       410.0317 
 263   0.0000      15.175035       412.9337 
 264   0.0000      15.260772       415.2667 
 265   0.0000      15.305947       416.4960 
 266   0.0000      15.373483       418.3338 
 267   0.0000      15.619123       425.0179 
 268   0.0000      15.868083       431.7925 
 269   0.0000      16.024154       436.0394 
 270   0.0000      16.175745       440.1644 
 271   0.0000      16.373470       445.5448 
 272   0.0000      16.607350       451.9090 
 273   0.0000      16.723711       455.0753 
 274   0.0000      16.750446       455.8028 
 275   0.0000      16.769675       456.3261 
 276   0.0000      16.891141       459.6313 
 277   0.0000      17.031619       463.4539 
 278   0.0000      17.050075       463.9561 
 279   0.0000      17.150105       466.6781 
 280   0.0000      17.159034       466.9210 
 281   0.0000      17.267924       469.8841 
 282   0.0000      17.503984       476.3076 
 283   0.0000      17.638803       479.9762 
 284   0.0000      17.721255       482.2199 
 285   0.0000      17.764160       483.3874 
 286   0.0000      18.291287       497.7312 
 287   0.0000      18.807812       511.7866 
 288   0.0000      19.026447       517.7360 
 289   0.0000      19.459542       529.5211 
 290   0.0000      19.480919       530.1028 
 291   0.0000      20.474154       557.1301 
 292   0.0000      20.510876       558.1293 
 293   0.0000      20.679305       562.7125 
 294   0.0000      20.831091       566.8428 
 295   0.0000      20.966367       570.5239 
 296   0.0000      21.956180       597.4580 
 297   0.0000      23.399181       636.7241 
 298   0.0000      23.443546       637.9313 
 299   0.0000      23.593804       642.0201 
 300   0.0000      23.596074       642.0818 
 301   0.0000      24.045684       654.3163 
 302   0.0000      25.509301       694.1434 
 303   0.0000      25.831436       702.9091 
 304   0.0000      26.077966       709.6175 
 305   0.0000      27.831872       757.3437 
 306   0.0000      28.449018       774.1371 
 307   0.0000      41.202678      1121.1819 
 308   0.0000      41.292486      1123.6257 
 309   0.0000      47.887305      1303.0798 
 310   0.0000      47.994212      1305.9889 
 311   0.0000      48.080126      1308.3267 
 312   0.0000      48.393808      1316.8625 
 313   0.0000      49.245344      1340.0339 
 314   0.0000      90.945469      2474.7520 
 315   0.0000      90.988327      2475.9182 
 316   0.0000      91.052858      2477.6742 
 317   0.0000      91.065426      2478.0162 
 318   0.0000      92.760058      2524.1295 
 319   0.0000      92.851836      2526.6269 
 320   0.0000     105.176752      2862.0049 

                 SPIN DOWN ORBITALS
  NO   OCC          E(Eh)            E(eV) 
   0   1.0000     -14.000861      -380.9828 
   1   1.0000      -0.738371       -20.0921 
   2   1.0000      -0.416523       -11.3342 
   3   1.0000      -0.265303        -7.2193 
   4   0.0000      -0.166704        -4.5362 
   5   0.0000      -0.021871        -0.5952 
   6   0.0000       0.014203         0.3865 
   7   0.0000       0.028159         0.7662 
   8   0.0000       0.035605         0.9689 
   9   0.0000       0.044064         1.1991 
  10   0.0000       0.054099         1.4721 
  11   0.0000       0.060953         1.6586 
  12   0.0000       0.077599         2.1116 
  13   0.0000       0.085291         2.3209 
  14   0.0000       0.087696         2.3863 
  15   0.0000       0.089641         2.4392 
  16   0.0000       0.124459         3.3867 
  17   0.0000       0.130459         3.5500 
  18   0.0000       0.133401         3.6300 
  19   0.0000       0.148909         4.0520 
  20   0.0000       0.160894         4.3781 
  21   0.0000       0.167574         4.5599 
  22   0.0000       0.178631         4.8608 
  23   0.0000       0.178639         4.8610 
  24   0.0000       0.179322         4.8796 
  25   0.0000       0.191365         5.2073 
  26   0.0000       0.194380         5.2893 
  27   0.0000       0.199219         5.4210 
  28   0.0000       0.219810         5.9813 
  29   0.0000       0.226759         6.1704 
  30   0.0000       0.231846         6.3089 
  31   0.0000       0.232856         6.3363 
  32   0.0000       0.235931         6.4200 
  33   0.0000       0.243143         6.6163 
  34   0.0000       0.254908         6.9364 
  35   0.0000       0.273398         7.4395 
  36   0.0000       0.286429         7.7941 
  37   0.0000       0.320842         8.7305 
  38   0.0000       0.323844         8.8122 
  39   0.0000       0.325867         8.8673 
  40   0.0000       0.334091         9.0911 
  41   0.0000       0.341143         9.2830 
  42   0.0000       0.360887         9.8202 
  43   0.0000       0.362619         9.8674 
  44   0.0000       0.363262         9.8848 
  45   0.0000       0.389646        10.6028 
  46   0.0000       0.402630        10.9561 
  47   0.0000       0.403585        10.9821 
  48   0.0000       0.405079        11.0228 
  49   0.0000       0.409163        11.1339 
  50   0.0000       0.421229        11.4622 
  51   0.0000       0.428657        11.6644 
  52   0.0000       0.431980        11.7548 
  53   0.0000       0.434395        11.8205 
  54   0.0000       0.435631        11.8541 
  55   0.0000       0.459160        12.4944 
  56   0.0000       0.466310        12.6889 
  57   0.0000       0.473310        12.8794 
  58   0.0000       0.488819        13.3014 
  59   0.0000       0.501536        13.6475 
  60   0.0000       0.502606        13.6766 
  61   0.0000       0.520481        14.1630 
  62   0.0000       0.527759        14.3610 
  63   0.0000       0.532795        14.4981 
  64   0.0000       0.538742        14.6599 
  65   0.0000       0.540858        14.7175 
  66   0.0000       0.546299        14.8655 
  67   0.0000       0.549830        14.9616 
  68   0.0000       0.565705        15.3936 
  69   0.0000       0.575075        15.6486 
  70   0.0000       0.606564        16.5054 
  71   0.0000       0.620917        16.8960 
  72   0.0000       0.623109        16.9557 
  73   0.0000       0.666109        18.1258 
  74   0.0000       0.678168        18.4539 
  75   0.0000       0.685623        18.6567 
  76   0.0000       0.686992        18.6940 
  77   0.0000       0.689375        18.7588 
  78   0.0000       0.698538        19.0082 
  79   0.0000       0.707869        19.2621 
  80   0.0000       0.712677        19.3929 
  81   0.0000       0.722358        19.6564 
  82   0.0000       0.724128        19.7045 
  83   0.0000       0.727106        19.7856 
  84   0.0000       0.745510        20.2863 
  85   0.0000       0.747095        20.3295 
  86   0.0000       0.774385        21.0721 
  87   0.0000       0.775294        21.0968 
  88   0.0000       0.779386        21.2082 
  89   0.0000       0.796953        21.6862 
  90   0.0000       0.800814        21.7913 
  91   0.0000       0.810404        22.0522 
  92   0.0000       0.816748        22.2248 
  93   0.0000       0.826133        22.4802 
  94   0.0000       0.828102        22.5338 
  95   0.0000       0.838664        22.8212 
  96   0.0000       0.855231        23.2720 
  97   0.0000       0.859820        23.3969 
  98   0.0000       0.883023        24.0283 
  99   0.0000       0.907486        24.6940 
 100   0.0000       0.912877        24.8407 
 101   0.0000       0.917760        24.9735 
 102   0.0000       0.926038        25.1988 
 103   0.0000       0.932857        25.3843 
 104   0.0000       0.934534        25.4300 
 105   0.0000       0.942206        25.6387 
 106   0.0000       0.943598        25.6766 
 107   0.0000       0.985710        26.8225 
 108   0.0000       0.990788        26.9607 
 109   0.0000       1.007688        27.4206 
 110   0.0000       1.011169        27.5153 
 111   0.0000       1.038556        28.2605 
 112   0.0000       1.040397        28.3106 
 113   0.0000       1.043835        28.4042 
 114   0.0000       1.082929        29.4680 
 115   0.0000       1.172611        31.9084 
 116   0.0000       1.201680        32.6994 
 117   0.0000       1.207780        32.8654 
 118   0.0000       1.316489        35.8235 
 119   0.0000       1.383130        37.6369 
 120   0.0000       1.383250        37.6401 
 121   0.0000       1.410854        38.3913 
 122   0.0000       1.487924        40.4885 
 123   0.0000       1.493416        40.6379 
 124   0.0000       1.496729        40.7281 
 125   0.0000       1.539373        41.8885 
 126   0.0000       1.567846        42.6633 
 127   0.0000       1.596594        43.4455 
 128   0.0000       1.609581        43.7989 
 129   0.0000       1.627096        44.2755 
 130   0.0000       1.637479        44.5581 
 131   0.0000       1.670738        45.4631 
 132   0.0000       1.674829        45.5744 
 133   0.0000       1.770754        48.1847 
 134   0.0000       1.846313        50.2407 
 135   0.0000       1.859917        50.6109 
 136   0.0000       1.870950        50.9111 
 137   0.0000       1.871468        50.9252 
 138   0.0000       2.014275        54.8112 
 139   0.0000       2.081251        56.6337 
 140   0.0000       2.169016        59.0219 
 141   0.0000       2.341670        63.7201 
 142   0.0000       2.348043        63.8935 
 143   0.0000       2.413615        65.6778 
 144   0.0000       2.422031        65.9068 
 145   0.0000       2.465329        67.0850 
 146   0.0000       2.590861        70.5009 
 147   0.0000       2.640534        71.8526 
 148   0.0000       2.679362        72.9091 
 149   0.0000       2.782597        75.7183 
 150   0.0000       2.881297        78.4041 
 151   0.0000       2.939178        79.9791 
 152   0.0000       2.952659        80.3459 
 153   0.0000       3.040398        82.7334 
 154   0.0000       3.115856        84.7868 
 155   0.0000       3.116305        84.7990 
 156   0.0000       3.294636        89.6516 
 157   0.0000       3.315583        90.2216 
 158   0.0000       3.321751        90.3894 
 159   0.0000       3.422573        93.1329 
 160   0.0000       3.447015        93.7981 
 161   0.0000       3.459369        94.1342 
 162   0.0000       3.476098        94.5894 
 163   0.0000       3.517917        95.7274 
 164   0.0000       3.536168        96.2240 
 165   0.0000       3.601262        97.9953 
 166   0.0000       3.676444       100.0411 
 167   0.0000       3.745831       101.9292 
 168   0.0000       3.759426       102.2992 
 169   0.0000       3.785417       103.0064 
 170   0.0000       3.825216       104.0894 
 171   0.0000       4.002585       108.9159 
 172   0.0000       4.015741       109.2739 
 173   0.0000       4.054508       110.3288 
 174   0.0000       4.096736       111.4779 
 175   0.0000       4.158442       113.1570 
 176   0.0000       4.247649       115.5844 
 177   0.0000       4.324710       117.6814 
 178   0.0000       4.382237       119.2467 
 179   0.0000       4.430327       120.5553 
 180   0.0000       4.529196       123.2457 
 181   0.0000       4.850896       131.9996 
 182   0.0000       4.946158       134.5918 
 183   0.0000       4.991792       135.8336 
 184   0.0000       5.031262       136.9076 
 185   0.0000       5.048646       137.3806 
 186   0.0000       5.191034       141.2552 
 187   0.0000       5.198842       141.4677 
 188   0.0000       5.505427       149.8103 
 189   0.0000       5.569299       151.5483 
 190   0.0000       5.628787       153.1671 
 191   0.0000       5.704837       155.2365 
 192   0.0000       5.761542       156.7795 
 193   0.0000       5.803815       157.9298 
 194   0.0000       5.949483       161.8937 
 195   0.0000       6.168604       167.8563 
 196   0.0000       6.174798       168.0248 
 197   0.0000       6.209775       168.9766 
 198   0.0000       6.298435       171.3891 
 199   0.0000       6.327607       172.1829 
 200   0.0000       6.355083       172.9306 
 201   0.0000       6.531932       177.7429 
 202   0.0000       6.548295       178.1882 
 203   0.0000       6.584178       179.1646 
 204   0.0000       6.875365       187.0882 
 205   0.0000       7.210207       196.1997 
 206   0.0000       7.438232       202.4046 
 207   0.0000       7.513358       204.4489 
 208   0.0000       7.592678       206.6073 
 209   0.0000       7.811712       212.5675 
 210   0.0000       8.029895       218.5046 
 211   0.0000       8.346775       227.1273 
 212   0.0000       8.351637       227.2596 
 213   0.0000       8.352159       227.2738 
 214   0.0000       8.445630       229.8173 
 215   0.0000       8.600766       234.0387 
 216   0.0000       8.742225       237.8880 
 217   0.0000       8.854299       240.9377 
 218   0.0000       8.955045       243.6792 
 219   0.0000       9.079221       247.0582 
 220   0.0000       9.144886       248.8450 
 221   0.0000       9.401453       255.8266 
 222   0.0000       9.436601       256.7830 
 223   0.0000       9.659679       262.8532 
 224   0.0000       9.662233       262.9227 
 225   0.0000       9.829681       267.4792 
 226   0.0000       9.962969       271.1062 
 227   0.0000      10.028487       272.8890 
 228   0.0000      10.070439       274.0306 
 229   0.0000      11.241789       305.9046 
 230   0.0000      11.326527       308.2105 
 231   0.0000      11.344776       308.7070 
 232   0.0000      11.351067       308.8782 
 233   0.0000      11.378107       309.6140 
 234   0.0000      11.384732       309.7943 
 235   0.0000      11.473651       312.2139 
 236   0.0000      11.542427       314.0854 
 237   0.0000      11.544899       314.1527 
 238   0.0000      11.555476       314.4405 
 239   0.0000      11.663939       317.3919 
 240   0.0000      11.705603       318.5256 
 241   0.0000      11.752053       319.7896 
 242   0.0000      11.779839       320.5457 
 243   0.0000      12.227189       332.7187 
 244   0.0000      12.374506       336.7274 
 245   0.0000      12.397168       337.3441 
 246   0.0000      12.515182       340.5554 
 247   0.0000      12.523178       340.7730 
 248   0.0000      12.664493       344.6184 
 249   0.0000      12.699228       345.5636 
 250   0.0000      12.778328       347.7160 
 251   0.0000      12.846350       349.5670 
 252   0.0000      12.904374       351.1459 
 253   0.0000      13.406088       364.7982 
 254   0.0000      13.435852       365.6081 
 255   0.0000      13.918744       378.7483 
 256   0.0000      13.994298       380.8042 
 257   0.0000      14.152115       385.0986 
 258   0.0000      14.161184       385.3454 
 259   0.0000      14.847124       404.0108 
 260   0.0000      14.982861       407.7044 
 261   0.0000      15.050359       409.5411 
 262   0.0000      15.149537       412.2398 
 263   0.0000      15.242472       414.7687 
 264   0.0000      15.327051       417.0703 
 265   0.0000      15.355882       417.8548 
 266   0.0000      15.414380       419.4466 
 267   0.0000      15.634117       425.4259 
 268   0.0000      15.866133       431.7394 
 269   0.0000      16.067184       437.2103 
 270   0.0000      16.217095       441.2896 
 271   0.0000      16.416820       446.7244 
 272   0.0000      16.617614       452.1883 
 273   0.0000      16.721114       455.0046 
 274   0.0000      16.748486       455.7495 
 275   0.0000      16.767159       456.2576 
 276   0.0000      16.892901       459.6792 
 277   0.0000      17.052551       464.0235 
 278   0.0000      17.129899       466.1282 
 279   0.0000      17.169397       467.2030 
 280   0.0000      17.209381       468.2911 
 281   0.0000      17.302564       470.8267 
 282   0.0000      17.507215       476.3955 
 283   0.0000      17.657584       480.4873 
 284   0.0000      17.724194       482.2998 
 285   0.0000      17.792222       484.1510 
 286   0.0000      18.298179       497.9188 
 287   0.0000      18.810389       511.8567 
 288   0.0000      19.031163       517.8643 
 289   0.0000      19.460787       529.5549 
 290   0.0000      19.487737       530.2883 
 291   0.0000      20.494668       557.6883 
 292   0.0000      20.530017       558.6502 
 293   0.0000      20.697868       563.2176 
 294   0.0000      20.826656       566.7221 
 295   0.0000      20.964070       570.4613 
 296   0.0000      21.960430       597.5737 
 297   0.0000      23.395213       636.6161 
 298   0.0000      23.440527       637.8492 
 299   0.0000      23.585584       641.7964 
 300   0.0000      23.587494       641.8483 
 301   0.0000      24.072924       655.0576 
 302   0.0000      25.509561       694.1504 
 303   0.0000      25.837511       703.0744 
 304   0.0000      26.181424       712.4328 
 305   0.0000      27.853175       757.9234 
 306   0.0000      28.472242       774.7691 
 307   0.0000      41.196569      1121.0156 
 308   0.0000      41.285724      1123.4417 
 309   0.0000      47.950622      1304.8028 
 310   0.0000      48.059307      1307.7602 
 311   0.0000      48.143425      1310.0492 
 312   0.0000      48.428014      1317.7933 
 313   0.0000      49.256937      1340.3494 
 314   0.0000      90.936458      2474.5068 
 315   0.0000      90.979343      2475.6738 
 316   0.0000      91.042655      2477.3966 
 317   0.0000      91.055228      2477.7387 
 318   0.0000      92.750626      2523.8728 
 319   0.0000      92.842593      2526.3754 
 320   0.0000     105.196869      2862.5523 

                    ********************************
                    * MULLIKEN POPULATION ANALYSIS *
                    ********************************

--------------------------------------------
MULLIKEN ATOMIC CHARGES AND SPIN POPULATIONS
--------------------------------------------
   0 N :   -0.370603    1.015613
   1 H :    0.185302   -0.007806
   2 H :    0.185301   -0.007807
Sum of atomic charges         :   -0.0000000
Sum of atomic spin populations:    1.0000000

-----------------------------------------------------
MULLIKEN REDUCED ORBITAL CHARGES AND SPIN POPULATIONS
-----------------------------------------------------
CHARGE
  0 N s       :     3.816242  s :     3.816242
      pz      :     1.428270  p :     3.522695
      px      :     0.952365
      py      :     1.142060
      dz2     :     0.005792  d :     0.030194
      dxz     :     0.002954
      dyz     :     0.018477
      dx2y2   :     0.002971
      dxy     :     0.000000
      f0      :     0.000138  f :     0.001226
      f+1     :    -0.000008
      f-1     :     0.000165
      f+2     :     0.000758
      f-2     :    -0.000000
      f+3     :    -0.000032
      f-3     :     0.000204
      g0      :     0.000050  g :     0.000241
      g+1     :     0.000001
      g-1     :     0.000005
      g+2     :     0.000112
      g-2     :    -0.000000
      g+3     :     0.000004
      g-3     :     0.000078
      g+4     :    -0.000009
      g-4     :     0.000000
      h0      :     0.000004  h :     0.000005
      h+1     :     0.000000
      h-1     :     0.000003
      h+2     :     0.000002
      h-2     :    -0.000000
      h+3     :     0.000000
      h-3     :     0.000002
      h+4     :    -0.000004
      h-4     :    -0.000000
      h+5     :    -0.000001
      h-5     :    -0.000001
  1 H s       :     0.747070  s :     0.747070
      pz      :     0.028858  p :     0.063210
      px      :     0.018831
      py      :     0.015520
      dz2     :     0.001906  d :     0.004140
      dxz     :     0.001416
      dyz     :    -0.000566
      dx2y2   :     0.000009
      dxy     :     0.001375
      f0      :    -0.000034  f :     0.000198
      f+1     :     0.000076
      f-1     :     0.000149
      f+2     :    -0.000349
      f-2     :     0.000564
      f+3     :     0.000008
      f-3     :    -0.000216
      g0      :    -0.000030  g :     0.000081
      g+1     :    -0.000001
      g-1     :     0.000058
      g+2     :     0.000014
      g-2     :     0.000031
      g+3     :     0.000083
      g-3     :    -0.000019
      g+4     :    -0.000030
      g-4     :    -0.000025
  2 H s       :     0.747070  s :     0.747070
      pz      :     0.028858  p :     0.063210
      px      :     0.018831
      py      :     0.015520
      dz2     :     0.001906  d :     0.004140
      dxz     :     0.001416
      dyz     :    -0.000566
      dx2y2   :     0.000009
      dxy     :     0.001375
      f0      :    -0.000034  f :     0.000198
      f+1     :     0.000076
      f-1     :     0.000149
      f+2     :    -0.000349
      f-2     :     0.000564
      f+3     :     0.000008
      f-3     :    -0.000216
      g0      :    -0.000030  g :     0.000081
      g+1     :    -0.000001
      g-1     :     0.000058
      g+2     :     0.000014
      g-2     :     0.000031
      g+3     :     0.000083
      g-3     :    -0.000019
      g+4     :    -0.000030
      g-4     :    -0.000025

SPIN
  0 N s       :    -0.003922  s :    -0.003922
      pz      :     0.031268  p :     1.013861
      px      :     0.952365
      py      :     0.030229
      dz2     :     0.001899  d :     0.006908
      dxz     :     0.002954
      dyz     :     0.003379
      dx2y2   :    -0.001323
      dxy     :     0.000000
      f0      :     0.000189  f :    -0.001247
      f+1     :    -0.000008
      f-1     :    -0.000085
      f+2     :    -0.000749
      f-2     :    -0.000000
      f+3     :    -0.000032
      f-3     :    -0.000563
      g0      :     0.000018  g :     0.000006
      g+1     :     0.000001
      g-1     :     0.000014
      g+2     :    -0.000017
      g-2     :     0.000000
      g+3     :     0.000004
      g-3     :    -0.000018
      g+4     :     0.000004
      g-4     :     0.000000
      h0      :    -0.000002  h :     0.000007
      h+1     :     0.000000
      h-1     :     0.000001
      h+2     :     0.000001
      h-2     :    -0.000000
      h+3     :     0.000000
      h-3     :     0.000003
      h+4     :     0.000003
      h-4     :    -0.000000
      h+5     :    -0.000001
      h-5     :     0.000001
  1 H s       :    -0.022963  s :    -0.022963
      pz      :    -0.004803  p :     0.010829
      px      :     0.018831
      py      :    -0.003199
      dz2     :    -0.000422  d :     0.003069
      dxz     :     0.001416
      dyz     :     0.000763
      dx2y2   :    -0.000062
      dxy     :     0.001375
      f0      :     0.000069  f :     0.001118
      f+1     :     0.000076
      f-1     :     0.000110
      f+2     :     0.000170
      f-2     :     0.000564
      f+3     :     0.000008
      f-3     :     0.000121
      g0      :     0.000013  g :     0.000140
      g+1     :    -0.000001
      g-1     :    -0.000000
      g+2     :     0.000018
      g-2     :     0.000031
      g+3     :     0.000083
      g-3     :     0.000003
      g+4     :     0.000019
      g-4     :    -0.000025
  2 H s       :    -0.022964  s :    -0.022964
      pz      :    -0.004803  p :     0.010829
      px      :     0.018831
      py      :    -0.003199
      dz2     :    -0.000422  d :     0.003069
      dxz     :     0.001416
      dyz     :     0.000763
      dx2y2   :    -0.000062
      dxy     :     0.001375
      f0      :     0.000069  f :     0.001118
      f+1     :     0.000076
      f-1     :     0.000110
      f+2     :     0.000170
      f-2     :     0.000564
      f+3     :     0.000008
      f-3     :     0.000121
      g0      :     0.000013  g :     0.000140
      g+1     :    -0.000001
      g-1     :    -0.000000
      g+2     :     0.000018
      g-2     :     0.000031
      g+3     :     0.000083
      g-3     :     0.000003
      g+4     :     0.000019
      g-4     :    -0.000025


                     *******************************
                     * LOEWDIN POPULATION ANALYSIS *
                     *******************************

-------------------------------------------
LOEWDIN ATOMIC CHARGES AND SPIN POPULATIONS
-------------------------------------------
   0 N :    1.159555    0.669596
   1 H :   -0.579778    0.165202
   2 H :   -0.579778    0.165202

----------------------------------------------------
LOEWDIN REDUCED ORBITAL CHARGES AND SPIN POPULATIONS
----------------------------------------------------
CHARGE
  0 N s       :     2.881798  s :     2.881798
      pz      :     1.188891  p :     2.859016
      px      :     0.648103
      py      :     1.022021
      dz2     :     0.002999  d :     0.082098
      dxz     :     0.001290
      dyz     :     0.058772
      dx2y2   :     0.019036
      dxy     :     0.000000
      f0      :     0.001758  f :     0.014846
      f+1     :     0.000126
      f-1     :     0.004964
      f+2     :     0.005649
      f-2     :    -0.000000
      f+3     :     0.000757
      f-3     :     0.001591
      g0      :     0.000157  g :     0.001767
      g+1     :     0.000002
      g-1     :     0.000189
      g+2     :     0.000508
      g-2     :    -0.000000
      g+3     :     0.000189
      g-3     :     0.000638
      g+4     :     0.000085
      g-4     :     0.000000
      h0      :     0.000162  h :     0.000920
      h+1     :     0.000007
      h-1     :     0.000121
      h+2     :     0.000282
      h-2     :    -0.000000
      h+3     :     0.000110
      h-3     :     0.000055
      h+4     :     0.000064
      h-4     :     0.000000
      h+5     :     0.000034
      h-5     :     0.000085
  1 H s       :     0.689322  s :     0.689322
      pz      :     0.219177  p :     0.494825
      px      :     0.086417
      py      :     0.189231
      dz2     :     0.081997  d :     0.310670
      dxz     :     0.024662
      dyz     :     0.092551
      dx2y2   :     0.067847
      dxy     :     0.043613
      f0      :     0.005124  f :     0.074622
      f+1     :     0.000832
      f-1     :     0.028829
      f+2     :     0.010737
      f-2     :     0.010845
      f+3     :     0.006647
      f-3     :     0.011608
      g0      :     0.001052  g :     0.010339
      g+1     :     0.000010
      g-1     :     0.001192
      g+2     :     0.003086
      g-2     :     0.000281
      g+3     :     0.000929
      g-3     :     0.001235
      g+4     :     0.002099
      g-4     :     0.000456
  2 H s       :     0.689322  s :     0.689322
      pz      :     0.219177  p :     0.494825
      px      :     0.086417
      py      :     0.189231
      dz2     :     0.081997  d :     0.310670
      dxz     :     0.024662
      dyz     :     0.092551
      dx2y2   :     0.067847
      dxy     :     0.043613
      f0      :     0.005124  f :     0.074622
      f+1     :     0.000832
      f-1     :     0.028829
      f+2     :     0.010737
      f-2     :     0.010845
      f+3     :     0.006647
      f-3     :     0.011608
      g0      :     0.001052  g :     0.010339
      g+1     :     0.000010
      g-1     :     0.001192
      g+2     :     0.003086
      g-2     :     0.000281
      g+3     :     0.000929
      g-3     :     0.001235
      g+4     :     0.002099
      g-4     :     0.000456

SPIN
  0 N s       :     0.007175  s :     0.007175
      pz      :     0.004709  p :     0.663929
      px      :     0.648103
      py      :     0.011117
      dz2     :    -0.000135  d :    -0.001047
      dxz     :     0.001290
      dyz     :    -0.001973
      dx2y2   :    -0.000229
      dxy     :     0.000000
      f0      :     0.000293  f :    -0.000722
      f+1     :     0.000126
      f-1     :    -0.000403
      f+2     :    -0.001001
      f-2     :    -0.000000
      f+3     :     0.000757
      f-3     :    -0.000494
      g0      :     0.000003  g :     0.000105
      g+1     :     0.000002
      g-1     :     0.000003
      g+2     :    -0.000034
      g-2     :    -0.000000
      g+3     :     0.000189
      g-3     :    -0.000055
      g+4     :    -0.000004
      g-4     :     0.000000
      h0      :     0.000003  h :     0.000155
      h+1     :     0.000007
      h-1     :    -0.000001
      h+2     :     0.000004
      h-2     :    -0.000000
      h+3     :     0.000110
      h-3     :    -0.000000
      h+4     :     0.000000
      h-4     :     0.000000
      h+5     :     0.000034
      h-5     :    -0.000001
  1 H s       :    -0.012819  s :    -0.012819
      pz      :    -0.001552  p :     0.086949
      px      :     0.086417
      py      :     0.002084
      dz2     :     0.000244  d :     0.071003
      dxz     :     0.024662
      dyz     :     0.002335
      dx2y2   :     0.000149
      dxy     :     0.043613
      f0      :     0.000146  f :     0.018548
      f+1     :     0.000832
      f-1     :     0.000360
      f+2     :    -0.000039
      f-2     :     0.010845
      f+3     :     0.006647
      f-3     :    -0.000242
      g0      :     0.000064  g :     0.001520
      g+1     :     0.000010
      g-1     :     0.000025
      g+2     :    -0.000071
      g-2     :     0.000281
      g+3     :     0.000929
      g-3     :    -0.000052
      g+4     :    -0.000120
      g-4     :     0.000456
  2 H s       :    -0.012819  s :    -0.012819
      pz      :    -0.001552  p :     0.086949
      px      :     0.086417
      py      :     0.002084
      dz2     :     0.000244  d :     0.071003
      dxz     :     0.024662
      dyz     :     0.002335
      dx2y2   :     0.000149
      dxy     :     0.043613
      f0      :     0.000146  f :     0.018548
      f+1     :     0.000832
      f-1     :     0.000360
      f+2     :    -0.000039
      f-2     :     0.010845
      f+3     :     0.006647
      f-3     :    -0.000242
      g0      :     0.000064  g :     0.001520
      g+1     :     0.000010
      g-1     :     0.000025
      g+2     :    -0.000071
      g-2     :     0.000281
      g+3     :     0.000929
      g-3     :    -0.000052
      g+4     :    -0.000120
      g-4     :     0.000456


                      *****************************
                      * MAYER POPULATION ANALYSIS *
                      *****************************

  NA   - Mulliken gross atomic population
  ZA   - Total nuclear charge
  QA   - Mulliken gross atomic charge
  VA   - Mayer's total valence
  BVA  - Mayer's bonded valence
  FA   - Mayer's free valence

  ATOM       NA         ZA         QA         VA         BVA        FA
  0 N      7.3706     7.0000    -0.3706     2.8419     1.9228     0.9191
  1 H      0.8147     1.0000     0.1853     0.9841     0.9828     0.0013
  2 H      0.8147     1.0000     0.1853     0.9841     0.9828     0.0013

  Mayer bond orders larger than 0.1
B(  0-N ,  1-H ) :   0.9614 B(  0-N ,  2-H ) :   0.9614 

-------
TIMINGS
-------

Total SCF time: 0 days 0 hours 4 min 39 sec 

Total time                  ....     279.858 sec
Sum of individual times     ....     279.180 sec  ( 99.8%)

Fock matrix formation       ....     277.144 sec  ( 99.0%)
  XC integration            ....       8.561 sec  (  3.1% of F)
    Basis function eval.    ....       0.565 sec  (  6.6% of XC)
    Density eval.           ....       1.700 sec  ( 19.9% of XC)
    XC-Functional eval.     ....       0.105 sec  (  1.2% of XC)
    XC-Potential eval.      ....       5.832 sec  ( 68.1% of XC)
Diagonalization             ....       0.753 sec  (  0.3%)
Density matrix formation    ....       0.012 sec  (  0.0%)
Population analysis         ....       0.072 sec  (  0.0%)
Initial guess               ....       0.497 sec  (  0.2%)
Orbital Transformation      ....       0.000 sec  (  0.0%)
Orbital Orthonormalization  ....       0.000 sec  (  0.0%)
DIIS solution               ....       0.474 sec  (  0.2%)
Grid generation             ....       0.227 sec  (  0.1%)

-------------------------   --------------------
FINAL SINGLE POINT ENERGY       -55.836551685439
-------------------------   --------------------


                            ***************************************
                            *     ORCA property calculations      *
                            ***************************************

                                    ---------------------
                                    Active property flags
                                    ---------------------
   (+) Dipole Moment
   (+) Polarizability


------------------------------------------------------------------------------
                       ORCA ELECTRIC PROPERTIES CALCULATION
------------------------------------------------------------------------------

Dipole Moment Calculation                       ... on
Quadrupole Moment Calculation                   ... off
Polarizability Calculation                      ... Analytic (CP-SCF)
GBWName                                         ... nh2_pbe.gbw
Electron density file                           ... nh2_pbe.scfp.tmp
The origin for moment calculation is the CENTER OF MASS  = ( 0.000000,  0.000000  0.150909)

-------------
DIPOLE MOMENT
-------------
                                X             Y             Z
Electronic contribution:     -0.00000      -0.00000      -0.36364
Nuclear contribution   :      0.00000       0.00000       1.04064
                        -----------------------------------------
Total Dipole Moment    :     -0.00000      -0.00000       0.67700
                        -----------------------------------------
Magnitude (a.u.)       :      0.67700
Magnitude (Debye)      :      1.72079



--------------------
Rotational spectrum 
--------------------
 
Rotational constants in cm-1:    23.744776    12.948710     8.379259 
Rotational constants in MHz : 711850.482242 388192.571145 251203.867087 

 Dipole components along the rotational axes: 
x,y,z [a.u.] :    -0.000000     0.676997    -0.000000 
x,y,z [Debye]:    -0.000000     1.720790    -0.000000 

 
Transforming and storing MO dipole integrals   ... done

                ... starting polarizability calculation

Opening the Dipole integral file               ... (nh2_pbe.dmo.tmp) done
Reading Dipole-MO integrals                    ... done
Solving CP-SCF equations                       ... 

           ************************************************************
           *        Program running with 4 parallel MPI-processes     *
           *              working on a common directory               *
           ************************************************************

------------------------------------------------------------------------------
                           ORCA CP-SCF CALCULATION
------------------------------------------------------------------------------

Input orbitals are from        ... nh2_pbe.gbw
Input Perturbation             ... nh2_pbe.cpv.tmp
Wavefunction output            ... nh2_pbe.cpu.tmp
Perturbation mode              ... Real perturbation (singlet)
Solver                         ... POPLE
Max. number of iterations      ... 200
Convergence tolerance          ... 1.000e-06
Integral handling              ... Direct
Number of perturbations        ... 3
Number of operators            ... 2
Orbital ranges used for CP-SCF:
 Operator 0:  Orbitals   0...  4  to   5...320
 Operator 1:  Orbitals   0...  3  to   4...320
DFT calculation                         ... on
Exchange functional (SCF)               ... PBE
Exchange functional (CP-SCF)            ... PBE
   PBE kappa parameter  XKappa (SCF)    ...  0.804000
   PBE kappa parameter  XKappa (CP-SCF) ...  0.804000
   PBE mue parameter   XMuePBE (SCF)    ...  0.219520
   PBE mue parameter   XMuePBE (CP-SCF) ...  0.219520
Correlation functional (SCF)            ... PBE
Correlation functional (CP-SCF)         ... PBE
   PBE beta parameter CBetaPBE (SCF)    ...  0.066725
   PBE beta parameter CBetaPBE (CP-SCF) ...  0.066725
 LDA part of GGA corr.  LDAOpt (SCF)    ... PW91-LDA
 LDA part of GGA corr.  LDAOpt (CP-SCF) ... PW91-LDA
Variables per vector in CP-SCF ... 2848
Number of vectors sought       ... 3
Recalculating density on grid  ... done
Calculating the xc-kernel      ... done
     CP-SCF ITERATION   0: 
     CP-SCF ITERATION   1:      0.089795202878
     CP-SCF ITERATION   2:      0.001305495297
     CP-SCF ITERATION   3:      0.000031500459
     CP-SCF ITERATION   4:      0.000000811141
done
Reading CP-SCF coefficients                    ... done
Doing the polarizability tensor   ... done
Cleaning up                                    ... done

-------------------------
THE POLARIZABILITY TENSOR
-------------------------

The raw cartesian tensor (atomic units):
   11.56989     -0.00000      0.00000  
   -0.00000     13.45148     -0.00000  
    0.00000     -0.00000     14.46147  
diagonalized tensor: 
   11.56989     13.45148     14.46147  

    1.00000     -0.00000      0.00000  
    0.00000      1.00000     -0.00000  
   -0.00000      0.00000      1.00000  

Isotropic polarizability :  13.16095


Timings for individual modules:

Sum of individual times         ...      475.536 sec (=   7.926 min)
GTO integral calculation        ...        1.186 sec (=   0.020 min)   0.2 %
SCF iterations                  ...      280.229 sec (=   4.670 min)  58.9 %
Solution of CP-SCF eqns.        ...      194.121 sec (=   3.235 min)  40.8 %
                             ****ORCA TERMINATED NORMALLY****
TOTAL RUN TIME: 0 days 0 hours 7 minutes 56 seconds 350 msec
