
                                 *****************
                                 * O   R   C   A *
                                 *****************

           --- An Ab Initio, DFT and Semiempirical electronic structure package ---

                  #######################################################
                  #                        -***-                        #
                  #          Department of theory and spectroscopy      #
                  #               Directorship: Frank Neese             #
                  #        Max Planck Institute fuer Kohlenforschung    #
                  #                Kaiser Wilhelm Platz 1               #
                  #                 D-45470 Muelheim/Ruhr               #
                  #                      Germany                        #
                  #                                                     #
                  #                  All rights reserved                #
                  #                        -***-                        #
                  #######################################################


                         Program Version 4.1.2  - RELEASE  -


 With contributions from (in alphabetic order):
   Daniel Aravena         : Magnetic Properties
   Michael Atanasov       : Ab Initio Ligand Field Theory
   Alexander A. Auer      : GIAO ZORA
   Ute Becker             : Parallelization
   Giovanni Bistoni       : ED, Open-shell LED
   Martin Brehm           : Molecular dynamics
   Dmytro Bykov           : SCF Hessian
   Vijay G. Chilkuri      : MRCI spin determinant printing
   Dipayan Datta          : RHF DLPNO-CCSD density
   Achintya Kumar Dutta   : EOM-CC, STEOM-CC
   Dmitry Ganyushin       : Spin-Orbit,Spin-Spin,Magnetic field MRCI
   Miquel Garcia          : C-PCM Hessian
   Yang Guo               : DLPNO-NEVPT2, CIM, IAO-localization
   Andreas Hansen         : Spin unrestricted coupled pair/coupled cluster methods
   Benjamin Helmich-Paris : CASSCF linear response (MC-RPA)
   Lee Huntington         : MR-EOM, pCC
   Robert Izsak           : Overlap fitted RIJCOSX, COSX-SCS-MP3, EOM
   Christian Kollmar      : KDIIS, OOCD, Brueckner-CCSD(T), CCSD density
   Simone Kossmann        : Meta GGA functionals, TD-DFT gradient, OOMP2, MP2 Hessian
   Martin Krupicka        : AUTO-CI
   Lucas Lang             : DCDCAS
   Dagmar Lenk            : GEPOL surface, SMD
   Dimitrios Liakos       : Extrapolation schemes; parallel MDCI
   Dimitrios Manganas     : ROCIS; embedding schemes
   Dimitrios Pantazis     : SARC Basis sets
   Taras Petrenko         : DFT Hessian,TD-DFT gradient, ASA, ECA, R-Raman, ABS, FL, XAS/XES, NRVS
   Peter Pinski           : DLPNO-MP2, DLPNO-MP2 Gradient
   Christoph Reimann      : Effective Core Potentials
   Marius Retegan         : Local ZFS, SOC
   Christoph Riplinger    : Optimizer, TS searches, QM/MM, DLPNO-CCSD(T), (RO)-DLPNO pert. Triples
   Tobias Risthaus        : Range-separated hybrids, TD-DFT gradient, RPA, STAB
   Michael Roemelt        : Restricted open shell CIS
   Masaaki Saitow         : Open-shell DLPNO
   Barbara Sandhoefer     : DKH picture change effects
   Avijit Sen             : IP-ROCIS
   Kantharuban Sivalingam : CASSCF convergence, NEVPT2, FIC-MRCI
   Bernardo de Souza      : ESD, SOC TD-DFT
   Georgi Stoychev        : AutoAux, RI-MP2 NMR
   Willem Van den Heuvel  : Paramagnetic NMR
   Boris Wezisla          : Elementary symmetry handling
   Frank Wennmohs         : Technical directorship


 We gratefully acknowledge several colleagues who have allowed us to
 interface, adapt or use parts of their codes:
   Stefan Grimme, W. Hujo, H. Kruse,             : VdW corrections, initial TS optimization,
                  C. Bannwarth                     DFT functionals, gCP, sTDA/sTD-DF
   Ed Valeev                                     : LibInt (2-el integral package), F12 methods
   Garnet Chan, S. Sharma, J. Yang, R. Olivares  : DMRG
   Ulf Ekstrom                                   : XCFun DFT Library
   Mihaly Kallay                                 : mrcc  (arbitrary order and MRCC methods)
   Andreas Klamt, Michael Diedenhofen            : otool_cosmo (COSMO solvation model)
   Jiri Pittner, Ondrej Demel                    : Mk-CCSD
   Frank Weinhold                                : gennbo (NPA and NBO analysis)
   Christopher J. Cramer and Donald G. Truhlar   : smd solvation model
   Lars Goerigk                                  : TD-DFT with DH, B97 family of functionals
   V. Asgeirsson, H. Jonsson                     : NEB implementation
   FAccTs GmbH                                   : IRC, NEB, NEB-TS, Multilevel


 Your calculation uses the libint2 library for the computation of 2-el integrals
 For citations please refer to: http://libint.valeyev.net

 This ORCA versions uses:
   CBLAS   interface :  Fast vector & matrix operations
   LAPACKE interface :  Fast linear algebra routines
   SCALAPACK package :  Parallel linear algebra routines


----- Orbital basis set information -----
Your calculation utilizes the basis: aug-pc-4
   H, C-F              : F. Jensen, J. Chem. Phys. 115, 9113 (2001).
                         F. Jensen, J. Chem. Phys. 116, 7372 (2002).
                         F. Jensen, J. Chem. Phys. 117, 9234 (2002).
   Si-Cl               : F. Jensen, T. Helgaker, J. Chem. Phys. 121, 3463 (2004).
   He-B, Ne-Mg, Al, Ar : F. Jensen, J. Phys. Chem. A 111, 11198 (2007).
   K, Ca, Ga-Kr        : F. Jensen, J. Chem. Phys. 136, 094110 (2012).
   Sc-Zn               : F. Jensen, J. Chem. Phys. 138, 014107 (2013).

================================================================================
                                        WARNINGS
                       Please study these warnings very carefully!
================================================================================


INFO   : the flag for use of LIBINT has been found!

================================================================================
                                       INPUT FILE
================================================================================
NAME = nh2cl_pbe.inp
|  1> !uks pbe nori aug-pc-4 grid5 nofinalgrid verytightscf
|  2> 
|  3> %maxcore 1500
|  4> 
|  5> %pal nprocs 4 end
|  6> 
|  7> %scf
|  8> 	maxiter 200
|  9> end
| 10> %elprop
| 11> 	dipole true
| 12> 	 polar 1
| 13> 	 maxiter 200
| 14> end
| 15> 
| 16> * xyz 0 1
| 17> Cl 0.0000000000 0.0000000000 0.0000000000
| 18> N 0.0000000000 0.0000000000 1.7475500000
| 19> H 0.9877064288 0.0000000000 1.9857191054
| 20> H -0.3322887804 -0.9301334032 1.9857191227
| 21> *
| 22> 
| 23>                          ****END OF INPUT****
================================================================================

                       ****************************
                       * Single Point Calculation *
                       ****************************

---------------------------------
CARTESIAN COORDINATES (ANGSTROEM)
---------------------------------
  Cl     0.000000    0.000000    0.000000
  N      0.000000    0.000000    1.747550
  H      0.987706    0.000000    1.985719
  H     -0.332289   -0.930133    1.985719

----------------------------
CARTESIAN COORDINATES (A.U.)
----------------------------
  NO LB      ZA    FRAG     MASS         X           Y           Z
   0 Cl   17.0000    0    35.453    0.000000    0.000000    0.000000
   1 N     7.0000    0    14.007    0.000000    0.000000    3.302391
   2 H     1.0000    0     1.008    1.866495    0.000000    3.752465
   3 H     1.0000    0     1.008   -0.627935   -1.757697    3.752465

--------------------------------
INTERNAL COORDINATES (ANGSTROEM)
--------------------------------
 Cl     0   0   0     0.000000000000     0.00000000     0.00000000
 N      1   0   0     1.747550000000     0.00000000     0.00000000
 H      2   1   0     1.016016000002   103.55712500     0.00000000
 H      2   1   3     1.016016000039   103.55712600   250.34080700

---------------------------
INTERNAL COORDINATES (A.U.)
---------------------------
 Cl     0   0   0     0.000000000000     0.00000000     0.00000000
 N      1   0   0     3.302390905334     0.00000000     0.00000000
 H      2   1   0     1.919991987686   103.55712500     0.00000000
 H      2   1   3     1.919991987756   103.55712600   250.34080700

---------------------
BASIS SET INFORMATION
---------------------
There are 3 groups of distinct atoms

 Group   1 Type Cl  : 44s27p7d4f3g2h contracted to 8s7p7d4f3g2h pattern {15121211111/111111111/1111111/1111/111/11}
 Group   2 Type N   : 27s12p7d4f3g2h contracted to 9s8p7d4f3g2h pattern {1191111111/51111111/1111111/1111/111/11}
 Group   3 Type H   : 12s7p4d3f2g contracted to 8s7p4d3f2g pattern {51111111/1111111/1111/111/11}

Atom   0Cl   basis set group =>   1
Atom   1N    basis set group =>   2
Atom   2H    basis set group =>   3
Atom   3H    basis set group =>   3


           ************************************************************
           *        Program running with 4 parallel MPI-processes     *
           *              working on a common directory               *
           ************************************************************
------------------------------------------------------------------------------
                           ORCA GTO INTEGRAL CALCULATION
------------------------------------------------------------------------------

                         BASIS SET STATISTICS AND STARTUP INFO

 # of primitive gaussian shells          ...  198
 # of primitive gaussian functions       ...  596
 # of contracted shells                  ...  112
 # of contracted basis functions         ...  462
 Highest angular momentum                ...    5
 Maximum contraction depth               ...   15
 Integral package used                   ... LIBINT
 Integral threshhold            Thresh   ...  1.000e-12
 Primitive cut-off              TCut     ...  1.000e-14


------------------------------ INTEGRAL EVALUATION ----------------------------


 * One electron integrals 
 Pre-screening matrix                    ... done
 Shell pair data                         ... done (   0.002 sec)



           ************************************************************
           *        Program running with 4 parallel MPI-processes     *
           *              working on a common directory               *
           ************************************************************
-------------------------------------------------------------------------------
                                 ORCA SCF
-------------------------------------------------------------------------------

------------
SCF SETTINGS
------------
Hamiltonian:
 Density Functional     Method          .... DFT(GTOs)
 Exchange Functional    Exchange        .... PBE
   PBE kappa parameter   XKappa         ....  0.804000
   PBE mue parameter    XMuePBE         ....  0.219520
 Correlation Functional Correlation     .... PBE
   PBE beta parameter  CBetaPBE         ....  0.066725
 LDA part of GGA corr.  LDAOpt          .... PW91-LDA
 Gradients option       PostSCFGGA      .... off
   Density functional embedding theory  .... OFF
   NL short-range parameter             ....  6.400000


General Settings:
 Integral files         IntName         .... nh2cl_pbe
 Hartree-Fock type      HFTyp           .... UHF
 Total Charge           Charge          ....    0
 Multiplicity           Mult            ....    1
 Number of Electrons    NEL             ....   26
 Basis Dimension        Dim             ....  462
 Nuclear Repulsion      ENuc            ....     51.7664518318 Eh

Convergence Acceleration:
 DIIS                   CNVDIIS         .... on
   Start iteration      DIISMaxIt       ....    12
   Startup error        DIISStart       ....  0.200000
   # of expansion vecs  DIISMaxEq       ....     5
   Bias factor          DIISBfac        ....   1.050
   Max. coefficient     DIISMaxC        ....  10.000
 Newton-Raphson         CNVNR           .... off
 SOSCF                  CNVSOSCF        .... off
 Level Shifting         CNVShift        .... on
   Level shift para.    LevelShift      ....    0.2500
   Turn off err/grad.   ShiftErr        ....    0.0010
 Zerner damping         CNVZerner       .... off
 Static damping         CNVDamp         .... on
   Fraction old density DampFac         ....    0.7000
   Max. Damping (<1)    DampMax         ....    0.9800
   Min. Damping (>=0)   DampMin         ....    0.0000
   Turn off err/grad.   DampErr         ....    0.1000
 Fernandez-Rico         CNVRico         .... off

SCF Procedure:
 Maximum # iterations   MaxIter         ....   200
 SCF integral mode      SCFMode         .... Direct
   Integral package                     .... LIBINT
 Reset frequency        DirectResetFreq ....    20
 Integral Threshold     Thresh          ....  1.000e-12 Eh
 Primitive CutOff       TCut            ....  1.000e-14 Eh

Convergence Tolerance:
 Convergence Check Mode ConvCheckMode   .... Total+1el-Energy
 Convergence forced     ConvForced      .... 0
 Energy Change          TolE            ....  1.000e-09 Eh
 1-El. energy change                    ....  1.000e-06 Eh
 DIIS Error             TolErr          ....  1.000e-08


Diagonalization of the overlap matrix:
Smallest eigenvalue                        ... 1.461e-06
Time for diagonalization                   ...    0.099 sec
Threshold for overlap eigenvalues          ... 1.000e-08
Number of eigenvalues below threshold      ... 0
Time for construction of square roots      ...    0.034 sec
Total time needed                          ...    0.134 sec

-------------------
DFT GRID GENERATION
-------------------

General Integration Accuracy     IntAcc      ...  5.010
Radial Grid Type                 RadialGrid  ... Gauss-Chebyshev
Angular Grid (max. acc.)         AngularGrid ... Lebedev-434
Angular grid pruning method      GridPruning ... 3 (G Style)
Weight generation scheme         WeightScheme... Becke
Basis function cutoff            BFCut       ...    1.0000e-12
Integration weight cutoff        WCut        ...    1.0000e-14
Grids for H and He will be reduced by one unit

# of grid points (after initial pruning)     ...  35858 (   0.0 sec)
# of grid points (after weights+screening)   ...  35260 (   0.0 sec)
nearest neighbour list constructed           ...    0.0 sec
Grid point re-assignment to atoms done       ...    0.0 sec
Grid point division into batches done        ...    0.3 sec
Reduced shell lists constructed in    0.4 sec

Total number of grid points                  ...    35260
Total number of batches                      ...      553
Average number of points per batch           ...       63
Average number of grid points per atom       ...     8815
Average number of shells per batch           ...    75.12 (67.07%)
Average number of basis functions per batch  ...   321.04 (69.49%)
Average number of large shells per batch     ...    65.08 (86.63%)
Average number of large basis fcns per batch ...   278.34 (86.70%)
Maximum spatial batch extension              ...  18.71, 18.71, 15.96 au
Average spatial batch extension              ...   0.93,  0.93,  0.86 au

Time for grid setup =    0.445 sec

------------------------------
INITIAL GUESS: MODEL POTENTIAL
------------------------------
Loading Hartree-Fock densities                     ... done
Calculating cut-offs                               ... done
Setting up the integral package                    ... done
Initializing the effective Hamiltonian             ... done
Starting the Coulomb interaction                   ... done (   0.1 sec)
Reading the grid                                   ... done
Mapping shells                                     ... done
Starting the XC term evaluation                    ... done (   1.0 sec)
  promolecular density results
     # of electrons  =     25.999022646
     EX              =    -34.485693181
     EC              =     -0.952043025
     EX+EC           =    -35.437736206
Transforming the Hamiltonian                       ... done (   0.0 sec)
Diagonalizing the Hamiltonian                      ... done (   0.1 sec)
Back transforming the eigenvectors                 ... done (   0.0 sec)
Now organizing SCF variables                       ... done
                      ------------------
                      INITIAL GUESS DONE (   1.8 sec)
                      ------------------
--------------
SCF ITERATIONS
--------------
ITER       Energy         Delta-E        Max-DP      RMS-DP      [F,P]     Damp
               ***  Starting incremental Fock matrix formation  ***
  0   -515.8617444244   0.000000000000 0.01499144  0.00013405  0.2130727 0.7000
  1   -515.8942776542  -0.032533229823 0.01374281  0.00009403  0.0717350 0.7000
                               ***Turning on DIIS***
  2   -515.9020556790  -0.007778024737 0.01688607  0.00014384  0.0162997 0.0000
  3   -515.9195825640  -0.017526885009 0.01119054  0.00006448  0.0427535 0.0000
  4   -515.9219698308  -0.002387266834 0.00859692  0.00004202  0.0146161 0.0000
  5   -515.9224791107  -0.000509279896 0.00124681  0.00001070  0.0020578 0.0000
  6   -515.9224913628  -0.000012252103 0.00083937  0.00000640  0.0006308 0.0000
  7   -515.9224932963  -0.000001933480 0.00019370  0.00000121  0.0002122 0.0000
  8   -515.9224934155  -0.000000119204 0.00006879  0.00000051  0.0002150 0.0000
  9   -515.9224934640  -0.000000048518 0.00002538  0.00000017  0.0001197 0.0000
 10   -515.9224934840  -0.000000019956 0.00000597  0.00000004  0.0000082 0.0000
 11   -515.9224934842  -0.000000000215 0.00001432  0.00000005  0.0000060 0.0000
                 **** Energy Check signals convergence ****

               *****************************************************
               *                     SUCCESS                       *
               *           SCF CONVERGED AFTER  12 CYCLES          *
               *****************************************************


----------------
TOTAL SCF ENERGY
----------------

Total Energy       :         -515.92249348 Eh          -14038.96477 eV

Components:
Nuclear Repulsion  :           51.76645183 Eh            1408.63677 eV
Electronic Energy  :         -567.68894532 Eh          -15447.60154 eV
One Electron Energy:         -813.73745619 Eh          -22142.92191 eV
Two Electron Energy:          246.04851088 Eh            6695.32036 eV

Virial components:
Potential Energy   :        -1031.26869080 Eh          -28062.24773 eV
Kinetic Energy     :          515.34619732 Eh           14023.28296 eV
Virial Ratio       :            2.00111827


DFT components:
N(Alpha)           :       13.000001010548 electrons
N(Beta)            :       13.000001010548 electrons
N(Total)           :       26.000002021096 electrons
E(X)               :      -34.663328843518 Eh       
E(C)               :       -0.954567143183 Eh       
E(XC)              :      -35.617895986700 Eh       
DFET-embed. en.    :        0.000000000000 Eh       

---------------
SCF CONVERGENCE
---------------

  Last Energy change         ...   -7.7989e-11  Tolerance :   1.0000e-09
  Last MAX-Density change    ...    4.0308e-06  Tolerance :   1.0000e-08
  Last RMS-Density change    ...    3.8232e-08  Tolerance :   1.0000e-09
  Last DIIS Error            ...    1.2580e-06  Tolerance :   1.0000e-08

             **** THE GBW FILE WAS UPDATED (nh2cl_pbe.gbw) ****
             **** DENSITY FILE WAS UPDATED (nh2cl_pbe.scfp.tmp) ****
             **** ENERGY FILE WAS UPDATED (nh2cl_pbe.en.tmp) ****
----------------------
UHF SPIN CONTAMINATION
----------------------

Warning: in a DFT calculation there is little theoretical justification to 
         calculate <S**2> as in Hartree-Fock theory. We will do it anyways
         but you should keep in mind that the values have only limited relevance

Expectation value of <S**2>     :     0.000000
Ideal value S*(S+1) for S=0.0   :     0.000000
Deviation                       :     0.000000

----------------
ORBITAL ENERGIES
----------------
                 SPIN UP ORBITALS
  NO   OCC          E(Eh)            E(eV) 
   0   1.0000    -100.667212     -2739.2941 
   1   1.0000     -14.038661      -382.0114 
   2   1.0000      -9.188921      -250.0433 
   3   1.0000      -7.014430      -190.8723 
   4   1.0000      -7.000549      -190.4946 
   5   1.0000      -7.000060      -190.4813 
   6   1.0000      -0.868539       -23.6342 
   7   1.0000      -0.693390       -18.8681 
   8   1.0000      -0.470305       -12.7977 
   9   1.0000      -0.423778       -11.5316 
  10   1.0000      -0.333237        -9.0678 
  11   1.0000      -0.275360        -7.4929 
  12   1.0000      -0.226524        -6.1640 
  13   0.0000      -0.075870        -2.0645 
  14   0.0000      -0.023053        -0.6273 
  15   0.0000       0.007666         0.2086 
  16   0.0000       0.016782         0.4567 
  17   0.0000       0.020798         0.5659 
  18   0.0000       0.037785         1.0282 
  19   0.0000       0.044868         1.2209 
  20   0.0000       0.046226         1.2579 
  21   0.0000       0.049566         1.3488 
  22   0.0000       0.050061         1.3622 
  23   0.0000       0.051454         1.4001 
  24   0.0000       0.065486         1.7820 
  25   0.0000       0.081510         2.2180 
  26   0.0000       0.092197         2.5088 
  27   0.0000       0.104444         2.8421 
  28   0.0000       0.106484         2.8976 
  29   0.0000       0.119540         3.2529 
  30   0.0000       0.126176         3.4334 
  31   0.0000       0.133344         3.6285 
  32   0.0000       0.138362         3.7650 
  33   0.0000       0.139124         3.7858 
  34   0.0000       0.143550         3.9062 
  35   0.0000       0.145516         3.9597 
  36   0.0000       0.148959         4.0534 
  37   0.0000       0.155912         4.2426 
  38   0.0000       0.159674         4.3450 
  39   0.0000       0.169219         4.6047 
  40   0.0000       0.185084         5.0364 
  41   0.0000       0.190408         5.1813 
  42   0.0000       0.208841         5.6828 
  43   0.0000       0.212794         5.7904 
  44   0.0000       0.215801         5.8722 
  45   0.0000       0.216502         5.8913 
  46   0.0000       0.224723         6.1150 
  47   0.0000       0.229964         6.2576 
  48   0.0000       0.232751         6.3335 
  49   0.0000       0.233601         6.3566 
  50   0.0000       0.240833         6.5534 
  51   0.0000       0.244059         6.6412 
  52   0.0000       0.249011         6.7759 
  53   0.0000       0.265717         7.2305 
  54   0.0000       0.267824         7.2879 
  55   0.0000       0.278030         7.5656 
  56   0.0000       0.289303         7.8723 
  57   0.0000       0.290575         7.9070 
  58   0.0000       0.299733         8.1561 
  59   0.0000       0.306753         8.3472 
  60   0.0000       0.320138         8.7114 
  61   0.0000       0.327676         8.9165 
  62   0.0000       0.334253         9.0955 
  63   0.0000       0.343323         9.3423 
  64   0.0000       0.343631         9.3507 
  65   0.0000       0.357159         9.7188 
  66   0.0000       0.365166         9.9367 
  67   0.0000       0.366424         9.9709 
  68   0.0000       0.372254        10.1295 
  69   0.0000       0.380068        10.3422 
  70   0.0000       0.385741        10.4965 
  71   0.0000       0.392605        10.6833 
  72   0.0000       0.402969        10.9653 
  73   0.0000       0.409335        11.1386 
  74   0.0000       0.413892        11.2626 
  75   0.0000       0.419216        11.4075 
  76   0.0000       0.421312        11.4645 
  77   0.0000       0.429086        11.6760 
  78   0.0000       0.443154        12.0588 
  79   0.0000       0.445370        12.1191 
  80   0.0000       0.448205        12.1963 
  81   0.0000       0.462130        12.5752 
  82   0.0000       0.463774        12.6199 
  83   0.0000       0.474070        12.9001 
  84   0.0000       0.484106        13.1732 
  85   0.0000       0.487430        13.2637 
  86   0.0000       0.490238        13.3400 
  87   0.0000       0.498845        13.5743 
  88   0.0000       0.504791        13.7361 
  89   0.0000       0.511787        13.9264 
  90   0.0000       0.512705        13.9514 
  91   0.0000       0.526063        14.3149 
  92   0.0000       0.528611        14.3842 
  93   0.0000       0.538905        14.6644 
  94   0.0000       0.547157        14.8889 
  95   0.0000       0.548800        14.9336 
  96   0.0000       0.558230        15.1902 
  97   0.0000       0.567388        15.4394 
  98   0.0000       0.581166        15.8143 
  99   0.0000       0.595267        16.1980 
 100   0.0000       0.605096        16.4655 
 101   0.0000       0.613121        16.6839 
 102   0.0000       0.628620        17.1056 
 103   0.0000       0.630831        17.1658 
 104   0.0000       0.642065        17.4715 
 105   0.0000       0.647688        17.6245 
 106   0.0000       0.656797        17.8723 
 107   0.0000       0.660745        17.9798 
 108   0.0000       0.667893        18.1743 
 109   0.0000       0.679955        18.5025 
 110   0.0000       0.686202        18.6725 
 111   0.0000       0.687720        18.7138 
 112   0.0000       0.690559        18.7911 
 113   0.0000       0.690870        18.7995 
 114   0.0000       0.710991        19.3471 
 115   0.0000       0.711471        19.3601 
 116   0.0000       0.726440        19.7674 
 117   0.0000       0.730946        19.8901 
 118   0.0000       0.747334        20.3360 
 119   0.0000       0.748943        20.3798 
 120   0.0000       0.758517        20.6403 
 121   0.0000       0.768365        20.9083 
 122   0.0000       0.769566        20.9410 
 123   0.0000       0.777390        21.1539 
 124   0.0000       0.785153        21.3651 
 125   0.0000       0.794652        21.6236 
 126   0.0000       0.802607        21.8400 
 127   0.0000       0.802820        21.8459 
 128   0.0000       0.808094        21.9894 
 129   0.0000       0.812159        22.1000 
 130   0.0000       0.813476        22.1358 
 131   0.0000       0.825650        22.4671 
 132   0.0000       0.830236        22.5919 
 133   0.0000       0.835304        22.7298 
 134   0.0000       0.840048        22.8589 
 135   0.0000       0.855253        23.2726 
 136   0.0000       0.866782        23.5863 
 137   0.0000       0.876263        23.8443 
 138   0.0000       0.879632        23.9360 
 139   0.0000       0.884922        24.0799 
 140   0.0000       0.893419        24.3112 
 141   0.0000       0.908855        24.7312 
 142   0.0000       0.914984        24.8980 
 143   0.0000       0.917080        24.9550 
 144   0.0000       0.923528        25.1305 
 145   0.0000       0.924757        25.1639 
 146   0.0000       0.942308        25.6415 
 147   0.0000       0.945256        25.7217 
 148   0.0000       0.964182        26.2367 
 149   0.0000       0.968366        26.3506 
 150   0.0000       0.971605        26.4387 
 151   0.0000       0.986217        26.8363 
 152   0.0000       0.999127        27.1876 
 153   0.0000       1.014284        27.6001 
 154   0.0000       1.018873        27.7249 
 155   0.0000       1.025187        27.8968 
 156   0.0000       1.033676        28.1278 
 157   0.0000       1.046546        28.4780 
 158   0.0000       1.049307        28.5531 
 159   0.0000       1.071714        29.1628 
 160   0.0000       1.087241        29.5853 
 161   0.0000       1.097424        29.8624 
 162   0.0000       1.104712        30.0607 
 163   0.0000       1.109560        30.1927 
 164   0.0000       1.124842        30.6085 
 165   0.0000       1.128305        30.7027 
 166   0.0000       1.129630        30.7388 
 167   0.0000       1.147133        31.2151 
 168   0.0000       1.152371        31.3576 
 169   0.0000       1.158408        31.5219 
 170   0.0000       1.173951        31.9448 
 171   0.0000       1.180590        32.1255 
 172   0.0000       1.183230        32.1973 
 173   0.0000       1.202303        32.7163 
 174   0.0000       1.221753        33.2456 
 175   0.0000       1.249465        33.9997 
 176   0.0000       1.252668        34.0868 
 177   0.0000       1.347473        36.6666 
 178   0.0000       1.363475        37.1020 
 179   0.0000       1.382069        37.6080 
 180   0.0000       1.409511        38.3547 
 181   0.0000       1.449850        39.4524 
 182   0.0000       1.468980        39.9730 
 183   0.0000       1.493507        40.6404 
 184   0.0000       1.530156        41.6377 
 185   0.0000       1.536863        41.8202 
 186   0.0000       1.569307        42.7030 
 187   0.0000       1.595903        43.4267 
 188   0.0000       1.596020        43.4299 
 189   0.0000       1.607190        43.7338 
 190   0.0000       1.621931        44.1350 
 191   0.0000       1.634128        44.4669 
 192   0.0000       1.639538        44.6141 
 193   0.0000       1.656942        45.0877 
 194   0.0000       1.686825        45.9008 
 195   0.0000       1.715997        46.6947 
 196   0.0000       1.736890        47.2632 
 197   0.0000       1.783240        48.5244 
 198   0.0000       1.796123        48.8750 
 199   0.0000       1.805677        49.1350 
 200   0.0000       1.835215        49.9387 
 201   0.0000       1.854536        50.4645 
 202   0.0000       1.870467        50.8980 
 203   0.0000       1.942848        52.8676 
 204   0.0000       1.944898        52.9234 
 205   0.0000       1.969638        53.5966 
 206   0.0000       1.979552        53.8663 
 207   0.0000       2.011166        54.7266 
 208   0.0000       2.042629        55.5828 
 209   0.0000       2.065673        56.2098 
 210   0.0000       2.171606        59.0924 
 211   0.0000       2.190108        59.5959 
 212   0.0000       2.271545        61.8119 
 213   0.0000       2.298370        62.5418 
 214   0.0000       2.375771        64.6480 
 215   0.0000       2.382336        64.8267 
 216   0.0000       2.400726        65.3271 
 217   0.0000       2.413027        65.6618 
 218   0.0000       2.426079        66.0170 
 219   0.0000       2.537026        69.0360 
 220   0.0000       2.554846        69.5209 
 221   0.0000       2.561813        69.7105 
 222   0.0000       2.582751        70.2802 
 223   0.0000       2.626852        71.4803 
 224   0.0000       2.681266        72.9610 
 225   0.0000       2.731150        74.3184 
 226   0.0000       2.874368        78.2155 
 227   0.0000       2.905610        79.0657 
 228   0.0000       2.920485        79.4704 
 229   0.0000       2.960920        80.5707 
 230   0.0000       2.972347        80.8817 
 231   0.0000       2.997462        81.5651 
 232   0.0000       3.029060        82.4249 
 233   0.0000       3.061691        83.3128 
 234   0.0000       3.101089        84.3849 
 235   0.0000       3.194770        86.9341 
 236   0.0000       3.204058        87.1868 
 237   0.0000       3.260794        88.7307 
 238   0.0000       3.304011        89.9067 
 239   0.0000       3.353057        91.2413 
 240   0.0000       3.381079        92.0038 
 241   0.0000       3.404274        92.6350 
 242   0.0000       3.419840        93.0586 
 243   0.0000       3.475439        94.5715 
 244   0.0000       3.547348        96.5283 
 245   0.0000       3.585288        97.5607 
 246   0.0000       3.625532        98.6558 
 247   0.0000       3.632273        98.8392 
 248   0.0000       3.666909        99.7817 
 249   0.0000       3.686756       100.3217 
 250   0.0000       3.708099       100.9025 
 251   0.0000       3.726855       101.4129 
 252   0.0000       3.760273       102.3222 
 253   0.0000       3.777085       102.7797 
 254   0.0000       3.804658       103.5300 
 255   0.0000       3.860722       105.0556 
 256   0.0000       3.903038       106.2071 
 257   0.0000       3.908020       106.3426 
 258   0.0000       3.940161       107.2172 
 259   0.0000       3.972766       108.1045 
 260   0.0000       4.038431       109.8913 
 261   0.0000       4.048017       110.1521 
 262   0.0000       4.080897       111.0468 
 263   0.0000       4.111204       111.8715 
 264   0.0000       4.112939       111.9188 
 265   0.0000       4.196987       114.2058 
 266   0.0000       4.280805       116.4866 
 267   0.0000       4.287082       116.6574 
 268   0.0000       4.299912       117.0065 
 269   0.0000       4.421738       120.3216 
 270   0.0000       4.440500       120.8322 
 271   0.0000       4.531431       123.3065 
 272   0.0000       4.667916       127.0204 
 273   0.0000       4.751931       129.3066 
 274   0.0000       4.787626       130.2779 
 275   0.0000       4.858356       132.2026 
 276   0.0000       4.871131       132.5502 
 277   0.0000       4.895129       133.2032 
 278   0.0000       4.945987       134.5871 
 279   0.0000       5.013454       136.4230 
 280   0.0000       5.028280       136.8265 
 281   0.0000       5.081873       138.2848 
 282   0.0000       5.217865       141.9853 
 283   0.0000       5.228355       142.2708 
 284   0.0000       5.322789       144.8405 
 285   0.0000       5.406608       147.1213 
 286   0.0000       5.493006       149.4723 
 287   0.0000       5.596704       152.2941 
 288   0.0000       5.639013       153.4453 
 289   0.0000       5.644317       153.5897 
 290   0.0000       5.669070       154.2633 
 291   0.0000       5.687236       154.7575 
 292   0.0000       5.689791       154.8271 
 293   0.0000       5.728275       155.8743 
 294   0.0000       5.728284       155.8745 
 295   0.0000       5.804414       157.9461 
 296   0.0000       5.837779       158.8541 
 297   0.0000       5.888271       160.2280 
 298   0.0000       5.923646       161.1906 
 299   0.0000       5.924521       161.2144 
 300   0.0000       6.022175       163.8717 
 301   0.0000       6.101617       166.0334 
 302   0.0000       6.131818       166.8552 
 303   0.0000       6.191976       168.4922 
 304   0.0000       6.200963       168.7368 
 305   0.0000       6.234956       169.6618 
 306   0.0000       6.281411       170.9259 
 307   0.0000       6.328123       172.1970 
 308   0.0000       6.389169       173.8581 
 309   0.0000       6.546187       178.1308 
 310   0.0000       6.605577       179.7469 
 311   0.0000       6.625517       180.2895 
 312   0.0000       6.691510       182.0853 
 313   0.0000       6.786265       184.6637 
 314   0.0000       6.922937       188.3827 
 315   0.0000       7.034939       191.4304 
 316   0.0000       7.252401       197.3479 
 317   0.0000       7.313063       198.9986 
 318   0.0000       7.330011       199.4597 
 319   0.0000       7.439933       202.4509 
 320   0.0000       7.631408       207.6612 
 321   0.0000       7.763409       211.2531 
 322   0.0000       7.779674       211.6957 
 323   0.0000       7.987996       217.3644 
 324   0.0000       8.053750       219.1537 
 325   0.0000       8.564929       233.0636 
 326   0.0000       8.584027       233.5832 
 327   0.0000       8.622567       234.6320 
 328   0.0000       8.650696       235.3974 
 329   0.0000       8.715365       237.1571 
 330   0.0000       8.951367       243.5791 
 331   0.0000       8.990445       244.6424 
 332   0.0000       9.109586       247.8844 
 333   0.0000       9.115817       248.0540 
 334   0.0000       9.133587       248.5375 
 335   0.0000       9.157690       249.1934 
 336   0.0000       9.193911       250.1790 
 337   0.0000       9.224546       251.0126 
 338   0.0000       9.411628       256.1034 
 339   0.0000       9.479520       257.9508 
 340   0.0000       9.552095       259.9257 
 341   0.0000       9.574882       260.5458 
 342   0.0000       9.674337       263.2521 
 343   0.0000       9.812402       267.0090 
 344   0.0000       9.888909       269.0909 
 345   0.0000       9.918760       269.9032 
 346   0.0000       9.976011       271.4611 
 347   0.0000      10.032568       273.0001 
 348   0.0000      10.049133       273.4508 
 349   0.0000      10.077845       274.2321 
 350   0.0000      10.244963       278.7796 
 351   0.0000      10.366914       282.0981 
 352   0.0000      11.272970       306.7531 
 353   0.0000      11.376808       309.5787 
 354   0.0000      11.444101       311.4098 
 355   0.0000      11.473750       312.2166 
 356   0.0000      11.538532       313.9794 
 357   0.0000      11.558345       314.5186 
 358   0.0000      11.652675       317.0854 
 359   0.0000      11.703356       318.4645 
 360   0.0000      11.748263       319.6865 
 361   0.0000      11.762261       320.0674 
 362   0.0000      11.888398       323.4997 
 363   0.0000      11.917854       324.3013 
 364   0.0000      11.958818       325.4160 
 365   0.0000      11.988040       326.2111 
 366   0.0000      12.318751       335.2102 
 367   0.0000      12.447205       338.7057 
 368   0.0000      12.531744       341.0061 
 369   0.0000      12.570520       342.0612 
 370   0.0000      12.647182       344.1473 
 371   0.0000      12.706951       345.7737 
 372   0.0000      12.811177       348.6098 
 373   0.0000      12.845037       349.5312 
 374   0.0000      12.918687       351.5354 
 375   0.0000      12.937704       352.0528 
 376   0.0000      12.946695       352.2975 
 377   0.0000      12.991684       353.5217 
 378   0.0000      12.999641       353.7382 
 379   0.0000      13.034275       354.6806 
 380   0.0000      13.110549       356.7562 
 381   0.0000      13.174632       358.5000 
 382   0.0000      13.496531       367.2593 
 383   0.0000      13.606709       370.2574 
 384   0.0000      13.722759       373.4153 
 385   0.0000      13.988981       380.6595 
 386   0.0000      14.083665       383.2360 
 387   0.0000      14.241025       387.5180 
 388   0.0000      14.247891       387.7048 
 389   0.0000      15.039117       409.2352 
 390   0.0000      15.178718       413.0339 
 391   0.0000      15.187886       413.2834 
 392   0.0000      15.312970       416.6871 
 393   0.0000      15.457242       420.6129 
 394   0.0000      15.492384       421.5692 
 395   0.0000      15.560053       423.4106 
 396   0.0000      15.722929       427.8426 
 397   0.0000      15.762000       428.9058 
 398   0.0000      15.927511       433.4096 
 399   0.0000      16.148629       439.4265 
 400   0.0000      16.287979       443.2184 
 401   0.0000      16.514643       449.3863 
 402   0.0000      16.672471       453.6810 
 403   0.0000      16.706438       454.6053 
 404   0.0000      16.743873       455.6240 
 405   0.0000      16.747483       455.7222 
 406   0.0000      16.968374       461.7329 
 407   0.0000      17.118843       465.8274 
 408   0.0000      17.196383       467.9374 
 409   0.0000      17.258603       469.6305 
 410   0.0000      17.264168       469.7819 
 411   0.0000      17.375111       472.8008 
 412   0.0000      17.565665       477.9860 
 413   0.0000      17.687341       481.2970 
 414   0.0000      17.719592       482.1746 
 415   0.0000      17.721664       482.2310 
 416   0.0000      17.754961       483.1370 
 417   0.0000      17.834840       485.3107 
 418   0.0000      17.870389       486.2780 
 419   0.0000      17.987323       489.4599 
 420   0.0000      18.437911       501.7211 
 421   0.0000      18.547912       504.7144 
 422   0.0000      18.918296       514.7930 
 423   0.0000      19.105106       519.8764 
 424   0.0000      19.535535       531.5889 
 425   0.0000      19.626103       534.0534 
 426   0.0000      20.697575       563.2097 
 427   0.0000      20.821382       566.5786 
 428   0.0000      20.838417       567.0422 
 429   0.0000      20.857372       567.5580 
 430   0.0000      21.184900       576.4704 
 431   0.0000      21.982283       598.1683 
 432   0.0000      23.560495       641.1137 
 433   0.0000      23.595065       642.0543 
 434   0.0000      23.654356       643.6677 
 435   0.0000      23.760143       646.5464 
 436   0.0000      24.267617       660.3554 
 437   0.0000      25.539916       694.9764 
 438   0.0000      25.887891       704.4453 
 439   0.0000      26.927548       732.7358 
 440   0.0000      27.993789       761.7497 
 441   0.0000      28.709594       781.2278 
 442   0.0000      40.949147      1114.2829 
 443   0.0000      41.384066      1126.1177 
 444   0.0000      41.486937      1128.9170 
 445   0.0000      48.048179      1307.4574 
 446   0.0000      48.134332      1309.8018 
 447   0.0000      48.233282      1312.4943 
 448   0.0000      48.620341      1323.0267 
 449   0.0000      49.283370      1341.0687 
 450   0.0000      65.857978      1792.0867 
 451   0.0000      65.859214      1792.1203 
 452   0.0000      65.904350      1793.3485 
 453   0.0000      65.937196      1794.2423 
 454   0.0000      66.236359      1802.3830 
 455   0.0000      91.027305      2476.9789 
 456   0.0000      91.063422      2477.9617 
 457   0.0000      91.115982      2479.3919 
 458   0.0000      91.171055      2480.8905 
 459   0.0000      92.833091      2526.1168 
 460   0.0000      92.943587      2529.1236 
 461   0.0000     105.619716      2874.0586 

                 SPIN DOWN ORBITALS
  NO   OCC          E(Eh)            E(eV) 
   0   1.0000    -100.667212     -2739.2941 
   1   1.0000     -14.038661      -382.0114 
   2   1.0000      -9.188921      -250.0433 
   3   1.0000      -7.014430      -190.8723 
   4   1.0000      -7.000549      -190.4946 
   5   1.0000      -7.000060      -190.4813 
   6   1.0000      -0.868539       -23.6342 
   7   1.0000      -0.693390       -18.8681 
   8   1.0000      -0.470305       -12.7977 
   9   1.0000      -0.423778       -11.5316 
  10   1.0000      -0.333237        -9.0678 
  11   1.0000      -0.275360        -7.4929 
  12   1.0000      -0.226524        -6.1640 
  13   0.0000      -0.075870        -2.0645 
  14   0.0000      -0.023053        -0.6273 
  15   0.0000       0.007666         0.2086 
  16   0.0000       0.016782         0.4567 
  17   0.0000       0.020798         0.5659 
  18   0.0000       0.037785         1.0282 
  19   0.0000       0.044868         1.2209 
  20   0.0000       0.046226         1.2579 
  21   0.0000       0.049566         1.3488 
  22   0.0000       0.050061         1.3622 
  23   0.0000       0.051454         1.4001 
  24   0.0000       0.065486         1.7820 
  25   0.0000       0.081510         2.2180 
  26   0.0000       0.092197         2.5088 
  27   0.0000       0.104444         2.8421 
  28   0.0000       0.106484         2.8976 
  29   0.0000       0.119540         3.2529 
  30   0.0000       0.126176         3.4334 
  31   0.0000       0.133344         3.6285 
  32   0.0000       0.138362         3.7650 
  33   0.0000       0.139124         3.7858 
  34   0.0000       0.143550         3.9062 
  35   0.0000       0.145516         3.9597 
  36   0.0000       0.148959         4.0534 
  37   0.0000       0.155912         4.2426 
  38   0.0000       0.159674         4.3450 
  39   0.0000       0.169219         4.6047 
  40   0.0000       0.185084         5.0364 
  41   0.0000       0.190408         5.1813 
  42   0.0000       0.208841         5.6828 
  43   0.0000       0.212794         5.7904 
  44   0.0000       0.215801         5.8722 
  45   0.0000       0.216502         5.8913 
  46   0.0000       0.224723         6.1150 
  47   0.0000       0.229964         6.2576 
  48   0.0000       0.232751         6.3335 
  49   0.0000       0.233601         6.3566 
  50   0.0000       0.240833         6.5534 
  51   0.0000       0.244059         6.6412 
  52   0.0000       0.249011         6.7759 
  53   0.0000       0.265717         7.2305 
  54   0.0000       0.267824         7.2879 
  55   0.0000       0.278030         7.5656 
  56   0.0000       0.289303         7.8723 
  57   0.0000       0.290575         7.9070 
  58   0.0000       0.299733         8.1561 
  59   0.0000       0.306753         8.3472 
  60   0.0000       0.320138         8.7114 
  61   0.0000       0.327676         8.9165 
  62   0.0000       0.334253         9.0955 
  63   0.0000       0.343323         9.3423 
  64   0.0000       0.343631         9.3507 
  65   0.0000       0.357159         9.7188 
  66   0.0000       0.365166         9.9367 
  67   0.0000       0.366424         9.9709 
  68   0.0000       0.372254        10.1295 
  69   0.0000       0.380068        10.3422 
  70   0.0000       0.385741        10.4965 
  71   0.0000       0.392605        10.6833 
  72   0.0000       0.402969        10.9653 
  73   0.0000       0.409335        11.1386 
  74   0.0000       0.413892        11.2626 
  75   0.0000       0.419216        11.4075 
  76   0.0000       0.421312        11.4645 
  77   0.0000       0.429086        11.6760 
  78   0.0000       0.443154        12.0588 
  79   0.0000       0.445370        12.1191 
  80   0.0000       0.448205        12.1963 
  81   0.0000       0.462130        12.5752 
  82   0.0000       0.463774        12.6199 
  83   0.0000       0.474070        12.9001 
  84   0.0000       0.484106        13.1732 
  85   0.0000       0.487430        13.2637 
  86   0.0000       0.490238        13.3400 
  87   0.0000       0.498845        13.5743 
  88   0.0000       0.504791        13.7361 
  89   0.0000       0.511787        13.9264 
  90   0.0000       0.512705        13.9514 
  91   0.0000       0.526063        14.3149 
  92   0.0000       0.528611        14.3842 
  93   0.0000       0.538905        14.6644 
  94   0.0000       0.547157        14.8889 
  95   0.0000       0.548800        14.9336 
  96   0.0000       0.558230        15.1902 
  97   0.0000       0.567388        15.4394 
  98   0.0000       0.581166        15.8143 
  99   0.0000       0.595267        16.1980 
 100   0.0000       0.605096        16.4655 
 101   0.0000       0.613121        16.6839 
 102   0.0000       0.628620        17.1056 
 103   0.0000       0.630831        17.1658 
 104   0.0000       0.642065        17.4715 
 105   0.0000       0.647688        17.6245 
 106   0.0000       0.656797        17.8723 
 107   0.0000       0.660745        17.9798 
 108   0.0000       0.667893        18.1743 
 109   0.0000       0.679955        18.5025 
 110   0.0000       0.686202        18.6725 
 111   0.0000       0.687720        18.7138 
 112   0.0000       0.690559        18.7911 
 113   0.0000       0.690870        18.7995 
 114   0.0000       0.710991        19.3471 
 115   0.0000       0.711471        19.3601 
 116   0.0000       0.726440        19.7674 
 117   0.0000       0.730946        19.8901 
 118   0.0000       0.747334        20.3360 
 119   0.0000       0.748943        20.3798 
 120   0.0000       0.758517        20.6403 
 121   0.0000       0.768365        20.9083 
 122   0.0000       0.769566        20.9410 
 123   0.0000       0.777390        21.1539 
 124   0.0000       0.785153        21.3651 
 125   0.0000       0.794652        21.6236 
 126   0.0000       0.802607        21.8400 
 127   0.0000       0.802820        21.8459 
 128   0.0000       0.808094        21.9894 
 129   0.0000       0.812159        22.1000 
 130   0.0000       0.813476        22.1358 
 131   0.0000       0.825650        22.4671 
 132   0.0000       0.830236        22.5919 
 133   0.0000       0.835304        22.7298 
 134   0.0000       0.840048        22.8589 
 135   0.0000       0.855253        23.2726 
 136   0.0000       0.866782        23.5863 
 137   0.0000       0.876263        23.8443 
 138   0.0000       0.879632        23.9360 
 139   0.0000       0.884922        24.0799 
 140   0.0000       0.893419        24.3112 
 141   0.0000       0.908855        24.7312 
 142   0.0000       0.914984        24.8980 
 143   0.0000       0.917080        24.9550 
 144   0.0000       0.923528        25.1305 
 145   0.0000       0.924757        25.1639 
 146   0.0000       0.942308        25.6415 
 147   0.0000       0.945256        25.7217 
 148   0.0000       0.964182        26.2367 
 149   0.0000       0.968366        26.3506 
 150   0.0000       0.971605        26.4387 
 151   0.0000       0.986217        26.8363 
 152   0.0000       0.999127        27.1876 
 153   0.0000       1.014284        27.6001 
 154   0.0000       1.018873        27.7249 
 155   0.0000       1.025187        27.8968 
 156   0.0000       1.033676        28.1278 
 157   0.0000       1.046546        28.4780 
 158   0.0000       1.049307        28.5531 
 159   0.0000       1.071714        29.1628 
 160   0.0000       1.087241        29.5853 
 161   0.0000       1.097424        29.8624 
 162   0.0000       1.104712        30.0607 
 163   0.0000       1.109560        30.1927 
 164   0.0000       1.124842        30.6085 
 165   0.0000       1.128305        30.7027 
 166   0.0000       1.129630        30.7388 
 167   0.0000       1.147133        31.2151 
 168   0.0000       1.152371        31.3576 
 169   0.0000       1.158408        31.5219 
 170   0.0000       1.173951        31.9448 
 171   0.0000       1.180590        32.1255 
 172   0.0000       1.183230        32.1973 
 173   0.0000       1.202303        32.7163 
 174   0.0000       1.221753        33.2456 
 175   0.0000       1.249465        33.9997 
 176   0.0000       1.252668        34.0868 
 177   0.0000       1.347473        36.6666 
 178   0.0000       1.363475        37.1020 
 179   0.0000       1.382069        37.6080 
 180   0.0000       1.409511        38.3547 
 181   0.0000       1.449850        39.4524 
 182   0.0000       1.468980        39.9730 
 183   0.0000       1.493507        40.6404 
 184   0.0000       1.530156        41.6377 
 185   0.0000       1.536863        41.8202 
 186   0.0000       1.569307        42.7030 
 187   0.0000       1.595903        43.4267 
 188   0.0000       1.596020        43.4299 
 189   0.0000       1.607190        43.7338 
 190   0.0000       1.621931        44.1350 
 191   0.0000       1.634128        44.4669 
 192   0.0000       1.639538        44.6141 
 193   0.0000       1.656942        45.0877 
 194   0.0000       1.686825        45.9008 
 195   0.0000       1.715997        46.6947 
 196   0.0000       1.736890        47.2632 
 197   0.0000       1.783240        48.5244 
 198   0.0000       1.796123        48.8750 
 199   0.0000       1.805677        49.1350 
 200   0.0000       1.835215        49.9387 
 201   0.0000       1.854536        50.4645 
 202   0.0000       1.870467        50.8980 
 203   0.0000       1.942848        52.8676 
 204   0.0000       1.944898        52.9234 
 205   0.0000       1.969638        53.5966 
 206   0.0000       1.979552        53.8663 
 207   0.0000       2.011166        54.7266 
 208   0.0000       2.042629        55.5828 
 209   0.0000       2.065673        56.2098 
 210   0.0000       2.171606        59.0924 
 211   0.0000       2.190108        59.5959 
 212   0.0000       2.271545        61.8119 
 213   0.0000       2.298370        62.5418 
 214   0.0000       2.375771        64.6480 
 215   0.0000       2.382336        64.8267 
 216   0.0000       2.400726        65.3271 
 217   0.0000       2.413027        65.6618 
 218   0.0000       2.426079        66.0170 
 219   0.0000       2.537026        69.0360 
 220   0.0000       2.554846        69.5209 
 221   0.0000       2.561813        69.7105 
 222   0.0000       2.582751        70.2802 
 223   0.0000       2.626852        71.4803 
 224   0.0000       2.681266        72.9610 
 225   0.0000       2.731150        74.3184 
 226   0.0000       2.874368        78.2155 
 227   0.0000       2.905610        79.0657 
 228   0.0000       2.920485        79.4704 
 229   0.0000       2.960920        80.5707 
 230   0.0000       2.972347        80.8817 
 231   0.0000       2.997462        81.5651 
 232   0.0000       3.029060        82.4249 
 233   0.0000       3.061691        83.3128 
 234   0.0000       3.101089        84.3849 
 235   0.0000       3.194770        86.9341 
 236   0.0000       3.204058        87.1868 
 237   0.0000       3.260794        88.7307 
 238   0.0000       3.304011        89.9067 
 239   0.0000       3.353057        91.2413 
 240   0.0000       3.381079        92.0038 
 241   0.0000       3.404274        92.6350 
 242   0.0000       3.419840        93.0586 
 243   0.0000       3.475439        94.5715 
 244   0.0000       3.547348        96.5283 
 245   0.0000       3.585288        97.5607 
 246   0.0000       3.625532        98.6558 
 247   0.0000       3.632273        98.8392 
 248   0.0000       3.666909        99.7817 
 249   0.0000       3.686756       100.3217 
 250   0.0000       3.708099       100.9025 
 251   0.0000       3.726855       101.4129 
 252   0.0000       3.760273       102.3222 
 253   0.0000       3.777085       102.7797 
 254   0.0000       3.804658       103.5300 
 255   0.0000       3.860722       105.0556 
 256   0.0000       3.903038       106.2071 
 257   0.0000       3.908020       106.3426 
 258   0.0000       3.940161       107.2172 
 259   0.0000       3.972766       108.1045 
 260   0.0000       4.038431       109.8913 
 261   0.0000       4.048017       110.1521 
 262   0.0000       4.080897       111.0468 
 263   0.0000       4.111204       111.8715 
 264   0.0000       4.112939       111.9188 
 265   0.0000       4.196987       114.2058 
 266   0.0000       4.280805       116.4866 
 267   0.0000       4.287082       116.6574 
 268   0.0000       4.299912       117.0065 
 269   0.0000       4.421738       120.3216 
 270   0.0000       4.440500       120.8322 
 271   0.0000       4.531431       123.3065 
 272   0.0000       4.667916       127.0204 
 273   0.0000       4.751931       129.3066 
 274   0.0000       4.787626       130.2779 
 275   0.0000       4.858356       132.2026 
 276   0.0000       4.871131       132.5502 
 277   0.0000       4.895129       133.2032 
 278   0.0000       4.945987       134.5871 
 279   0.0000       5.013454       136.4230 
 280   0.0000       5.028280       136.8265 
 281   0.0000       5.081873       138.2848 
 282   0.0000       5.217865       141.9853 
 283   0.0000       5.228355       142.2708 
 284   0.0000       5.322789       144.8405 
 285   0.0000       5.406608       147.1213 
 286   0.0000       5.493006       149.4723 
 287   0.0000       5.596704       152.2941 
 288   0.0000       5.639013       153.4453 
 289   0.0000       5.644317       153.5897 
 290   0.0000       5.669070       154.2633 
 291   0.0000       5.687236       154.7575 
 292   0.0000       5.689791       154.8271 
 293   0.0000       5.728275       155.8743 
 294   0.0000       5.728284       155.8745 
 295   0.0000       5.804414       157.9461 
 296   0.0000       5.837779       158.8541 
 297   0.0000       5.888271       160.2280 
 298   0.0000       5.923646       161.1906 
 299   0.0000       5.924521       161.2144 
 300   0.0000       6.022175       163.8717 
 301   0.0000       6.101617       166.0334 
 302   0.0000       6.131818       166.8552 
 303   0.0000       6.191976       168.4922 
 304   0.0000       6.200963       168.7368 
 305   0.0000       6.234956       169.6618 
 306   0.0000       6.281411       170.9259 
 307   0.0000       6.328123       172.1970 
 308   0.0000       6.389169       173.8581 
 309   0.0000       6.546187       178.1308 
 310   0.0000       6.605577       179.7469 
 311   0.0000       6.625517       180.2895 
 312   0.0000       6.691510       182.0853 
 313   0.0000       6.786265       184.6637 
 314   0.0000       6.922937       188.3827 
 315   0.0000       7.034939       191.4304 
 316   0.0000       7.252401       197.3479 
 317   0.0000       7.313063       198.9986 
 318   0.0000       7.330011       199.4597 
 319   0.0000       7.439933       202.4509 
 320   0.0000       7.631408       207.6612 
 321   0.0000       7.763409       211.2531 
 322   0.0000       7.779674       211.6957 
 323   0.0000       7.987996       217.3644 
 324   0.0000       8.053750       219.1537 
 325   0.0000       8.564929       233.0636 
 326   0.0000       8.584027       233.5832 
 327   0.0000       8.622567       234.6320 
 328   0.0000       8.650696       235.3974 
 329   0.0000       8.715365       237.1571 
 330   0.0000       8.951367       243.5791 
 331   0.0000       8.990445       244.6424 
 332   0.0000       9.109586       247.8844 
 333   0.0000       9.115817       248.0540 
 334   0.0000       9.133587       248.5375 
 335   0.0000       9.157690       249.1934 
 336   0.0000       9.193911       250.1790 
 337   0.0000       9.224546       251.0126 
 338   0.0000       9.411628       256.1034 
 339   0.0000       9.479520       257.9508 
 340   0.0000       9.552095       259.9257 
 341   0.0000       9.574882       260.5458 
 342   0.0000       9.674337       263.2521 
 343   0.0000       9.812402       267.0090 
 344   0.0000       9.888909       269.0909 
 345   0.0000       9.918760       269.9032 
 346   0.0000       9.976011       271.4611 
 347   0.0000      10.032568       273.0001 
 348   0.0000      10.049133       273.4508 
 349   0.0000      10.077845       274.2321 
 350   0.0000      10.244963       278.7796 
 351   0.0000      10.366914       282.0981 
 352   0.0000      11.272970       306.7531 
 353   0.0000      11.376808       309.5787 
 354   0.0000      11.444101       311.4098 
 355   0.0000      11.473750       312.2166 
 356   0.0000      11.538532       313.9794 
 357   0.0000      11.558345       314.5186 
 358   0.0000      11.652675       317.0854 
 359   0.0000      11.703356       318.4645 
 360   0.0000      11.748263       319.6865 
 361   0.0000      11.762261       320.0674 
 362   0.0000      11.888398       323.4997 
 363   0.0000      11.917854       324.3013 
 364   0.0000      11.958818       325.4160 
 365   0.0000      11.988040       326.2111 
 366   0.0000      12.318751       335.2102 
 367   0.0000      12.447205       338.7057 
 368   0.0000      12.531744       341.0061 
 369   0.0000      12.570520       342.0612 
 370   0.0000      12.647182       344.1473 
 371   0.0000      12.706951       345.7737 
 372   0.0000      12.811177       348.6098 
 373   0.0000      12.845037       349.5312 
 374   0.0000      12.918687       351.5354 
 375   0.0000      12.937704       352.0528 
 376   0.0000      12.946695       352.2975 
 377   0.0000      12.991684       353.5217 
 378   0.0000      12.999641       353.7382 
 379   0.0000      13.034275       354.6806 
 380   0.0000      13.110549       356.7562 
 381   0.0000      13.174632       358.5000 
 382   0.0000      13.496531       367.2593 
 383   0.0000      13.606709       370.2574 
 384   0.0000      13.722759       373.4153 
 385   0.0000      13.988981       380.6595 
 386   0.0000      14.083665       383.2360 
 387   0.0000      14.241025       387.5180 
 388   0.0000      14.247891       387.7048 
 389   0.0000      15.039117       409.2352 
 390   0.0000      15.178718       413.0339 
 391   0.0000      15.187886       413.2834 
 392   0.0000      15.312970       416.6871 
 393   0.0000      15.457242       420.6129 
 394   0.0000      15.492384       421.5692 
 395   0.0000      15.560053       423.4106 
 396   0.0000      15.722929       427.8426 
 397   0.0000      15.762000       428.9058 
 398   0.0000      15.927511       433.4096 
 399   0.0000      16.148629       439.4265 
 400   0.0000      16.287979       443.2184 
 401   0.0000      16.514643       449.3863 
 402   0.0000      16.672471       453.6810 
 403   0.0000      16.706438       454.6053 
 404   0.0000      16.743873       455.6240 
 405   0.0000      16.747483       455.7222 
 406   0.0000      16.968374       461.7329 
 407   0.0000      17.118843       465.8274 
 408   0.0000      17.196383       467.9374 
 409   0.0000      17.258603       469.6305 
 410   0.0000      17.264168       469.7819 
 411   0.0000      17.375111       472.8008 
 412   0.0000      17.565665       477.9860 
 413   0.0000      17.687341       481.2970 
 414   0.0000      17.719592       482.1746 
 415   0.0000      17.721664       482.2310 
 416   0.0000      17.754961       483.1370 
 417   0.0000      17.834840       485.3107 
 418   0.0000      17.870389       486.2780 
 419   0.0000      17.987323       489.4599 
 420   0.0000      18.437911       501.7211 
 421   0.0000      18.547912       504.7144 
 422   0.0000      18.918296       514.7930 
 423   0.0000      19.105106       519.8764 
 424   0.0000      19.535535       531.5889 
 425   0.0000      19.626103       534.0534 
 426   0.0000      20.697575       563.2097 
 427   0.0000      20.821382       566.5786 
 428   0.0000      20.838417       567.0422 
 429   0.0000      20.857372       567.5580 
 430   0.0000      21.184900       576.4704 
 431   0.0000      21.982283       598.1683 
 432   0.0000      23.560495       641.1137 
 433   0.0000      23.595065       642.0543 
 434   0.0000      23.654356       643.6677 
 435   0.0000      23.760143       646.5464 
 436   0.0000      24.267617       660.3554 
 437   0.0000      25.539916       694.9764 
 438   0.0000      25.887891       704.4453 
 439   0.0000      26.927548       732.7358 
 440   0.0000      27.993789       761.7497 
 441   0.0000      28.709594       781.2278 
 442   0.0000      40.949147      1114.2829 
 443   0.0000      41.384066      1126.1177 
 444   0.0000      41.486937      1128.9170 
 445   0.0000      48.048179      1307.4574 
 446   0.0000      48.134332      1309.8018 
 447   0.0000      48.233282      1312.4943 
 448   0.0000      48.620341      1323.0267 
 449   0.0000      49.283370      1341.0687 
 450   0.0000      65.857978      1792.0867 
 451   0.0000      65.859214      1792.1203 
 452   0.0000      65.904350      1793.3485 
 453   0.0000      65.937196      1794.2423 
 454   0.0000      66.236359      1802.3830 
 455   0.0000      91.027305      2476.9789 
 456   0.0000      91.063422      2477.9617 
 457   0.0000      91.115982      2479.3919 
 458   0.0000      91.171055      2480.8905 
 459   0.0000      92.833091      2526.1168 
 460   0.0000      92.943587      2529.1236 
 461   0.0000     105.619716      2874.0586 

                    ********************************
                    * MULLIKEN POPULATION ANALYSIS *
                    ********************************

--------------------------------------------
MULLIKEN ATOMIC CHARGES AND SPIN POPULATIONS
--------------------------------------------
   0 Cl:   -0.122359   -0.000000
   1 N :   -0.186223    0.000000
   2 H :    0.154792   -0.000000
   3 H :    0.153789   -0.000000
Sum of atomic charges         :    0.0000000
Sum of atomic spin populations:   -0.0000000

-----------------------------------------------------
MULLIKEN REDUCED ORBITAL CHARGES AND SPIN POPULATIONS
-----------------------------------------------------
CHARGE
  0 Cls       :     6.002772  s :     6.002772
      pz      :     3.077442  p :    10.972792
      px      :     3.946168
      py      :     3.949182
      dz2     :     0.039249  d :     0.123084
      dxz     :     0.037782
      dyz     :     0.045633
      dx2y2   :     0.000310
      dxy     :     0.000112
      f0      :     0.004980  f :     0.021961
      f+1     :     0.008111
      f-1     :     0.008514
      f+2     :     0.000331
      f-2     :     0.000006
      f+3     :     0.000016
      f-3     :     0.000004
      g0      :     0.000181  g :     0.001984
      g+1     :     0.000854
      g-1     :     0.000811
      g+2     :     0.000132
      g-2     :    -0.000017
      g+3     :     0.000019
      g-3     :     0.000002
      g+4     :     0.000001
      g-4     :     0.000001
      h0      :    -0.000023  h :    -0.000234
      h+1     :    -0.000107
      h-1     :    -0.000115
      h+2     :     0.000010
      h-2     :    -0.000007
      h+3     :     0.000006
      h-3     :     0.000001
      h+4     :    -0.000000
      h-4     :     0.000000
      h+5     :     0.000000
      h-5     :    -0.000000
  1 N s       :     3.606316  s :     3.606316
      pz      :     0.899560  p :     3.485917
      px      :     1.231510
      py      :     1.354847
      dz2     :     0.000009  d :     0.072098
      dxz     :     0.027225
      dyz     :     0.029319
      dx2y2   :     0.012421
      dxy     :     0.003125
      f0      :     0.002474  f :     0.019776
      f+1     :     0.009451
      f-1     :     0.006937
      f+2     :     0.000045
      f-2     :     0.000066
      f+3     :     0.000702
      f-3     :     0.000099
      g0      :     0.001205  g :     0.001882
      g+1     :     0.000709
      g-1     :    -0.000179
      g+2     :     0.000002
      g-2     :     0.000006
      g+3     :     0.000026
      g-3     :     0.000004
      g+4     :     0.000063
      g-4     :     0.000047
      h0      :     0.000222  h :     0.000233
      h+1     :     0.000045
      h-1     :    -0.000047
      h+2     :     0.000005
      h-2     :     0.000002
      h+3     :    -0.000001
      h-3     :     0.000000
      h+4     :     0.000002
      h-4     :     0.000001
      h+5     :     0.000003
      h-5     :     0.000001
  2 H s       :     0.730102  s :     0.730102
      pz      :     0.033576  p :     0.086369
      px      :     0.019164
      py      :     0.033629
      dz2     :     0.007770  d :     0.019739
      dxz     :     0.008536
      dyz     :    -0.000643
      dx2y2   :     0.001706
      dxy     :     0.002368
      f0      :     0.005196  f :     0.007504
      f+1     :     0.000372
      f-1     :    -0.000728
      f+2     :     0.001845
      f-2     :     0.000792
      f+3     :    -0.000538
      f-3     :     0.000565
      g0      :     0.000656  g :     0.001495
      g+1     :     0.000161
      g-1     :     0.000005
      g+2     :     0.000046
      g-2     :     0.000323
      g+3     :     0.000194
      g-3     :     0.000104
      g+4     :    -0.000093
      g-4     :     0.000099
  3 H s       :     0.731031  s :     0.731031
      pz      :     0.033560  p :     0.086447
      px      :     0.031099
      py      :     0.021789
      dz2     :     0.007770  d :     0.019737
      dxz     :     0.000404
      dyz     :     0.007491
      dx2y2   :     0.000234
      dxy     :     0.003837
      f0      :     0.005196  f :     0.007499
      f+1     :    -0.000361
      f-1     :     0.000005
      f+2     :     0.001990
      f-2     :     0.000646
      f+3     :     0.000420
      f-3     :    -0.000398
      g0      :     0.000656  g :     0.001495
      g+1     :    -0.000006
      g-1     :     0.000172
      g+2     :     0.000219
      g-2     :     0.000151
      g+3     :     0.000099
      g-3     :     0.000199
      g+4     :     0.000078
      g-4     :    -0.000073

SPIN
  0 Cls       :    -0.000000  s :    -0.000000
      pz      :     0.000000  p :    -0.000000
      px      :    -0.000000
      py      :    -0.000000
      dz2     :     0.000000  d :     0.000000
      dxz     :    -0.000000
      dyz     :    -0.000000
      dx2y2   :    -0.000000
      dxy     :     0.000000
      f0      :     0.000000  f :     0.000000
      f+1     :    -0.000000
      f-1     :    -0.000000
      f+2     :    -0.000000
      f-2     :    -0.000000
      f+3     :     0.000000
      f-3     :    -0.000000
      g0      :     0.000000  g :    -0.000000
      g+1     :    -0.000000
      g-1     :    -0.000000
      g+2     :    -0.000000
      g-2     :    -0.000000
      g+3     :     0.000000
      g-3     :    -0.000000
      g+4     :     0.000000
      g-4     :    -0.000000
      h0      :     0.000000  h :    -0.000000
      h+1     :    -0.000000
      h-1     :    -0.000000
      h+2     :    -0.000000
      h-2     :    -0.000000
      h+3     :    -0.000000
      h-3     :    -0.000000
      h+4     :     0.000000
      h-4     :    -0.000000
      h+5     :    -0.000000
      h-5     :    -0.000000
  1 N s       :     0.000000  s :     0.000000
      pz      :     0.000000  p :     0.000000
      px      :     0.000000
      py      :     0.000000
      dz2     :    -0.000000  d :    -0.000000
      dxz     :     0.000000
      dyz     :     0.000000
      dx2y2   :    -0.000000
      dxy     :    -0.000000
      f0      :     0.000000  f :     0.000000
      f+1     :     0.000000
      f-1     :     0.000000
      f+2     :    -0.000000
      f-2     :     0.000000
      f+3     :    -0.000000
      f-3     :    -0.000000
      g0      :     0.000000  g :     0.000000
      g+1     :    -0.000000
      g-1     :    -0.000000
      g+2     :     0.000000
      g-2     :     0.000000
      g+3     :     0.000000
      g-3     :     0.000000
      g+4     :    -0.000000
      g-4     :     0.000000
      h0      :     0.000000  h :     0.000000
      h+1     :     0.000000
      h-1     :    -0.000000
      h+2     :     0.000000
      h-2     :     0.000000
      h+3     :    -0.000000
      h-3     :    -0.000000
      h+4     :    -0.000000
      h-4     :     0.000000
      h+5     :     0.000000
      h-5     :    -0.000000
  2 H s       :    -0.000000  s :    -0.000000
      pz      :    -0.000000  p :    -0.000000
      px      :    -0.000000
      py      :     0.000000
      dz2     :    -0.000000  d :    -0.000000
      dxz     :    -0.000000
      dyz     :    -0.000000
      dx2y2   :    -0.000000
      dxy     :     0.000000
      f0      :     0.000000  f :    -0.000000
      f+1     :    -0.000000
      f-1     :    -0.000000
      f+2     :    -0.000000
      f-2     :     0.000000
      f+3     :    -0.000000
      f-3     :     0.000000
      g0      :    -0.000000  g :    -0.000000
      g+1     :     0.000000
      g-1     :    -0.000000
      g+2     :    -0.000000
      g-2     :    -0.000000
      g+3     :    -0.000000
      g-3     :     0.000000
      g+4     :    -0.000000
      g-4     :     0.000000
  3 H s       :    -0.000000  s :    -0.000000
      pz      :    -0.000000  p :    -0.000000
      px      :    -0.000000
      py      :    -0.000000
      dz2     :    -0.000000  d :    -0.000000
      dxz     :    -0.000000
      dyz     :    -0.000000
      dx2y2   :    -0.000000
      dxy     :     0.000000
      f0      :     0.000000  f :    -0.000000
      f+1     :    -0.000000
      f-1     :    -0.000000
      f+2     :    -0.000000
      f-2     :    -0.000000
      f+3     :     0.000000
      f-3     :     0.000000
      g0      :    -0.000000  g :    -0.000000
      g+1     :     0.000000
      g-1     :     0.000000
      g+2     :    -0.000000
      g-2     :    -0.000000
      g+3     :    -0.000000
      g-3     :    -0.000000
      g+4     :     0.000000
      g-4     :     0.000000


                     *******************************
                     * LOEWDIN POPULATION ANALYSIS *
                     *******************************

-------------------------------------------
LOEWDIN ATOMIC CHARGES AND SPIN POPULATIONS
-------------------------------------------
   0 Cl:    1.523046   -0.000000
   1 N :    0.285030    0.000000
   2 H :   -0.904037   -0.000000
   3 H :   -0.904039   -0.000000

----------------------------------------------------
LOEWDIN REDUCED ORBITAL CHARGES AND SPIN POPULATIONS
----------------------------------------------------
CHARGE
  0 Cls       :     5.097834  s :     5.097834
      pz      :     2.942389  p :     9.725867
      px      :     3.390299
      py      :     3.393180
      dz2     :     0.130921  d :     0.311107
      dxz     :     0.083553
      dyz     :     0.095443
      dx2y2   :     0.000981
      dxy     :     0.000209
      f0      :     0.057132  f :     0.173716
      f+1     :     0.056592
      f-1     :     0.057354
      f+2     :     0.002121
      f-2     :     0.000423
      f+3     :     0.000076
      f-3     :     0.000019
      g0      :     0.027022  g :     0.112444
      g+1     :     0.041012
      g-1     :     0.039887
      g+2     :     0.003647
      g-2     :     0.000605
      g+3     :     0.000210
      g-3     :     0.000042
      g+4     :     0.000010
      g-4     :     0.000009
      h0      :     0.010819  h :     0.055985
      h+1     :     0.020542
      h-1     :     0.019811
      h+2     :     0.003617
      h-2     :     0.000658
      h+3     :     0.000360
      h-3     :     0.000041
      h+4     :     0.000068
      h-4     :     0.000067
      h+5     :     0.000001
      h-5     :     0.000001
  1 N s       :     2.750606  s :     2.750606
      pz      :     0.832962  p :     2.920423
      px      :     1.017466
      py      :     1.069995
      dz2     :     0.200713  d :     0.535879
      dxz     :     0.141920
      dyz     :     0.138823
      dx2y2   :     0.042597
      dxy     :     0.011826
      f0      :     0.081822  f :     0.259140
      f+1     :     0.083758
      f-1     :     0.082730
      f+2     :     0.002900
      f-2     :     0.000829
      f+3     :     0.005295
      f-3     :     0.001807
      g0      :     0.044089  g :     0.162040
      g+1     :     0.057867
      g-1     :     0.058631
      g+2     :     0.000122
      g-2     :     0.000047
      g+3     :     0.000303
      g-3     :     0.000098
      g+4     :     0.000456
      g-4     :     0.000426
      h0      :     0.020528  h :     0.086881
      h+1     :     0.032108
      h-1     :     0.032958
      h+2     :     0.000077
      h-2     :     0.000291
      h+3     :     0.000240
      h-3     :     0.000092
      h+4     :     0.000168
      h-4     :     0.000140
      h+5     :     0.000069
      h-5     :     0.000209
  2 H s       :     0.630997  s :     0.630997
      pz      :     0.135083  p :     0.482496
      px      :     0.218327
      py      :     0.129085
      dz2     :     0.092169  d :     0.419698
      dxz     :     0.107243
      dyz     :     0.034913
      dx2y2   :     0.070307
      dxy     :     0.115066
      f0      :     0.049569  f :     0.230212
      f+1     :     0.055528
      f-1     :     0.035849
      f+2     :     0.027634
      f-2     :     0.021733
      f+3     :     0.011568
      f-3     :     0.028331
      g0      :     0.029800  g :     0.140633
      g+1     :     0.028796
      g-1     :     0.017040
      g+2     :     0.022179
      g-2     :     0.027133
      g+3     :     0.005028
      g-3     :     0.005946
      g+4     :     0.001868
      g-4     :     0.002843
  3 H s       :     0.630998  s :     0.630998
      pz      :     0.135083  p :     0.482497
      px      :     0.125888
      py      :     0.221526
      dz2     :     0.092169  d :     0.419699
      dxz     :     0.043784
      dyz     :     0.098373
      dx2y2   :     0.100635
      dxy     :     0.084738
      f0      :     0.049569  f :     0.230212
      f+1     :     0.039743
      f-1     :     0.051634
      f+2     :     0.025001
      f-2     :     0.024366
      f+3     :     0.012460
      f-3     :     0.027439
      g0      :     0.029800  g :     0.140633
      g+1     :     0.018055
      g-1     :     0.027781
      g+2     :     0.023683
      g-2     :     0.025630
      g+3     :     0.005301
      g-3     :     0.005673
      g+4     :     0.003258
      g-4     :     0.001454

SPIN
  0 Cls       :    -0.000000  s :    -0.000000
      pz      :     0.000000  p :    -0.000000
      px      :    -0.000000
      py      :    -0.000000
      dz2     :    -0.000000  d :    -0.000000
      dxz     :     0.000000
      dyz     :     0.000000
      dx2y2   :    -0.000000
      dxy     :    -0.000000
      f0      :    -0.000000  f :     0.000000
      f+1     :     0.000000
      f-1     :     0.000000
      f+2     :    -0.000000
      f-2     :    -0.000000
      f+3     :    -0.000000
      f-3     :    -0.000000
      g0      :    -0.000000  g :    -0.000000
      g+1     :    -0.000000
      g-1     :    -0.000000
      g+2     :     0.000000
      g-2     :    -0.000000
      g+3     :    -0.000000
      g-3     :    -0.000000
      g+4     :    -0.000000
      g-4     :    -0.000000
      h0      :     0.000000  h :    -0.000000
      h+1     :    -0.000000
      h-1     :    -0.000000
      h+2     :    -0.000000
      h-2     :     0.000000
      h+3     :     0.000000
      h-3     :    -0.000000
      h+4     :     0.000000
      h-4     :     0.000000
      h+5     :     0.000000
      h-5     :    -0.000000
  1 N s       :     0.000000  s :     0.000000
      pz      :     0.000000  p :     0.000000
      px      :     0.000000
      py      :    -0.000000
      dz2     :    -0.000000  d :    -0.000000
      dxz     :     0.000000
      dyz     :     0.000000
      dx2y2   :    -0.000000
      dxy     :     0.000000
      f0      :     0.000000  f :     0.000000
      f+1     :     0.000000
      f-1     :    -0.000000
      f+2     :     0.000000
      f-2     :    -0.000000
      f+3     :     0.000000
      f-3     :    -0.000000
      g0      :     0.000000  g :     0.000000
      g+1     :    -0.000000
      g-1     :     0.000000
      g+2     :     0.000000
      g-2     :    -0.000000
      g+3     :    -0.000000
      g-3     :     0.000000
      g+4     :    -0.000000
      g-4     :    -0.000000
      h0      :    -0.000000  h :    -0.000000
      h+1     :     0.000000
      h-1     :    -0.000000
      h+2     :    -0.000000
      h-2     :    -0.000000
      h+3     :     0.000000
      h-3     :     0.000000
      h+4     :     0.000000
      h-4     :     0.000000
      h+5     :    -0.000000
      h-5     :    -0.000000
  2 H s       :    -0.000000  s :    -0.000000
      pz      :    -0.000000  p :     0.000000
      px      :     0.000000
      py      :     0.000000
      dz2     :    -0.000000  d :    -0.000000
      dxz     :    -0.000000
      dyz     :    -0.000000
      dx2y2   :     0.000000
      dxy     :    -0.000000
      f0      :    -0.000000  f :    -0.000000
      f+1     :    -0.000000
      f-1     :    -0.000000
      f+2     :    -0.000000
      f-2     :     0.000000
      f+3     :    -0.000000
      f-3     :     0.000000
      g0      :     0.000000  g :    -0.000000
      g+1     :     0.000000
      g-1     :     0.000000
      g+2     :    -0.000000
      g-2     :    -0.000000
      g+3     :    -0.000000
      g-3     :     0.000000
      g+4     :     0.000000
      g-4     :     0.000000
  3 H s       :    -0.000000  s :    -0.000000
      pz      :    -0.000000  p :    -0.000000
      px      :    -0.000000
      py      :     0.000000
      dz2     :     0.000000  d :     0.000000
      dxz     :    -0.000000
      dyz     :    -0.000000
      dx2y2   :     0.000000
      dxy     :     0.000000
      f0      :     0.000000  f :    -0.000000
      f+1     :    -0.000000
      f-1     :    -0.000000
      f+2     :    -0.000000
      f-2     :     0.000000
      f+3     :     0.000000
      f-3     :     0.000000
      g0      :    -0.000000  g :    -0.000000
      g+1     :     0.000000
      g-1     :    -0.000000
      g+2     :    -0.000000
      g-2     :    -0.000000
      g+3     :    -0.000000
      g-3     :    -0.000000
      g+4     :     0.000000
      g-4     :     0.000000


                      *****************************
                      * MAYER POPULATION ANALYSIS *
                      *****************************

  NA   - Mulliken gross atomic population
  ZA   - Total nuclear charge
  QA   - Mulliken gross atomic charge
  VA   - Mayer's total valence
  BVA  - Mayer's bonded valence
  FA   - Mayer's free valence

  ATOM       NA         ZA         QA         VA         BVA        FA
  0 Cl    17.1224    17.0000    -0.1224     1.2797     1.2797     0.0000
  1 N      7.1862     7.0000    -0.1862     2.9559     2.9559     0.0000
  2 H      0.8452     1.0000     0.1548     1.0733     1.0733     0.0000
  3 H      0.8462     1.0000     0.1538     1.0740     1.0740     0.0000

  Mayer bond orders larger than 0.1
B(  0-Cl,  1-N ) :   1.0698 B(  0-Cl,  2-H ) :   0.1050 B(  0-Cl,  3-H ) :   0.1049 
B(  1-N ,  2-H ) :   0.9427 B(  1-N ,  3-H ) :   0.9434 

-------
TIMINGS
-------

Total SCF time: 0 days 0 hours 33 min 52 sec 

Total time                  ....    2032.738 sec
Sum of individual times     ....    2030.551 sec  ( 99.9%)

Fock matrix formation       ....    2024.571 sec  ( 99.6%)
  XC integration            ....      31.516 sec  (  1.6% of F)
    Basis function eval.    ....       1.897 sec  (  6.0% of XC)
    Density eval.           ....       7.880 sec  ( 25.0% of XC)
    XC-Functional eval.     ....       0.558 sec  (  1.8% of XC)
    XC-Potential eval.      ....      19.465 sec  ( 61.8% of XC)
Diagonalization             ....       2.615 sec  (  0.1%)
Density matrix formation    ....       0.052 sec  (  0.0%)
Population analysis         ....       0.176 sec  (  0.0%)
Initial guess               ....       1.309 sec  (  0.1%)
Orbital Transformation      ....       0.000 sec  (  0.0%)
Orbital Orthonormalization  ....       0.000 sec  (  0.0%)
DIIS solution               ....       1.384 sec  (  0.1%)
Grid generation             ....       0.445 sec  (  0.0%)

-------------------------   --------------------
FINAL SINGLE POINT ENERGY      -515.922493484272
-------------------------   --------------------


                            ***************************************
                            *     ORCA property calculations      *
                            ***************************************

                                    ---------------------
                                    Active property flags
                                    ---------------------
   (+) Dipole Moment
   (+) Polarizability


------------------------------------------------------------------------------
                       ORCA ELECTRIC PROPERTIES CALCULATION
------------------------------------------------------------------------------

Dipole Moment Calculation                       ... on
Quadrupole Moment Calculation                   ... off
Polarizability Calculation                      ... Analytic (CP-SCF)
GBWName                                         ... nh2cl_pbe.gbw
Electron density file                           ... nh2cl_pbe.scfp.tmp
The origin for moment calculation is the CENTER OF MASS  = ( 0.024253, -0.034419  1.045566)

-------------
DIPOLE MOMENT
-------------
                                X             Y             Z
Electronic contribution:     -0.26292       0.37312      -2.97796
Nuclear contribution   :      0.60797      -0.86280       3.43695
                        -----------------------------------------
Total Dipole Moment    :      0.34505      -0.48968       0.45899
                        -----------------------------------------
Magnitude (a.u.)       :      0.75466
Magnitude (Debye)      :      1.91819



--------------------
Rotational spectrum 
--------------------
 
Rotational constants in cm-1:     9.049835     0.473605     0.463632 
Rotational constants in MHz : 271307.221348 14198.317814 13899.341134 

 Dipole components along the rotational axes: 
x,y,z [a.u.] :     0.487025    -0.000001     0.576471 
x,y,z [Debye]:     1.237919    -0.000002     1.465272 

 
Transforming and storing MO dipole integrals   ... done

                ... starting polarizability calculation

Opening the Dipole integral file               ... (nh2cl_pbe.dmo.tmp) done
Reading Dipole-MO integrals                    ... done
Solving CP-SCF equations                       ... 

           ************************************************************
           *        Program running with 4 parallel MPI-processes     *
           *              working on a common directory               *
           ************************************************************

------------------------------------------------------------------------------
                           ORCA CP-SCF CALCULATION
------------------------------------------------------------------------------

Input orbitals are from        ... nh2cl_pbe.gbw
Input Perturbation             ... nh2cl_pbe.cpv.tmp
Wavefunction output            ... nh2cl_pbe.cpu.tmp
Perturbation mode              ... Real perturbation (singlet)
Solver                         ... POPLE
Max. number of iterations      ... 200
Convergence tolerance          ... 1.000e-06
Integral handling              ... Direct
Number of perturbations        ... 3
Number of operators            ... 2
Orbital ranges used for CP-SCF:
 Operator 0:  Orbitals   0... 12  to  13...461
 Operator 1:  Orbitals   0... 12  to  13...461
DFT calculation                         ... on
Exchange functional (SCF)               ... PBE
Exchange functional (CP-SCF)            ... PBE
   PBE kappa parameter  XKappa (SCF)    ...  0.804000
   PBE kappa parameter  XKappa (CP-SCF) ...  0.804000
   PBE mue parameter   XMuePBE (SCF)    ...  0.219520
   PBE mue parameter   XMuePBE (CP-SCF) ...  0.219520
Correlation functional (SCF)            ... PBE
Correlation functional (CP-SCF)         ... PBE
   PBE beta parameter CBetaPBE (SCF)    ...  0.066725
   PBE beta parameter CBetaPBE (CP-SCF) ...  0.066725
 LDA part of GGA corr.  LDAOpt (SCF)    ... PW91-LDA
 LDA part of GGA corr.  LDAOpt (CP-SCF) ... PW91-LDA
Variables per vector in CP-SCF ... 11674
Number of vectors sought       ... 3
Recalculating density on grid  ... done
Calculating the xc-kernel      ... done
     CP-SCF ITERATION   0: 
     CP-SCF ITERATION   1:      0.738755779640
     CP-SCF ITERATION   2:      0.027941439149
     CP-SCF ITERATION   3:      0.001636639484
     CP-SCF ITERATION   4:      0.000101973743
     CP-SCF ITERATION   5:      0.000002196641
     CP-SCF ITERATION   6:      0.000000115423
done
Reading CP-SCF coefficients                    ... done
Doing the polarizability tensor   ... done
Cleaning up                                    ... done

-------------------------
THE POLARIZABILITY TENSOR
-------------------------

The raw cartesian tensor (atomic units):
   24.77504     -0.11343      0.33263  
   -0.11343     24.85637     -0.47205  
    0.33263     -0.47205     35.16925  
diagonalized tensor: 
   24.69520     24.90372     35.20173  

    0.81781     -0.57457      0.03235  
    0.57548      0.81652     -0.04591  
   -0.00004      0.05616      0.99842  

Isotropic polarizability :  28.26688


Timings for individual modules:

Sum of individual times         ...     3681.922 sec (=  61.365 min)
GTO integral calculation        ...        5.746 sec (=   0.096 min)   0.2 %
SCF iterations                  ...     2034.046 sec (=  33.901 min)  55.2 %
Solution of CP-SCF eqns.        ...     1642.129 sec (=  27.369 min)  44.6 %
                             ****ORCA TERMINATED NORMALLY****
TOTAL RUN TIME: 0 days 1 hours 1 minutes 28 seconds 692 msec
