
                                 *****************
                                 * O   R   C   A *
                                 *****************

           --- An Ab Initio, DFT and Semiempirical electronic structure package ---

                  #######################################################
                  #                        -***-                        #
                  #          Department of theory and spectroscopy      #
                  #               Directorship: Frank Neese             #
                  #        Max Planck Institute fuer Kohlenforschung    #
                  #                Kaiser Wilhelm Platz 1               #
                  #                 D-45470 Muelheim/Ruhr               #
                  #                      Germany                        #
                  #                                                     #
                  #                  All rights reserved                #
                  #                        -***-                        #
                  #######################################################


                         Program Version 4.1.2  - RELEASE  -


 With contributions from (in alphabetic order):
   Daniel Aravena         : Magnetic Properties
   Michael Atanasov       : Ab Initio Ligand Field Theory
   Alexander A. Auer      : GIAO ZORA
   Ute Becker             : Parallelization
   Giovanni Bistoni       : ED, Open-shell LED
   Martin Brehm           : Molecular dynamics
   Dmytro Bykov           : SCF Hessian
   Vijay G. Chilkuri      : MRCI spin determinant printing
   Dipayan Datta          : RHF DLPNO-CCSD density
   Achintya Kumar Dutta   : EOM-CC, STEOM-CC
   Dmitry Ganyushin       : Spin-Orbit,Spin-Spin,Magnetic field MRCI
   Miquel Garcia          : C-PCM Hessian
   Yang Guo               : DLPNO-NEVPT2, CIM, IAO-localization
   Andreas Hansen         : Spin unrestricted coupled pair/coupled cluster methods
   Benjamin Helmich-Paris : CASSCF linear response (MC-RPA)
   Lee Huntington         : MR-EOM, pCC
   Robert Izsak           : Overlap fitted RIJCOSX, COSX-SCS-MP3, EOM
   Christian Kollmar      : KDIIS, OOCD, Brueckner-CCSD(T), CCSD density
   Simone Kossmann        : Meta GGA functionals, TD-DFT gradient, OOMP2, MP2 Hessian
   Martin Krupicka        : AUTO-CI
   Lucas Lang             : DCDCAS
   Dagmar Lenk            : GEPOL surface, SMD
   Dimitrios Liakos       : Extrapolation schemes; parallel MDCI
   Dimitrios Manganas     : ROCIS; embedding schemes
   Dimitrios Pantazis     : SARC Basis sets
   Taras Petrenko         : DFT Hessian,TD-DFT gradient, ASA, ECA, R-Raman, ABS, FL, XAS/XES, NRVS
   Peter Pinski           : DLPNO-MP2, DLPNO-MP2 Gradient
   Christoph Reimann      : Effective Core Potentials
   Marius Retegan         : Local ZFS, SOC
   Christoph Riplinger    : Optimizer, TS searches, QM/MM, DLPNO-CCSD(T), (RO)-DLPNO pert. Triples
   Tobias Risthaus        : Range-separated hybrids, TD-DFT gradient, RPA, STAB
   Michael Roemelt        : Restricted open shell CIS
   Masaaki Saitow         : Open-shell DLPNO
   Barbara Sandhoefer     : DKH picture change effects
   Avijit Sen             : IP-ROCIS
   Kantharuban Sivalingam : CASSCF convergence, NEVPT2, FIC-MRCI
   Bernardo de Souza      : ESD, SOC TD-DFT
   Georgi Stoychev        : AutoAux, RI-MP2 NMR
   Willem Van den Heuvel  : Paramagnetic NMR
   Boris Wezisla          : Elementary symmetry handling
   Frank Wennmohs         : Technical directorship


 We gratefully acknowledge several colleagues who have allowed us to
 interface, adapt or use parts of their codes:
   Stefan Grimme, W. Hujo, H. Kruse,             : VdW corrections, initial TS optimization,
                  C. Bannwarth                     DFT functionals, gCP, sTDA/sTD-DF
   Ed Valeev                                     : LibInt (2-el integral package), F12 methods
   Garnet Chan, S. Sharma, J. Yang, R. Olivares  : DMRG
   Ulf Ekstrom                                   : XCFun DFT Library
   Mihaly Kallay                                 : mrcc  (arbitrary order and MRCC methods)
   Andreas Klamt, Michael Diedenhofen            : otool_cosmo (COSMO solvation model)
   Jiri Pittner, Ondrej Demel                    : Mk-CCSD
   Frank Weinhold                                : gennbo (NPA and NBO analysis)
   Christopher J. Cramer and Donald G. Truhlar   : smd solvation model
   Lars Goerigk                                  : TD-DFT with DH, B97 family of functionals
   V. Asgeirsson, H. Jonsson                     : NEB implementation
   FAccTs GmbH                                   : IRC, NEB, NEB-TS, Multilevel


 Your calculation uses the libint2 library for the computation of 2-el integrals
 For citations please refer to: http://libint.valeyev.net

 This ORCA versions uses:
   CBLAS   interface :  Fast vector & matrix operations
   LAPACKE interface :  Fast linear algebra routines
   SCALAPACK package :  Parallel linear algebra routines


----- Orbital basis set information -----
Your calculation utilizes the basis: aug-pc-4
   H, C-F              : F. Jensen, J. Chem. Phys. 115, 9113 (2001).
                         F. Jensen, J. Chem. Phys. 116, 7372 (2002).
                         F. Jensen, J. Chem. Phys. 117, 9234 (2002).
   Si-Cl               : F. Jensen, T. Helgaker, J. Chem. Phys. 121, 3463 (2004).
   He-B, Ne-Mg, Al, Ar : F. Jensen, J. Phys. Chem. A 111, 11198 (2007).
   K, Ca, Ga-Kr        : F. Jensen, J. Chem. Phys. 136, 094110 (2012).
   Sc-Zn               : F. Jensen, J. Chem. Phys. 138, 014107 (2013).

================================================================================
                                        WARNINGS
                       Please study these warnings very carefully!
================================================================================


INFO   : the flag for use of LIBINT has been found!

================================================================================
                                       INPUT FILE
================================================================================
NAME = nh2f_pbe.inp
|  1> !uks pbe nori aug-pc-4 grid5 nofinalgrid verytightscf
|  2> 
|  3> %maxcore 1500
|  4> 
|  5> %pal nprocs 4 end
|  6> 
|  7> %scf
|  8> 	maxiter 200
|  9> end
| 10> %elprop
| 11> 	dipole true
| 12> 	 polar 1
| 13> 	 maxiter 200
| 14> end
| 15> 
| 16> * xyz 0 1
| 17> N 0.0000000000 0.0000000000 0.0000000000
| 18> H 0.0000000000 0.0000000000 1.0171780000
| 19> H 0.9838480958 0.0000000000 -0.2582518307
| 20> F -0.3678444665 1.3400564697 -0.2837498835
| 21> *
| 22> 
| 23>                          ****END OF INPUT****
================================================================================

                       ****************************
                       * Single Point Calculation *
                       ****************************

---------------------------------
CARTESIAN COORDINATES (ANGSTROEM)
---------------------------------
  N      0.000000    0.000000    0.000000
  H      0.000000    0.000000    1.017178
  H      0.983848    0.000000   -0.258252
  F     -0.367844    1.340056   -0.283750

----------------------------
CARTESIAN COORDINATES (A.U.)
----------------------------
  NO LB      ZA    FRAG     MASS         X           Y           Z
   0 N     7.0000    0    14.007    0.000000    0.000000    0.000000
   1 H     1.0000    0     1.008    0.000000    0.000000    1.922188
   2 H     1.0000    0     1.008    1.859203    0.000000   -0.488025
   3 F     9.0000    0    18.998   -0.695125    2.532340   -0.536210

--------------------------------
INTERNAL COORDINATES (ANGSTROEM)
--------------------------------
 N      0   0   0     0.000000000000     0.00000000     0.00000000
 H      1   0   0     1.017178000000     0.00000000     0.00000000
 H      1   2   0     1.017177999993   104.70785200     0.00000000
 F      1   2   3     1.418299999967   101.54066500   254.65042700

---------------------------
INTERNAL COORDINATES (A.U.)
---------------------------
 N      0   0   0     0.000000000000     0.00000000     0.00000000
 H      1   0   0     1.922187849450     0.00000000     0.00000000
 H      1   2   0     1.922187849436   104.70785200     0.00000000
 F      1   2   3     2.680198575678   101.54066500   254.65042700

---------------------
BASIS SET INFORMATION
---------------------
There are 3 groups of distinct atoms

 Group   1 Type N   : 27s12p7d4f3g2h contracted to 9s8p7d4f3g2h pattern {1191111111/51111111/1111111/1111/111/11}
 Group   2 Type H   : 12s7p4d3f2g contracted to 8s7p4d3f2g pattern {51111111/1111111/1111/111/11}
 Group   3 Type F   : 27s12p7d4f3g2h contracted to 9s8p7d4f3g2h pattern {1191111111/51111111/1111111/1111/111/11}

Atom   0N    basis set group =>   1
Atom   1H    basis set group =>   2
Atom   2H    basis set group =>   2
Atom   3F    basis set group =>   3


           ************************************************************
           *        Program running with 4 parallel MPI-processes     *
           *              working on a common directory               *
           ************************************************************
------------------------------------------------------------------------------
                           ORCA GTO INTEGRAL CALCULATION
------------------------------------------------------------------------------

                         BASIS SET STATISTICS AND STARTUP INFO

 # of primitive gaussian shells          ...  166
 # of primitive gaussian functions       ...  534
 # of contracted shells                  ...  114
 # of contracted basis functions         ...  466
 Highest angular momentum                ...    5
 Maximum contraction depth               ...   11
 Integral package used                   ... LIBINT
 Integral threshhold            Thresh   ...  1.000e-12
 Primitive cut-off              TCut     ...  1.000e-14


------------------------------ INTEGRAL EVALUATION ----------------------------


 * One electron integrals 
 Pre-screening matrix                    ... done
 Shell pair data                         ... done (   0.003 sec)



           ************************************************************
           *        Program running with 4 parallel MPI-processes     *
           *              working on a common directory               *
           ************************************************************
-------------------------------------------------------------------------------
                                 ORCA SCF
-------------------------------------------------------------------------------

------------
SCF SETTINGS
------------
Hamiltonian:
 Density Functional     Method          .... DFT(GTOs)
 Exchange Functional    Exchange        .... PBE
   PBE kappa parameter   XKappa         ....  0.804000
   PBE mue parameter    XMuePBE         ....  0.219520
 Correlation Functional Correlation     .... PBE
   PBE beta parameter  CBetaPBE         ....  0.066725
 LDA part of GGA corr.  LDAOpt          .... PW91-LDA
 Gradients option       PostSCFGGA      .... off
   Density functional embedding theory  .... OFF
   NL short-range parameter             ....  6.400000


General Settings:
 Integral files         IntName         .... nh2f_pbe
 Hartree-Fock type      HFTyp           .... UHF
 Total Charge           Charge          ....    0
 Multiplicity           Mult            ....    1
 Number of Electrons    NEL             ....   18
 Basis Dimension        Dim             ....  466
 Nuclear Repulsion      ENuc            ....     36.1215343273 Eh

Convergence Acceleration:
 DIIS                   CNVDIIS         .... on
   Start iteration      DIISMaxIt       ....    12
   Startup error        DIISStart       ....  0.200000
   # of expansion vecs  DIISMaxEq       ....     5
   Bias factor          DIISBfac        ....   1.050
   Max. coefficient     DIISMaxC        ....  10.000
 Newton-Raphson         CNVNR           .... off
 SOSCF                  CNVSOSCF        .... off
 Level Shifting         CNVShift        .... on
   Level shift para.    LevelShift      ....    0.2500
   Turn off err/grad.   ShiftErr        ....    0.0010
 Zerner damping         CNVZerner       .... off
 Static damping         CNVDamp         .... on
   Fraction old density DampFac         ....    0.7000
   Max. Damping (<1)    DampMax         ....    0.9800
   Min. Damping (>=0)   DampMin         ....    0.0000
   Turn off err/grad.   DampErr         ....    0.1000
 Fernandez-Rico         CNVRico         .... off

SCF Procedure:
 Maximum # iterations   MaxIter         ....   200
 SCF integral mode      SCFMode         .... Direct
   Integral package                     .... LIBINT
 Reset frequency        DirectResetFreq ....    20
 Integral Threshold     Thresh          ....  1.000e-12 Eh
 Primitive CutOff       TCut            ....  1.000e-14 Eh

Convergence Tolerance:
 Convergence Check Mode ConvCheckMode   .... Total+1el-Energy
 Convergence forced     ConvForced      .... 0
 Energy Change          TolE            ....  1.000e-09 Eh
 1-El. energy change                    ....  1.000e-06 Eh
 DIIS Error             TolErr          ....  1.000e-08


Diagonalization of the overlap matrix:
Smallest eigenvalue                        ... 1.504e-06
Time for diagonalization                   ...    0.125 sec
Threshold for overlap eigenvalues          ... 1.000e-08
Number of eigenvalues below threshold      ... 0
Time for construction of square roots      ...    0.066 sec
Total time needed                          ...    0.193 sec

-------------------
DFT GRID GENERATION
-------------------

General Integration Accuracy     IntAcc      ...  5.010
Radial Grid Type                 RadialGrid  ... Gauss-Chebyshev
Angular Grid (max. acc.)         AngularGrid ... Lebedev-434
Angular grid pruning method      GridPruning ... 3 (G Style)
Weight generation scheme         WeightScheme... Becke
Basis function cutoff            BFCut       ...    1.0000e-12
Integration weight cutoff        WCut        ...    1.0000e-14
Grids for H and He will be reduced by one unit

# of grid points (after initial pruning)     ...  34792 (   0.0 sec)
# of grid points (after weights+screening)   ...  34221 (   3.6 sec)
nearest neighbour list constructed           ...    0.0 sec
Grid point re-assignment to atoms done       ...    0.0 sec
Grid point division into batches done        ...    0.4 sec
Reduced shell lists constructed in    0.6 sec

Total number of grid points                  ...    34221
Total number of batches                      ...      536
Average number of points per batch           ...       63
Average number of grid points per atom       ...     8555
Average number of shells per batch           ...    85.23 (74.76%)
Average number of basis functions per batch  ...   358.77 (76.99%)
Average number of large shells per batch     ...    77.48 (90.91%)
Average number of large basis fcns per batch ...   328.90 (91.68%)
Maximum spatial batch extension              ...  15.69, 14.43, 12.94 au
Average spatial batch extension              ...   0.75,  0.76,  0.68 au

Time for grid setup =    4.271 sec

------------------------------
INITIAL GUESS: MODEL POTENTIAL
------------------------------
Loading Hartree-Fock densities                     ... done
Calculating cut-offs                               ... done
Setting up the integral package                    ... done
Initializing the effective Hamiltonian             ... done
Starting the Coulomb interaction                   ... done (   0.1 sec)
Reading the grid                                   ... done
Mapping shells                                     ... done
Starting the XC term evaluation                    ... done (   1.6 sec)
  promolecular density results
     # of electrons  =     17.999019892
     EX              =    -17.072906642
     EC              =     -0.596218158
     EX+EC           =    -17.669124800
Transforming the Hamiltonian                       ... done (   0.1 sec)
Diagonalizing the Hamiltonian                      ... done (   0.1 sec)
Back transforming the eigenvectors                 ... done (   0.0 sec)
Now organizing SCF variables                       ... done
                      ------------------
                      INITIAL GUESS DONE (   6.3 sec)
                      ------------------
--------------
SCF ITERATIONS
--------------
ITER       Energy         Delta-E        Max-DP      RMS-DP      [F,P]     Damp
               ***  Starting incremental Fock matrix formation  ***
  0   -155.6090172387   0.000000000000 0.00797864  0.00008751  0.1390162 0.7000
  1   -155.6256592720  -0.016642033339 0.01014443  0.00007018  0.0583838 0.7000
                               ***Turning on DIIS***
  2   -155.6316309386  -0.005971666610 0.01723337  0.00011590  0.0207589 0.0000
  3   -155.6410895187  -0.009458580051 0.00931024  0.00005551  0.0370204 0.0000
  4   -155.6433943254  -0.002304806759 0.00342353  0.00001957  0.0067453 0.0000
  5   -155.6434955383  -0.000101212877 0.00093463  0.00000605  0.0032070 0.0000
  6   -155.6435066280  -0.000011089758 0.00017711  0.00000203  0.0015957 0.0000
  7   -155.6435086946  -0.000002066505 0.00020531  0.00000210  0.0001947 0.0000
  8   -155.6435088299  -0.000000135351 0.00004369  0.00000026  0.0000435 0.0000
  9   -155.6435088320  -0.000000002148 0.00000368  0.00000004  0.0000320 0.0000
 10   -155.6435088341  -0.000000002055 0.00000096  0.00000001  0.0000022 0.0000
 11   -155.6435088341  -0.000000000008 0.00000478  0.00000004  0.0000012 0.0000
 12   -155.6435088341  -0.000000000002 0.00000291  0.00000002  0.0000004 0.0000
                 **** Energy Check signals convergence ****

               *****************************************************
               *                     SUCCESS                       *
               *           SCF CONVERGED AFTER  13 CYCLES          *
               *****************************************************


----------------
TOTAL SCF ENERGY
----------------

Total Energy       :         -155.64350883 Eh           -4235.27519 eV

Components:
Nuclear Repulsion  :           36.12153433 Eh             982.91692 eV
Electronic Energy  :         -191.76504316 Eh           -5218.19211 eV
One Electron Energy:         -286.49922935 Eh           -7796.04037 eV
Two Electron Energy:           94.73418619 Eh            2577.84826 eV

Virial components:
Potential Energy   :         -310.85664735 Eh           -8458.83941 eV
Kinetic Energy     :          155.21313852 Eh            4223.56422 eV
Virial Ratio       :            2.00277277


DFT components:
N(Alpha)           :        8.999999385583 electrons
N(Beta)            :        8.999999385583 electrons
N(Total)           :       17.999998771166 electrons
E(X)               :      -17.292142970306 Eh       
E(C)               :       -0.598934478138 Eh       
E(XC)              :      -17.891077448444 Eh       
DFET-embed. en.    :        0.000000000000 Eh       

---------------
SCF CONVERGENCE
---------------

  Last Energy change         ...    4.2917e-12  Tolerance :   1.0000e-09
  Last MAX-Density change    ...    3.3333e-06  Tolerance :   1.0000e-08
  Last RMS-Density change    ...    4.2744e-08  Tolerance :   1.0000e-09
  Last DIIS Error            ...    6.4802e-08  Tolerance :   1.0000e-08

             **** THE GBW FILE WAS UPDATED (nh2f_pbe.gbw) ****
             **** DENSITY FILE WAS UPDATED (nh2f_pbe.scfp.tmp) ****
             **** ENERGY FILE WAS UPDATED (nh2f_pbe.en.tmp) ****
----------------------
UHF SPIN CONTAMINATION
----------------------

Warning: in a DFT calculation there is little theoretical justification to 
         calculate <S**2> as in Hartree-Fock theory. We will do it anyways
         but you should keep in mind that the values have only limited relevance

Expectation value of <S**2>     :     0.000000
Ideal value S*(S+1) for S=0.0   :     0.000000
Deviation                       :     0.000000

----------------
ORBITAL ENERGIES
----------------
                 SPIN UP ORBITALS
  NO   OCC          E(Eh)            E(eV) 
   0   1.0000     -24.265373      -660.2944 
   1   1.0000     -14.062487      -382.6597 
   2   1.0000      -1.115015       -30.3411 
   3   1.0000      -0.775402       -21.0997 
   4   1.0000      -0.485650       -13.2152 
   5   1.0000      -0.477750       -13.0002 
   6   1.0000      -0.387445       -10.5429 
   7   1.0000      -0.323526        -8.8036 
   8   1.0000      -0.238596        -6.4925 
   9   0.0000      -0.036793        -1.0012 
  10   0.0000      -0.026638        -0.7249 
  11   0.0000       0.009604         0.2613 
  12   0.0000       0.022455         0.6110 
  13   0.0000       0.033411         0.9092 
  14   0.0000       0.038667         1.0522 
  15   0.0000       0.050861         1.3840 
  16   0.0000       0.055081         1.4988 
  17   0.0000       0.061548         1.6748 
  18   0.0000       0.069101         1.8803 
  19   0.0000       0.070723         1.9245 
  20   0.0000       0.074539         2.0283 
  21   0.0000       0.089537         2.4364 
  22   0.0000       0.105169         2.8618 
  23   0.0000       0.118993         3.2380 
  24   0.0000       0.123137         3.3507 
  25   0.0000       0.129371         3.5204 
  26   0.0000       0.141906         3.8614 
  27   0.0000       0.147274         4.0075 
  28   0.0000       0.157260         4.2793 
  29   0.0000       0.161602         4.3974 
  30   0.0000       0.165997         4.5170 
  31   0.0000       0.169717         4.6182 
  32   0.0000       0.175074         4.7640 
  33   0.0000       0.182965         4.9787 
  34   0.0000       0.194802         5.3008 
  35   0.0000       0.194965         5.3053 
  36   0.0000       0.205344         5.5877 
  37   0.0000       0.226516         6.1638 
  38   0.0000       0.233866         6.3638 
  39   0.0000       0.235610         6.4113 
  40   0.0000       0.241246         6.5646 
  41   0.0000       0.248220         6.7544 
  42   0.0000       0.255942         6.9645 
  43   0.0000       0.266252         7.2451 
  44   0.0000       0.267440         7.2774 
  45   0.0000       0.279555         7.6071 
  46   0.0000       0.281722         7.6661 
  47   0.0000       0.285169         7.7598 
  48   0.0000       0.296652         8.0723 
  49   0.0000       0.307751         8.3743 
  50   0.0000       0.309255         8.4153 
  51   0.0000       0.328420         8.9368 
  52   0.0000       0.338943         9.2231 
  53   0.0000       0.345151         9.3920 
  54   0.0000       0.360936         9.8216 
  55   0.0000       0.372432        10.1344 
  56   0.0000       0.377419        10.2701 
  57   0.0000       0.385842        10.4993 
  58   0.0000       0.395641        10.7659 
  59   0.0000       0.397083        10.8052 
  60   0.0000       0.403819        10.9885 
  61   0.0000       0.409637        11.1468 
  62   0.0000       0.410310        11.1651 
  63   0.0000       0.418521        11.3885 
  64   0.0000       0.422352        11.4928 
  65   0.0000       0.426983        11.6188 
  66   0.0000       0.434279        11.8173 
  67   0.0000       0.436264        11.8713 
  68   0.0000       0.450151        12.2492 
  69   0.0000       0.455222        12.3872 
  70   0.0000       0.461059        12.5460 
  71   0.0000       0.467630        12.7249 
  72   0.0000       0.472475        12.8567 
  73   0.0000       0.483646        13.1607 
  74   0.0000       0.486637        13.2421 
  75   0.0000       0.487914        13.2768 
  76   0.0000       0.502854        13.6834 
  77   0.0000       0.510222        13.8838 
  78   0.0000       0.515458        14.0263 
  79   0.0000       0.523535        14.2461 
  80   0.0000       0.539339        14.6762 
  81   0.0000       0.567483        15.4420 
  82   0.0000       0.568672        15.4743 
  83   0.0000       0.585822        15.9410 
  84   0.0000       0.608966        16.5708 
  85   0.0000       0.621900        16.9228 
  86   0.0000       0.628543        17.1035 
  87   0.0000       0.642417        17.4811 
  88   0.0000       0.644845        17.5471 
  89   0.0000       0.661747        18.0070 
  90   0.0000       0.664054        18.0698 
  91   0.0000       0.668808        18.1992 
  92   0.0000       0.671691        18.2776 
  93   0.0000       0.675843        18.3906 
  94   0.0000       0.678473        18.4622 
  95   0.0000       0.683520        18.5995 
  96   0.0000       0.687340        18.7035 
  97   0.0000       0.695514        18.9259 
  98   0.0000       0.698254        19.0005 
  99   0.0000       0.713349        19.4112 
 100   0.0000       0.715126        19.4596 
 101   0.0000       0.725190        19.7334 
 102   0.0000       0.728345        19.8193 
 103   0.0000       0.730944        19.8900 
 104   0.0000       0.742453        20.2032 
 105   0.0000       0.751412        20.4469 
 106   0.0000       0.757497        20.6125 
 107   0.0000       0.779071        21.1996 
 108   0.0000       0.780644        21.2424 
 109   0.0000       0.795739        21.6532 
 110   0.0000       0.805651        21.9229 
 111   0.0000       0.809988        22.0409 
 112   0.0000       0.810220        22.0472 
 113   0.0000       0.816392        22.2152 
 114   0.0000       0.817900        22.2562 
 115   0.0000       0.832268        22.6472 
 116   0.0000       0.845990        23.0206 
 117   0.0000       0.858734        23.3673 
 118   0.0000       0.860884        23.4258 
 119   0.0000       0.873523        23.7698 
 120   0.0000       0.884650        24.0725 
 121   0.0000       0.885121        24.0854 
 122   0.0000       0.887941        24.1621 
 123   0.0000       0.921051        25.0631 
 124   0.0000       0.927813        25.2471 
 125   0.0000       0.928869        25.2758 
 126   0.0000       0.931384        25.3442 
 127   0.0000       0.952082        25.9075 
 128   0.0000       0.970263        26.4022 
 129   0.0000       0.975697        26.5501 
 130   0.0000       0.982066        26.7234 
 131   0.0000       0.992431        27.0054 
 132   0.0000       1.002100        27.2685 
 133   0.0000       1.006519        27.3888 
 134   0.0000       1.009570        27.4718 
 135   0.0000       1.031472        28.0678 
 136   0.0000       1.036645        28.2085 
 137   0.0000       1.053372        28.6637 
 138   0.0000       1.068842        29.0847 
 139   0.0000       1.096901        29.8482 
 140   0.0000       1.110379        30.2149 
 141   0.0000       1.126238        30.6465 
 142   0.0000       1.138445        30.9787 
 143   0.0000       1.164476        31.6870 
 144   0.0000       1.172076        31.8938 
 145   0.0000       1.194145        32.4943 
 146   0.0000       1.229222        33.4488 
 147   0.0000       1.232531        33.5389 
 148   0.0000       1.258205        34.2375 
 149   0.0000       1.267642        34.4943 
 150   0.0000       1.291912        35.1547 
 151   0.0000       1.293899        35.2088 
 152   0.0000       1.304216        35.4895 
 153   0.0000       1.322563        35.9888 
 154   0.0000       1.326925        36.1075 
 155   0.0000       1.361194        37.0400 
 156   0.0000       1.365601        37.1599 
 157   0.0000       1.380720        37.5713 
 158   0.0000       1.396049        37.9884 
 159   0.0000       1.401437        38.1350 
 160   0.0000       1.405983        38.2587 
 161   0.0000       1.421866        38.6909 
 162   0.0000       1.452441        39.5229 
 163   0.0000       1.462330        39.7920 
 164   0.0000       1.466732        39.9118 
 165   0.0000       1.479083        40.2479 
 166   0.0000       1.503005        40.8988 
 167   0.0000       1.512865        41.1671 
 168   0.0000       1.524284        41.4779 
 169   0.0000       1.538284        41.8588 
 170   0.0000       1.545477        42.0546 
 171   0.0000       1.567111        42.6433 
 172   0.0000       1.579331        42.9758 
 173   0.0000       1.597694        43.4755 
 174   0.0000       1.652847        44.9763 
 175   0.0000       1.656128        45.0655 
 176   0.0000       1.685559        45.8664 
 177   0.0000       1.686435        45.8902 
 178   0.0000       1.728743        47.0415 
 179   0.0000       1.753219        47.7075 
 180   0.0000       1.771766        48.2122 
 181   0.0000       1.790749        48.7288 
 182   0.0000       1.817766        49.4639 
 183   0.0000       1.827593        49.7313 
 184   0.0000       1.845773        50.2260 
 185   0.0000       1.901420        51.7403 
 186   0.0000       1.919656        52.2365 
 187   0.0000       1.925750        52.4023 
 188   0.0000       1.938798        52.7574 
 189   0.0000       2.045377        55.6576 
 190   0.0000       2.119592        57.6770 
 191   0.0000       2.190591        59.6090 
 192   0.0000       2.190984        59.6197 
 193   0.0000       2.251641        61.2703 
 194   0.0000       2.282329        62.1053 
 195   0.0000       2.352065        64.0029 
 196   0.0000       2.372267        64.5527 
 197   0.0000       2.408060        65.5267 
 198   0.0000       2.409771        65.5732 
 199   0.0000       2.443533        66.4919 
 200   0.0000       2.467811        67.1525 
 201   0.0000       2.471303        67.2476 
 202   0.0000       2.501124        68.0590 
 203   0.0000       2.565602        69.8136 
 204   0.0000       2.610265        71.0289 
 205   0.0000       2.654177        72.2238 
 206   0.0000       2.702330        73.5341 
 207   0.0000       2.743213        74.6466 
 208   0.0000       2.753087        74.9153 
 209   0.0000       2.789440        75.9045 
 210   0.0000       2.832050        77.0640 
 211   0.0000       2.839275        77.2606 
 212   0.0000       2.881281        78.4037 
 213   0.0000       3.011406        81.9445 
 214   0.0000       3.068600        83.5008 
 215   0.0000       3.124905        85.0330 
 216   0.0000       3.152866        85.7939 
 217   0.0000       3.210834        87.3712 
 218   0.0000       3.227995        87.8382 
 219   0.0000       3.261116        88.7395 
 220   0.0000       3.297043        89.7171 
 221   0.0000       3.343724        90.9873 
 222   0.0000       3.394056        92.3570 
 223   0.0000       3.430133        93.3387 
 224   0.0000       3.519883        95.7809 
 225   0.0000       3.530114        96.0593 
 226   0.0000       3.549542        96.5880 
 227   0.0000       3.638645        99.0126 
 228   0.0000       3.656447        99.4970 
 229   0.0000       3.685800       100.2957 
 230   0.0000       3.770311       102.5954 
 231   0.0000       3.798033       103.3497 
 232   0.0000       3.842216       104.5520 
 233   0.0000       3.885347       105.7257 
 234   0.0000       3.897021       106.0433 
 235   0.0000       3.945112       107.3520 
 236   0.0000       3.971667       108.0746 
 237   0.0000       4.015928       109.2790 
 238   0.0000       4.088386       111.2506 
 239   0.0000       4.097763       111.5058 
 240   0.0000       4.204959       114.4227 
 241   0.0000       4.229686       115.0956 
 242   0.0000       4.292966       116.8175 
 243   0.0000       4.325972       117.7157 
 244   0.0000       4.373611       119.0120 
 245   0.0000       4.546652       123.7207 
 246   0.0000       4.646360       126.4339 
 247   0.0000       4.717128       128.3596 
 248   0.0000       4.750478       129.2671 
 249   0.0000       4.857019       132.1662 
 250   0.0000       4.907343       133.5356 
 251   0.0000       4.950793       134.7179 
 252   0.0000       5.033536       136.9695 
 253   0.0000       5.045529       137.2958 
 254   0.0000       5.170458       140.6953 
 255   0.0000       5.241602       142.6312 
 256   0.0000       5.374549       146.2489 
 257   0.0000       5.401354       146.9783 
 258   0.0000       5.431572       147.8006 
 259   0.0000       5.457481       148.5056 
 260   0.0000       5.667125       154.2103 
 261   0.0000       5.672810       154.3650 
 262   0.0000       5.714712       155.5052 
 263   0.0000       5.748842       156.4339 
 264   0.0000       5.785577       157.4335 
 265   0.0000       5.824969       158.5055 
 266   0.0000       5.844503       159.0370 
 267   0.0000       5.897531       160.4800 
 268   0.0000       5.987497       162.9281 
 269   0.0000       6.014914       163.6741 
 270   0.0000       6.095449       165.8656 
 271   0.0000       6.122306       166.5964 
 272   0.0000       6.170150       167.8983 
 273   0.0000       6.181592       168.2097 
 274   0.0000       6.191526       168.4800 
 275   0.0000       6.258098       170.2915 
 276   0.0000       6.271791       170.6641 
 277   0.0000       6.289285       171.1401 
 278   0.0000       6.356374       172.9657 
 279   0.0000       6.379000       173.5814 
 280   0.0000       6.579094       179.0262 
 281   0.0000       6.607449       179.7978 
 282   0.0000       6.685358       181.9178 
 283   0.0000       6.734855       183.2647 
 284   0.0000       6.925792       188.4604 
 285   0.0000       6.947967       189.0638 
 286   0.0000       7.134065       194.1278 
 287   0.0000       7.155401       194.7084 
 288   0.0000       7.239004       196.9833 
 289   0.0000       7.261482       197.5950 
 290   0.0000       7.305206       198.7848 
 291   0.0000       7.327298       199.3859 
 292   0.0000       7.427754       202.1195 
 293   0.0000       7.485736       203.6972 
 294   0.0000       7.515530       204.5080 
 295   0.0000       7.721984       210.1259 
 296   0.0000       7.804608       212.3742 
 297   0.0000       7.865071       214.0195 
 298   0.0000       7.898580       214.9313 
 299   0.0000       8.036872       218.6944 
 300   0.0000       8.091693       220.1862 
 301   0.0000       8.201045       223.1618 
 302   0.0000       8.574987       233.3372 
 303   0.0000       8.615584       234.4420 
 304   0.0000       8.685468       236.3436 
 305   0.0000       8.692430       236.5331 
 306   0.0000       8.704283       236.8556 
 307   0.0000       9.023016       245.5288 
 308   0.0000       9.038801       245.9583 
 309   0.0000       9.149273       248.9644 
 310   0.0000       9.170042       249.5295 
 311   0.0000       9.214475       250.7386 
 312   0.0000       9.214539       250.7404 
 313   0.0000       9.581738       260.7324 
 314   0.0000       9.683904       263.5124 
 315   0.0000       9.744433       265.1595 
 316   0.0000       9.895541       269.2714 
 317   0.0000       9.961428       271.0642 
 318   0.0000       9.966221       271.1947 
 319   0.0000      10.022366       272.7224 
 320   0.0000      10.080331       274.2997 
 321   0.0000      10.227180       278.2957 
 322   0.0000      10.605511       288.5906 
 323   0.0000      11.219734       305.3045 
 324   0.0000      11.252831       306.2051 
 325   0.0000      11.377174       309.5887 
 326   0.0000      11.398959       310.1814 
 327   0.0000      11.432314       311.0891 
 328   0.0000      11.475633       312.2678 
 329   0.0000      11.584604       315.2331 
 330   0.0000      11.649780       317.0066 
 331   0.0000      11.718754       318.8835 
 332   0.0000      11.813476       321.4610 
 333   0.0000      11.965304       325.5925 
 334   0.0000      12.006375       326.7101 
 335   0.0000      12.008075       326.7563 
 336   0.0000      12.234004       332.9042 
 337   0.0000      12.335877       335.6763 
 338   0.0000      12.419179       337.9430 
 339   0.0000      12.427067       338.1577 
 340   0.0000      12.450515       338.7957 
 341   0.0000      12.506953       340.3315 
 342   0.0000      12.513967       340.5223 
 343   0.0000      12.583606       342.4173 
 344   0.0000      12.681073       345.0695 
 345   0.0000      12.686973       345.2301 
 346   0.0000      12.695809       345.4705 
 347   0.0000      12.703823       345.6886 
 348   0.0000      12.734235       346.5161 
 349   0.0000      12.740600       346.6894 
 350   0.0000      12.760791       347.2388 
 351   0.0000      12.819061       348.8244 
 352   0.0000      12.849960       349.6652 
 353   0.0000      12.925207       351.7128 
 354   0.0000      12.957092       352.5804 
 355   0.0000      12.988756       353.4420 
 356   0.0000      13.009189       353.9980 
 357   0.0000      13.268015       361.0410 
 358   0.0000      13.468168       366.4875 
 359   0.0000      13.468363       366.4928 
 360   0.0000      13.593289       369.8922 
 361   0.0000      13.667061       371.8996 
 362   0.0000      13.789401       375.2287 
 363   0.0000      13.961489       379.9114 
 364   0.0000      14.048580       382.2813 
 365   0.0000      14.077608       383.0712 
 366   0.0000      14.207921       386.6172 
 367   0.0000      14.289562       388.8387 
 368   0.0000      14.335252       390.0821 
 369   0.0000      14.610405       397.5693 
 370   0.0000      14.707073       400.1998 
 371   0.0000      14.934040       406.3759 
 372   0.0000      15.006439       408.3460 
 373   0.0000      15.029577       408.9756 
 374   0.0000      15.033556       409.0838 
 375   0.0000      15.130830       411.7308 
 376   0.0000      15.261542       415.2877 
 377   0.0000      15.272739       415.5924 
 378   0.0000      15.387940       418.7271 
 379   0.0000      15.488964       421.4761 
 380   0.0000      15.548741       423.1027 
 381   0.0000      15.576386       423.8550 
 382   0.0000      15.612606       424.8406 
 383   0.0000      15.687540       426.8797 
 384   0.0000      15.892645       432.4609 
 385   0.0000      15.942059       433.8055 
 386   0.0000      16.034061       436.3090 
 387   0.0000      16.144999       439.3278 
 388   0.0000      16.339818       444.6290 
 389   0.0000      16.578561       451.1256 
 390   0.0000      16.641214       452.8304 
 391   0.0000      16.650993       453.0966 
 392   0.0000      16.751209       455.8236 
 393   0.0000      16.779082       456.5820 
 394   0.0000      16.818573       457.6566 
 395   0.0000      16.899896       459.8696 
 396   0.0000      17.058753       464.1923 
 397   0.0000      17.199643       468.0261 
 398   0.0000      17.244422       469.2446 
 399   0.0000      17.399949       473.4767 
 400   0.0000      17.463867       475.2160 
 401   0.0000      17.486750       475.8386 
 402   0.0000      17.662864       480.6310 
 403   0.0000      17.719393       482.1692 
 404   0.0000      17.834119       485.2911 
 405   0.0000      18.077271       491.9076 
 406   0.0000      18.464383       502.4414 
 407   0.0000      18.913515       514.6629 
 408   0.0000      19.193173       522.2728 
 409   0.0000      19.543335       531.8012 
 410   0.0000      19.676701       535.4303 
 411   0.0000      19.806637       538.9660 
 412   0.0000      20.136455       547.9408 
 413   0.0000      20.138883       548.0069 
 414   0.0000      20.238251       550.7108 
 415   0.0000      20.266635       551.4832 
 416   0.0000      20.627489       561.3025 
 417   0.0000      20.771340       565.2169 
 418   0.0000      20.786483       565.6290 
 419   0.0000      20.844497       567.2076 
 420   0.0000      20.932561       569.6039 
 421   0.0000      21.064609       573.1971 
 422   0.0000      21.166756       575.9767 
 423   0.0000      21.854847       594.7006 
 424   0.0000      21.882598       595.4558 
 425   0.0000      22.152194       602.7918 
 426   0.0000      22.683338       617.2450 
 427   0.0000      23.614398       642.5804 
 428   0.0000      23.707971       645.1267 
 429   0.0000      23.719357       645.4365 
 430   0.0000      23.858459       649.2217 
 431   0.0000      24.360780       662.8905 
 432   0.0000      25.576759       695.9790 
 433   0.0000      25.925027       705.4558 
 434   0.0000      27.374626       744.9014 
 435   0.0000      28.126601       765.3637 
 436   0.0000      28.653195       779.6931 
 437   0.0000      30.441832       828.3644 
 438   0.0000      30.512216       830.2796 
 439   0.0000      30.770736       837.3143 
 440   0.0000      30.852395       839.5363 
 441   0.0000      31.861274       866.9893 
 442   0.0000      41.404523      1126.6744 
 443   0.0000      41.546576      1130.5398 
 444   0.0000      41.764314      1136.4648 
 445   0.0000      41.834282      1138.3687 
 446   0.0000      42.048444      1144.1963 
 447   0.0000      43.874967      1193.8985 
 448   0.0000      48.049342      1307.4891 
 449   0.0000      48.118821      1309.3797 
 450   0.0000      48.302612      1314.3809 
 451   0.0000      48.923000      1331.2625 
 452   0.0000      49.278747      1340.9429 
 453   0.0000      91.057655      2477.8048 
 454   0.0000      91.120930      2479.5266 
 455   0.0000      91.154376      2480.4367 
 456   0.0000      91.244869      2482.8991 
 457   0.0000      91.344921      2485.6217 
 458   0.0000      91.388667      2486.8120 
 459   0.0000      91.552570      2491.2721 
 460   0.0000      91.614549      2492.9586 
 461   0.0000      92.255203      2510.3917 
 462   0.0000      92.843263      2526.3936 
 463   0.0000      92.978549      2530.0749 
 464   0.0000     105.703446      2876.3370 
 465   0.0000     202.207463      5502.3448 

                 SPIN DOWN ORBITALS
  NO   OCC          E(Eh)            E(eV) 
   0   1.0000     -24.265373      -660.2944 
   1   1.0000     -14.062487      -382.6597 
   2   1.0000      -1.115015       -30.3411 
   3   1.0000      -0.775402       -21.0997 
   4   1.0000      -0.485650       -13.2152 
   5   1.0000      -0.477750       -13.0002 
   6   1.0000      -0.387445       -10.5429 
   7   1.0000      -0.323526        -8.8036 
   8   1.0000      -0.238596        -6.4925 
   9   0.0000      -0.036793        -1.0012 
  10   0.0000      -0.026638        -0.7249 
  11   0.0000       0.009604         0.2613 
  12   0.0000       0.022455         0.6110 
  13   0.0000       0.033411         0.9092 
  14   0.0000       0.038667         1.0522 
  15   0.0000       0.050861         1.3840 
  16   0.0000       0.055081         1.4988 
  17   0.0000       0.061548         1.6748 
  18   0.0000       0.069101         1.8803 
  19   0.0000       0.070723         1.9245 
  20   0.0000       0.074539         2.0283 
  21   0.0000       0.089537         2.4364 
  22   0.0000       0.105169         2.8618 
  23   0.0000       0.118993         3.2380 
  24   0.0000       0.123137         3.3507 
  25   0.0000       0.129371         3.5204 
  26   0.0000       0.141906         3.8614 
  27   0.0000       0.147274         4.0075 
  28   0.0000       0.157260         4.2793 
  29   0.0000       0.161602         4.3974 
  30   0.0000       0.165997         4.5170 
  31   0.0000       0.169717         4.6182 
  32   0.0000       0.175074         4.7640 
  33   0.0000       0.182965         4.9787 
  34   0.0000       0.194802         5.3008 
  35   0.0000       0.194965         5.3053 
  36   0.0000       0.205344         5.5877 
  37   0.0000       0.226516         6.1638 
  38   0.0000       0.233866         6.3638 
  39   0.0000       0.235610         6.4113 
  40   0.0000       0.241246         6.5646 
  41   0.0000       0.248220         6.7544 
  42   0.0000       0.255942         6.9645 
  43   0.0000       0.266252         7.2451 
  44   0.0000       0.267440         7.2774 
  45   0.0000       0.279555         7.6071 
  46   0.0000       0.281722         7.6661 
  47   0.0000       0.285169         7.7598 
  48   0.0000       0.296652         8.0723 
  49   0.0000       0.307751         8.3743 
  50   0.0000       0.309255         8.4153 
  51   0.0000       0.328420         8.9368 
  52   0.0000       0.338943         9.2231 
  53   0.0000       0.345151         9.3920 
  54   0.0000       0.360936         9.8216 
  55   0.0000       0.372432        10.1344 
  56   0.0000       0.377419        10.2701 
  57   0.0000       0.385842        10.4993 
  58   0.0000       0.395641        10.7659 
  59   0.0000       0.397083        10.8052 
  60   0.0000       0.403819        10.9885 
  61   0.0000       0.409637        11.1468 
  62   0.0000       0.410310        11.1651 
  63   0.0000       0.418521        11.3885 
  64   0.0000       0.422352        11.4928 
  65   0.0000       0.426983        11.6188 
  66   0.0000       0.434279        11.8173 
  67   0.0000       0.436264        11.8713 
  68   0.0000       0.450151        12.2492 
  69   0.0000       0.455222        12.3872 
  70   0.0000       0.461059        12.5460 
  71   0.0000       0.467630        12.7249 
  72   0.0000       0.472475        12.8567 
  73   0.0000       0.483646        13.1607 
  74   0.0000       0.486637        13.2421 
  75   0.0000       0.487914        13.2768 
  76   0.0000       0.502854        13.6834 
  77   0.0000       0.510222        13.8838 
  78   0.0000       0.515458        14.0263 
  79   0.0000       0.523535        14.2461 
  80   0.0000       0.539339        14.6762 
  81   0.0000       0.567483        15.4420 
  82   0.0000       0.568672        15.4743 
  83   0.0000       0.585822        15.9410 
  84   0.0000       0.608966        16.5708 
  85   0.0000       0.621900        16.9228 
  86   0.0000       0.628543        17.1035 
  87   0.0000       0.642417        17.4811 
  88   0.0000       0.644845        17.5471 
  89   0.0000       0.661747        18.0070 
  90   0.0000       0.664054        18.0698 
  91   0.0000       0.668808        18.1992 
  92   0.0000       0.671691        18.2776 
  93   0.0000       0.675843        18.3906 
  94   0.0000       0.678473        18.4622 
  95   0.0000       0.683520        18.5995 
  96   0.0000       0.687340        18.7035 
  97   0.0000       0.695514        18.9259 
  98   0.0000       0.698254        19.0005 
  99   0.0000       0.713349        19.4112 
 100   0.0000       0.715126        19.4596 
 101   0.0000       0.725190        19.7334 
 102   0.0000       0.728345        19.8193 
 103   0.0000       0.730944        19.8900 
 104   0.0000       0.742453        20.2032 
 105   0.0000       0.751412        20.4469 
 106   0.0000       0.757497        20.6125 
 107   0.0000       0.779071        21.1996 
 108   0.0000       0.780644        21.2424 
 109   0.0000       0.795739        21.6532 
 110   0.0000       0.805651        21.9229 
 111   0.0000       0.809988        22.0409 
 112   0.0000       0.810220        22.0472 
 113   0.0000       0.816392        22.2152 
 114   0.0000       0.817900        22.2562 
 115   0.0000       0.832268        22.6472 
 116   0.0000       0.845990        23.0206 
 117   0.0000       0.858734        23.3673 
 118   0.0000       0.860884        23.4258 
 119   0.0000       0.873523        23.7698 
 120   0.0000       0.884650        24.0725 
 121   0.0000       0.885121        24.0854 
 122   0.0000       0.887941        24.1621 
 123   0.0000       0.921051        25.0631 
 124   0.0000       0.927813        25.2471 
 125   0.0000       0.928869        25.2758 
 126   0.0000       0.931384        25.3442 
 127   0.0000       0.952082        25.9075 
 128   0.0000       0.970263        26.4022 
 129   0.0000       0.975697        26.5501 
 130   0.0000       0.982066        26.7234 
 131   0.0000       0.992431        27.0054 
 132   0.0000       1.002100        27.2685 
 133   0.0000       1.006519        27.3888 
 134   0.0000       1.009570        27.4718 
 135   0.0000       1.031472        28.0678 
 136   0.0000       1.036645        28.2085 
 137   0.0000       1.053372        28.6637 
 138   0.0000       1.068842        29.0847 
 139   0.0000       1.096901        29.8482 
 140   0.0000       1.110379        30.2149 
 141   0.0000       1.126238        30.6465 
 142   0.0000       1.138445        30.9787 
 143   0.0000       1.164476        31.6870 
 144   0.0000       1.172076        31.8938 
 145   0.0000       1.194145        32.4943 
 146   0.0000       1.229222        33.4488 
 147   0.0000       1.232531        33.5389 
 148   0.0000       1.258205        34.2375 
 149   0.0000       1.267642        34.4943 
 150   0.0000       1.291912        35.1547 
 151   0.0000       1.293899        35.2088 
 152   0.0000       1.304216        35.4895 
 153   0.0000       1.322563        35.9888 
 154   0.0000       1.326925        36.1075 
 155   0.0000       1.361194        37.0400 
 156   0.0000       1.365601        37.1599 
 157   0.0000       1.380720        37.5713 
 158   0.0000       1.396049        37.9884 
 159   0.0000       1.401437        38.1350 
 160   0.0000       1.405983        38.2587 
 161   0.0000       1.421866        38.6909 
 162   0.0000       1.452441        39.5229 
 163   0.0000       1.462330        39.7920 
 164   0.0000       1.466732        39.9118 
 165   0.0000       1.479083        40.2479 
 166   0.0000       1.503005        40.8988 
 167   0.0000       1.512865        41.1671 
 168   0.0000       1.524284        41.4779 
 169   0.0000       1.538284        41.8588 
 170   0.0000       1.545477        42.0546 
 171   0.0000       1.567111        42.6433 
 172   0.0000       1.579331        42.9758 
 173   0.0000       1.597694        43.4755 
 174   0.0000       1.652847        44.9763 
 175   0.0000       1.656128        45.0655 
 176   0.0000       1.685559        45.8664 
 177   0.0000       1.686435        45.8902 
 178   0.0000       1.728743        47.0415 
 179   0.0000       1.753219        47.7075 
 180   0.0000       1.771766        48.2122 
 181   0.0000       1.790749        48.7288 
 182   0.0000       1.817766        49.4639 
 183   0.0000       1.827593        49.7313 
 184   0.0000       1.845773        50.2260 
 185   0.0000       1.901420        51.7403 
 186   0.0000       1.919656        52.2365 
 187   0.0000       1.925750        52.4023 
 188   0.0000       1.938798        52.7574 
 189   0.0000       2.045377        55.6576 
 190   0.0000       2.119592        57.6770 
 191   0.0000       2.190591        59.6090 
 192   0.0000       2.190984        59.6197 
 193   0.0000       2.251641        61.2703 
 194   0.0000       2.282329        62.1053 
 195   0.0000       2.352065        64.0029 
 196   0.0000       2.372267        64.5527 
 197   0.0000       2.408060        65.5267 
 198   0.0000       2.409771        65.5732 
 199   0.0000       2.443533        66.4919 
 200   0.0000       2.467811        67.1525 
 201   0.0000       2.471303        67.2476 
 202   0.0000       2.501124        68.0590 
 203   0.0000       2.565602        69.8136 
 204   0.0000       2.610265        71.0289 
 205   0.0000       2.654177        72.2238 
 206   0.0000       2.702330        73.5341 
 207   0.0000       2.743213        74.6466 
 208   0.0000       2.753087        74.9153 
 209   0.0000       2.789440        75.9045 
 210   0.0000       2.832050        77.0640 
 211   0.0000       2.839275        77.2606 
 212   0.0000       2.881281        78.4037 
 213   0.0000       3.011406        81.9445 
 214   0.0000       3.068600        83.5008 
 215   0.0000       3.124905        85.0330 
 216   0.0000       3.152866        85.7939 
 217   0.0000       3.210834        87.3712 
 218   0.0000       3.227995        87.8382 
 219   0.0000       3.261116        88.7395 
 220   0.0000       3.297043        89.7171 
 221   0.0000       3.343724        90.9873 
 222   0.0000       3.394056        92.3570 
 223   0.0000       3.430133        93.3387 
 224   0.0000       3.519883        95.7809 
 225   0.0000       3.530114        96.0593 
 226   0.0000       3.549542        96.5880 
 227   0.0000       3.638645        99.0126 
 228   0.0000       3.656447        99.4970 
 229   0.0000       3.685800       100.2957 
 230   0.0000       3.770311       102.5954 
 231   0.0000       3.798033       103.3497 
 232   0.0000       3.842216       104.5520 
 233   0.0000       3.885347       105.7257 
 234   0.0000       3.897021       106.0433 
 235   0.0000       3.945112       107.3520 
 236   0.0000       3.971667       108.0746 
 237   0.0000       4.015928       109.2790 
 238   0.0000       4.088386       111.2506 
 239   0.0000       4.097763       111.5058 
 240   0.0000       4.204959       114.4227 
 241   0.0000       4.229686       115.0956 
 242   0.0000       4.292966       116.8175 
 243   0.0000       4.325972       117.7157 
 244   0.0000       4.373611       119.0120 
 245   0.0000       4.546652       123.7207 
 246   0.0000       4.646360       126.4339 
 247   0.0000       4.717128       128.3596 
 248   0.0000       4.750478       129.2671 
 249   0.0000       4.857019       132.1662 
 250   0.0000       4.907343       133.5356 
 251   0.0000       4.950793       134.7179 
 252   0.0000       5.033536       136.9695 
 253   0.0000       5.045529       137.2958 
 254   0.0000       5.170458       140.6953 
 255   0.0000       5.241602       142.6312 
 256   0.0000       5.374549       146.2489 
 257   0.0000       5.401354       146.9783 
 258   0.0000       5.431572       147.8006 
 259   0.0000       5.457481       148.5056 
 260   0.0000       5.667125       154.2103 
 261   0.0000       5.672810       154.3650 
 262   0.0000       5.714712       155.5052 
 263   0.0000       5.748842       156.4339 
 264   0.0000       5.785577       157.4335 
 265   0.0000       5.824969       158.5055 
 266   0.0000       5.844503       159.0370 
 267   0.0000       5.897531       160.4800 
 268   0.0000       5.987497       162.9281 
 269   0.0000       6.014914       163.6741 
 270   0.0000       6.095449       165.8656 
 271   0.0000       6.122306       166.5964 
 272   0.0000       6.170150       167.8983 
 273   0.0000       6.181592       168.2097 
 274   0.0000       6.191526       168.4800 
 275   0.0000       6.258098       170.2915 
 276   0.0000       6.271791       170.6641 
 277   0.0000       6.289285       171.1401 
 278   0.0000       6.356374       172.9657 
 279   0.0000       6.379000       173.5814 
 280   0.0000       6.579094       179.0262 
 281   0.0000       6.607449       179.7978 
 282   0.0000       6.685358       181.9178 
 283   0.0000       6.734855       183.2647 
 284   0.0000       6.925792       188.4604 
 285   0.0000       6.947967       189.0638 
 286   0.0000       7.134065       194.1278 
 287   0.0000       7.155401       194.7084 
 288   0.0000       7.239004       196.9833 
 289   0.0000       7.261482       197.5950 
 290   0.0000       7.305206       198.7848 
 291   0.0000       7.327298       199.3859 
 292   0.0000       7.427754       202.1195 
 293   0.0000       7.485736       203.6972 
 294   0.0000       7.515530       204.5080 
 295   0.0000       7.721984       210.1259 
 296   0.0000       7.804608       212.3742 
 297   0.0000       7.865071       214.0195 
 298   0.0000       7.898580       214.9313 
 299   0.0000       8.036872       218.6944 
 300   0.0000       8.091693       220.1862 
 301   0.0000       8.201045       223.1618 
 302   0.0000       8.574987       233.3372 
 303   0.0000       8.615584       234.4420 
 304   0.0000       8.685468       236.3436 
 305   0.0000       8.692430       236.5331 
 306   0.0000       8.704283       236.8556 
 307   0.0000       9.023016       245.5288 
 308   0.0000       9.038801       245.9583 
 309   0.0000       9.149273       248.9644 
 310   0.0000       9.170042       249.5295 
 311   0.0000       9.214475       250.7386 
 312   0.0000       9.214539       250.7404 
 313   0.0000       9.581738       260.7324 
 314   0.0000       9.683904       263.5124 
 315   0.0000       9.744433       265.1595 
 316   0.0000       9.895541       269.2714 
 317   0.0000       9.961428       271.0642 
 318   0.0000       9.966221       271.1947 
 319   0.0000      10.022366       272.7224 
 320   0.0000      10.080331       274.2997 
 321   0.0000      10.227180       278.2957 
 322   0.0000      10.605511       288.5906 
 323   0.0000      11.219734       305.3045 
 324   0.0000      11.252831       306.2051 
 325   0.0000      11.377174       309.5887 
 326   0.0000      11.398959       310.1814 
 327   0.0000      11.432314       311.0891 
 328   0.0000      11.475633       312.2678 
 329   0.0000      11.584604       315.2331 
 330   0.0000      11.649780       317.0066 
 331   0.0000      11.718754       318.8835 
 332   0.0000      11.813476       321.4610 
 333   0.0000      11.965304       325.5925 
 334   0.0000      12.006375       326.7101 
 335   0.0000      12.008075       326.7563 
 336   0.0000      12.234004       332.9042 
 337   0.0000      12.335877       335.6763 
 338   0.0000      12.419179       337.9430 
 339   0.0000      12.427067       338.1577 
 340   0.0000      12.450515       338.7957 
 341   0.0000      12.506953       340.3315 
 342   0.0000      12.513967       340.5223 
 343   0.0000      12.583606       342.4173 
 344   0.0000      12.681073       345.0695 
 345   0.0000      12.686973       345.2301 
 346   0.0000      12.695809       345.4705 
 347   0.0000      12.703823       345.6886 
 348   0.0000      12.734235       346.5161 
 349   0.0000      12.740600       346.6894 
 350   0.0000      12.760791       347.2388 
 351   0.0000      12.819061       348.8244 
 352   0.0000      12.849960       349.6652 
 353   0.0000      12.925207       351.7128 
 354   0.0000      12.957092       352.5804 
 355   0.0000      12.988756       353.4420 
 356   0.0000      13.009189       353.9980 
 357   0.0000      13.268015       361.0410 
 358   0.0000      13.468168       366.4875 
 359   0.0000      13.468363       366.4928 
 360   0.0000      13.593289       369.8922 
 361   0.0000      13.667061       371.8996 
 362   0.0000      13.789401       375.2287 
 363   0.0000      13.961489       379.9114 
 364   0.0000      14.048580       382.2813 
 365   0.0000      14.077608       383.0712 
 366   0.0000      14.207921       386.6172 
 367   0.0000      14.289562       388.8387 
 368   0.0000      14.335252       390.0821 
 369   0.0000      14.610405       397.5693 
 370   0.0000      14.707073       400.1998 
 371   0.0000      14.934040       406.3759 
 372   0.0000      15.006439       408.3460 
 373   0.0000      15.029577       408.9756 
 374   0.0000      15.033556       409.0838 
 375   0.0000      15.130830       411.7308 
 376   0.0000      15.261542       415.2877 
 377   0.0000      15.272739       415.5924 
 378   0.0000      15.387940       418.7271 
 379   0.0000      15.488964       421.4761 
 380   0.0000      15.548741       423.1027 
 381   0.0000      15.576386       423.8550 
 382   0.0000      15.612606       424.8406 
 383   0.0000      15.687540       426.8797 
 384   0.0000      15.892645       432.4609 
 385   0.0000      15.942059       433.8055 
 386   0.0000      16.034061       436.3090 
 387   0.0000      16.144999       439.3278 
 388   0.0000      16.339818       444.6290 
 389   0.0000      16.578561       451.1256 
 390   0.0000      16.641214       452.8304 
 391   0.0000      16.650993       453.0966 
 392   0.0000      16.751209       455.8236 
 393   0.0000      16.779082       456.5820 
 394   0.0000      16.818573       457.6566 
 395   0.0000      16.899896       459.8696 
 396   0.0000      17.058753       464.1923 
 397   0.0000      17.199643       468.0261 
 398   0.0000      17.244422       469.2446 
 399   0.0000      17.399949       473.4767 
 400   0.0000      17.463867       475.2160 
 401   0.0000      17.486750       475.8386 
 402   0.0000      17.662864       480.6310 
 403   0.0000      17.719393       482.1692 
 404   0.0000      17.834119       485.2911 
 405   0.0000      18.077271       491.9076 
 406   0.0000      18.464383       502.4414 
 407   0.0000      18.913515       514.6629 
 408   0.0000      19.193173       522.2728 
 409   0.0000      19.543335       531.8012 
 410   0.0000      19.676701       535.4303 
 411   0.0000      19.806637       538.9660 
 412   0.0000      20.136455       547.9408 
 413   0.0000      20.138883       548.0069 
 414   0.0000      20.238251       550.7108 
 415   0.0000      20.266635       551.4832 
 416   0.0000      20.627489       561.3025 
 417   0.0000      20.771340       565.2169 
 418   0.0000      20.786483       565.6290 
 419   0.0000      20.844497       567.2076 
 420   0.0000      20.932561       569.6039 
 421   0.0000      21.064609       573.1971 
 422   0.0000      21.166756       575.9767 
 423   0.0000      21.854847       594.7006 
 424   0.0000      21.882598       595.4558 
 425   0.0000      22.152194       602.7918 
 426   0.0000      22.683338       617.2450 
 427   0.0000      23.614398       642.5804 
 428   0.0000      23.707971       645.1267 
 429   0.0000      23.719357       645.4365 
 430   0.0000      23.858459       649.2217 
 431   0.0000      24.360780       662.8905 
 432   0.0000      25.576759       695.9790 
 433   0.0000      25.925027       705.4558 
 434   0.0000      27.374626       744.9014 
 435   0.0000      28.126601       765.3637 
 436   0.0000      28.653195       779.6931 
 437   0.0000      30.441832       828.3644 
 438   0.0000      30.512216       830.2796 
 439   0.0000      30.770736       837.3143 
 440   0.0000      30.852395       839.5363 
 441   0.0000      31.861274       866.9893 
 442   0.0000      41.404523      1126.6744 
 443   0.0000      41.546576      1130.5398 
 444   0.0000      41.764314      1136.4648 
 445   0.0000      41.834282      1138.3687 
 446   0.0000      42.048444      1144.1963 
 447   0.0000      43.874967      1193.8985 
 448   0.0000      48.049342      1307.4891 
 449   0.0000      48.118821      1309.3797 
 450   0.0000      48.302612      1314.3809 
 451   0.0000      48.923000      1331.2625 
 452   0.0000      49.278747      1340.9429 
 453   0.0000      91.057655      2477.8048 
 454   0.0000      91.120930      2479.5266 
 455   0.0000      91.154376      2480.4367 
 456   0.0000      91.244869      2482.8991 
 457   0.0000      91.344921      2485.6217 
 458   0.0000      91.388667      2486.8120 
 459   0.0000      91.552570      2491.2721 
 460   0.0000      91.614549      2492.9586 
 461   0.0000      92.255203      2510.3917 
 462   0.0000      92.843263      2526.3936 
 463   0.0000      92.978549      2530.0749 
 464   0.0000     105.703446      2876.3370 
 465   0.0000     202.207463      5502.3448 

                    ********************************
                    * MULLIKEN POPULATION ANALYSIS *
                    ********************************

--------------------------------------------
MULLIKEN ATOMIC CHARGES AND SPIN POPULATIONS
--------------------------------------------
   0 N :   -0.027218   -0.000000
   1 H :    0.139271    0.000000
   2 H :    0.139228    0.000000
   3 F :   -0.251281   -0.000000
Sum of atomic charges         :    0.0000000
Sum of atomic spin populations:   -0.0000000

-----------------------------------------------------
MULLIKEN REDUCED ORBITAL CHARGES AND SPIN POPULATIONS
-----------------------------------------------------
CHARGE
  0 N s       :     3.556759  s :     3.556759
      pz      :     1.207883  p :     3.385037
      px      :     1.261022
      py      :     0.916132
      dz2     :     0.019881  d :     0.068613
      dxz     :     0.005025
      dyz     :     0.009585
      dx2y2   :     0.024727
      dxy     :     0.009394
      f0      :     0.001904  f :     0.014369
      f+1     :     0.000357
      f-1     :     0.002309
      f+2     :     0.002118
      f-2     :     0.001026
      f+3     :     0.002991
      f-3     :     0.003664
      g0      :     0.000352  g :     0.002198
      g+1     :     0.000091
      g-1     :     0.000283
      g+2     :     0.000148
      g-2     :     0.000103
      g+3     :     0.000110
      g-3     :     0.000185
      g+4     :     0.000568
      g-4     :     0.000358
      h0      :     0.000030  h :     0.000243
      h+1     :    -0.000003
      h-1     :     0.000027
      h+2     :     0.000032
      h-2     :     0.000010
      h+3     :     0.000005
      h-3     :     0.000019
      h+4     :     0.000007
      h-4     :     0.000009
      h+5     :     0.000054
      h-5     :     0.000052
  1 H s       :     0.786753  s :     0.786753
      pz      :     0.027214  p :     0.064317
      px      :     0.019763
      py      :     0.017339
      dz2     :     0.002276  d :     0.008008
      dxz     :     0.001680
      dyz     :     0.002778
      dx2y2   :     0.000432
      dxy     :     0.000841
      f0      :     0.000190  f :     0.001382
      f+1     :     0.000420
      f-1     :     0.000859
      f+2     :     0.000394
      f-2     :     0.000110
      f+3     :    -0.000266
      f-3     :    -0.000325
      g0      :    -0.000055  g :     0.000270
      g+1     :     0.000069
      g-1     :     0.000230
      g+2     :     0.000143
      g-2     :     0.000049
      g+3     :    -0.000046
      g-3     :    -0.000058
      g+4     :    -0.000078
      g-4     :     0.000015
  2 H s       :     0.786801  s :     0.786801
      pz      :     0.017576  p :     0.064287
      px      :     0.029398
      py      :     0.017314
      dz2     :     0.001090  d :     0.008024
      dxz     :     0.001649
      dyz     :     0.000893
      dx2y2   :     0.001654
      dxy     :     0.002737
      f0      :    -0.000106  f :     0.001387
      f+1     :     0.000110
      f-1     :    -0.000095
      f+2     :     0.000217
      f-2     :    -0.000015
      f+3     :     0.000519
      f-3     :     0.000756
      g0      :     0.000033  g :     0.000273
      g+1     :     0.000016
      g-1     :     0.000021
      g+2     :    -0.000005
      g-2     :    -0.000018
      g+3     :    -0.000009
      g-3     :     0.000016
      g+4     :     0.000000
      g-4     :     0.000218
  3 F s       :     3.959246  s :     3.959246
      pz      :     1.942235  p :     5.248278
      px      :     1.921354
      py      :     1.384688
      dz2     :     0.005085  d :     0.035306
      dxz     :    -0.000573
      dyz     :     0.009173
      dx2y2   :     0.011864
      dxy     :     0.009757
      f0      :     0.000947  f :     0.006660
      f+1     :    -0.000086
      f-1     :     0.001079
      f+2     :     0.000897
      f-2     :     0.000112
      f+3     :     0.002035
      f-3     :     0.001676
      g0      :     0.000091  g :     0.001435
      g+1     :     0.000050
      g-1     :     0.000200
      g+2     :     0.000171
      g-2     :    -0.000125
      g+3     :     0.000220
      g-3     :     0.000039
      g+4     :     0.000575
      g-4     :     0.000213
      h0      :     0.000006  h :     0.000355
      h+1     :    -0.000005
      h-1     :     0.000047
      h+2     :     0.000010
      h-2     :     0.000022
      h+3     :    -0.000007
      h-3     :     0.000030
      h+4     :     0.000036
      h-4     :     0.000057
      h+5     :     0.000015
      h-5     :     0.000146

SPIN
  0 N s       :    -0.000000  s :    -0.000000
      pz      :    -0.000000  p :    -0.000000
      px      :     0.000000
      py      :     0.000000
      dz2     :    -0.000000  d :    -0.000000
      dxz     :     0.000000
      dyz     :     0.000000
      dx2y2   :     0.000000
      dxy     :    -0.000000
      f0      :    -0.000000  f :    -0.000000
      f+1     :     0.000000
      f-1     :     0.000000
      f+2     :    -0.000000
      f-2     :    -0.000000
      f+3     :    -0.000000
      f-3     :    -0.000000
      g0      :    -0.000000  g :    -0.000000
      g+1     :    -0.000000
      g-1     :    -0.000000
      g+2     :     0.000000
      g-2     :     0.000000
      g+3     :    -0.000000
      g-3     :    -0.000000
      g+4     :     0.000000
      g-4     :    -0.000000
      h0      :     0.000000  h :     0.000000
      h+1     :    -0.000000
      h-1     :     0.000000
      h+2     :    -0.000000
      h-2     :     0.000000
      h+3     :     0.000000
      h-3     :     0.000000
      h+4     :     0.000000
      h-4     :    -0.000000
      h+5     :     0.000000
      h-5     :     0.000000
  1 H s       :     0.000000  s :     0.000000
      pz      :     0.000000  p :     0.000000
      px      :     0.000000
      py      :     0.000000
      dz2     :     0.000000  d :     0.000000
      dxz     :     0.000000
      dyz     :     0.000000
      dx2y2   :    -0.000000
      dxy     :    -0.000000
      f0      :     0.000000  f :     0.000000
      f+1     :     0.000000
      f-1     :     0.000000
      f+2     :    -0.000000
      f-2     :    -0.000000
      f+3     :    -0.000000
      f-3     :     0.000000
      g0      :    -0.000000  g :     0.000000
      g+1     :    -0.000000
      g-1     :     0.000000
      g+2     :    -0.000000
      g-2     :    -0.000000
      g+3     :    -0.000000
      g-3     :     0.000000
      g+4     :    -0.000000
      g-4     :     0.000000
  2 H s       :     0.000000  s :     0.000000
      pz      :    -0.000000  p :     0.000000
      px      :     0.000000
      py      :     0.000000
      dz2     :     0.000000  d :     0.000000
      dxz     :    -0.000000
      dyz     :     0.000000
      dx2y2   :     0.000000
      dxy     :    -0.000000
      f0      :     0.000000  f :    -0.000000
      f+1     :     0.000000
      f-1     :     0.000000
      f+2     :    -0.000000
      f-2     :     0.000000
      f+3     :    -0.000000
      f-3     :    -0.000000
      g0      :     0.000000  g :    -0.000000
      g+1     :     0.000000
      g-1     :     0.000000
      g+2     :     0.000000
      g-2     :     0.000000
      g+3     :    -0.000000
      g-3     :     0.000000
      g+4     :     0.000000
      g-4     :    -0.000000
  3 F s       :    -0.000000  s :    -0.000000
      pz      :    -0.000000  p :    -0.000000
      px      :     0.000000
      py      :    -0.000000
      dz2     :     0.000000  d :    -0.000000
      dxz     :     0.000000
      dyz     :    -0.000000
      dx2y2   :    -0.000000
      dxy     :    -0.000000
      f0      :     0.000000  f :     0.000000
      f+1     :     0.000000
      f-1     :     0.000000
      f+2     :     0.000000
      f-2     :     0.000000
      f+3     :     0.000000
      f-3     :    -0.000000
      g0      :     0.000000  g :     0.000000
      g+1     :     0.000000
      g-1     :     0.000000
      g+2     :     0.000000
      g-2     :     0.000000
      g+3     :     0.000000
      g-3     :     0.000000
      g+4     :    -0.000000
      g-4     :     0.000000
      h0      :     0.000000  h :     0.000000
      h+1     :    -0.000000
      h-1     :     0.000000
      h+2     :     0.000000
      h-2     :    -0.000000
      h+3     :     0.000000
      h-3     :    -0.000000
      h+4     :    -0.000000
      h-4     :     0.000000
      h+5     :     0.000000
      h-5     :    -0.000000


                     *******************************
                     * LOEWDIN POPULATION ANALYSIS *
                     *******************************

-------------------------------------------
LOEWDIN ATOMIC CHARGES AND SPIN POPULATIONS
-------------------------------------------
   0 N :    0.868028   -0.000000
   1 H :   -0.543664    0.000000
   2 H :   -0.543664    0.000000
   3 F :    0.219300   -0.000000

----------------------------------------------------
LOEWDIN REDUCED ORBITAL CHARGES AND SPIN POPULATIONS
----------------------------------------------------
CHARGE
  0 N s       :     2.715291  s :     2.715291
      pz      :     0.945638  p :     2.644576
      px      :     0.962789
      py      :     0.736149
      dz2     :     0.098260  d :     0.457068
      dxz     :     0.019331
      dyz     :     0.093091
      dx2y2   :     0.145622
      dxy     :     0.100763
      f0      :     0.030242  f :     0.220594
      f+1     :     0.005602
      f-1     :     0.032241
      f+2     :     0.033517
      f-2     :     0.014182
      f+3     :     0.056013
      f-3     :     0.048797
      g0      :     0.004930  g :     0.066183
      g+1     :     0.001018
      g-1     :     0.007992
      g+2     :     0.007760
      g-2     :     0.003717
      g+3     :     0.006665
      g-3     :     0.006495
      g+4     :     0.015106
      g-4     :     0.012498
      h0      :     0.001541  h :     0.028262
      h+1     :     0.000545
      h-1     :     0.003569
      h+2     :     0.002051
      h-2     :     0.001176
      h+3     :     0.001871
      h-3     :     0.001612
      h+4     :     0.002440
      h-4     :     0.003168
      h+5     :     0.004090
      h-5     :     0.006196
  1 H s       :     0.606561  s :     0.606561
      pz      :     0.215990  p :     0.411683
      px      :     0.111461
      py      :     0.084232
      dz2     :     0.092840  d :     0.323177
      dxz     :     0.108694
      dyz     :     0.095754
      dx2y2   :     0.015523
      dxy     :     0.010366
      f0      :     0.024382  f :     0.131866
      f+1     :     0.031642
      f-1     :     0.036248
      f+2     :     0.016126
      f-2     :     0.012797
      f+3     :     0.005553
      f-3     :     0.005117
      g0      :     0.007480  g :     0.070377
      g+1     :     0.004360
      g-1     :     0.015413
      g+2     :     0.012484
      g-2     :     0.008112
      g+3     :     0.009939
      g-3     :     0.008971
      g+4     :     0.002047
      g-4     :     0.001572
  2 H s       :     0.606561  s :     0.606561
      pz      :     0.110394  p :     0.411682
      px      :     0.217058
      py      :     0.084231
      dz2     :     0.054530  d :     0.323177
      dxz     :     0.089407
      dyz     :     0.011376
      dx2y2   :     0.073120
      dxy     :     0.094744
      f0      :     0.011596  f :     0.131866
      f+1     :     0.025406
      f-1     :     0.007097
      f+2     :     0.014658
      f-2     :     0.013737
      f+3     :     0.026044
      f-3     :     0.033328
      g0      :     0.004270  g :     0.070377
      g+1     :     0.006748
      g-1     :     0.004382
      g+2     :     0.004201
      g-2     :     0.007430
      g+3     :     0.006012
      g-3     :     0.004801
      g+4     :     0.015078
      g-4     :     0.017455
  3 F s       :     3.397297  s :     3.397297
      pz      :     1.690397  p :     4.735749
      px      :     1.683054
      py      :     1.362297
      dz2     :     0.042410  d :     0.316804
      dxz     :     0.011252
      dyz     :     0.079353
      dx2y2   :     0.100192
      dxy     :     0.083597
      f0      :     0.012305  f :     0.192853
      f+1     :     0.008339
      f-1     :     0.039965
      f+2     :     0.027619
      f-2     :     0.014094
      f+3     :     0.033889
      f-3     :     0.056643
      g0      :     0.011592  g :     0.096424
      g+1     :     0.000671
      g-1     :     0.004036
      g+2     :     0.014614
      g-2     :     0.010507
      g+3     :     0.008679
      g-3     :     0.008231
      g+4     :     0.030820
      g-4     :     0.007273
      h0      :     0.000338  h :     0.041573
      h+1     :     0.001354
      h-1     :     0.006778
      h+2     :     0.000722
      h-2     :     0.000425
      h+3     :     0.006173
      h-3     :     0.005233
      h+4     :     0.002965
      h-4     :     0.003640
      h+5     :     0.002375
      h-5     :     0.011569

SPIN
  0 N s       :    -0.000000  s :    -0.000000
      pz      :    -0.000000  p :    -0.000000
      px      :     0.000000
      py      :     0.000000
      dz2     :     0.000000  d :    -0.000000
      dxz     :     0.000000
      dyz     :     0.000000
      dx2y2   :    -0.000000
      dxy     :    -0.000000
      f0      :    -0.000000  f :     0.000000
      f+1     :     0.000000
      f-1     :    -0.000000
      f+2     :    -0.000000
      f-2     :    -0.000000
      f+3     :     0.000000
      f-3     :     0.000000
      g0      :    -0.000000  g :    -0.000000
      g+1     :     0.000000
      g-1     :    -0.000000
      g+2     :    -0.000000
      g-2     :    -0.000000
      g+3     :     0.000000
      g-3     :     0.000000
      g+4     :     0.000000
      g-4     :     0.000000
      h0      :     0.000000  h :    -0.000000
      h+1     :    -0.000000
      h-1     :     0.000000
      h+2     :     0.000000
      h-2     :    -0.000000
      h+3     :     0.000000
      h-3     :    -0.000000
      h+4     :    -0.000000
      h-4     :    -0.000000
      h+5     :     0.000000
      h-5     :     0.000000
  1 H s       :     0.000000  s :     0.000000
      pz      :    -0.000000  p :    -0.000000
      px      :    -0.000000
      py      :     0.000000
      dz2     :    -0.000000  d :    -0.000000
      dxz     :     0.000000
      dyz     :    -0.000000
      dx2y2   :    -0.000000
      dxy     :    -0.000000
      f0      :     0.000000  f :     0.000000
      f+1     :    -0.000000
      f-1     :    -0.000000
      f+2     :     0.000000
      f-2     :     0.000000
      f+3     :     0.000000
      f-3     :    -0.000000
      g0      :    -0.000000  g :    -0.000000
      g+1     :    -0.000000
      g-1     :    -0.000000
      g+2     :    -0.000000
      g-2     :     0.000000
      g+3     :     0.000000
      g-3     :    -0.000000
      g+4     :     0.000000
      g-4     :     0.000000
  2 H s       :     0.000000  s :     0.000000
      pz      :    -0.000000  p :     0.000000
      px      :     0.000000
      py      :     0.000000
      dz2     :     0.000000  d :     0.000000
      dxz     :    -0.000000
      dyz     :    -0.000000
      dx2y2   :     0.000000
      dxy     :     0.000000
      f0      :     0.000000  f :     0.000000
      f+1     :     0.000000
      f-1     :     0.000000
      f+2     :     0.000000
      f-2     :    -0.000000
      f+3     :     0.000000
      f-3     :    -0.000000
      g0      :     0.000000  g :     0.000000
      g+1     :    -0.000000
      g-1     :    -0.000000
      g+2     :     0.000000
      g-2     :    -0.000000
      g+3     :     0.000000
      g-3     :     0.000000
      g+4     :     0.000000
      g-4     :     0.000000
  3 F s       :    -0.000000  s :    -0.000000
      pz      :    -0.000000  p :    -0.000000
      px      :    -0.000000
      py      :     0.000000
      dz2     :    -0.000000  d :    -0.000000
      dxz     :    -0.000000
      dyz     :    -0.000000
      dx2y2   :     0.000000
      dxy     :    -0.000000
      f0      :     0.000000  f :     0.000000
      f+1     :    -0.000000
      f-1     :     0.000000
      f+2     :     0.000000
      f-2     :     0.000000
      f+3     :    -0.000000
      f-3     :     0.000000
      g0      :    -0.000000  g :     0.000000
      g+1     :     0.000000
      g-1     :     0.000000
      g+2     :    -0.000000
      g-2     :    -0.000000
      g+3     :     0.000000
      g-3     :     0.000000
      g+4     :     0.000000
      g-4     :     0.000000
      h0      :    -0.000000  h :    -0.000000
      h+1     :     0.000000
      h-1     :    -0.000000
      h+2     :    -0.000000
      h-2     :    -0.000000
      h+3     :     0.000000
      h-3     :    -0.000000
      h+4     :    -0.000000
      h-4     :     0.000000
      h+5     :    -0.000000
      h-5     :    -0.000000


                      *****************************
                      * MAYER POPULATION ANALYSIS *
                      *****************************

  NA   - Mulliken gross atomic population
  ZA   - Total nuclear charge
  QA   - Mulliken gross atomic charge
  VA   - Mayer's total valence
  BVA  - Mayer's bonded valence
  FA   - Mayer's free valence

  ATOM       NA         ZA         QA         VA         BVA        FA
  0 N      7.0272     7.0000    -0.0272     2.8241     2.8241     0.0000
  1 H      0.8607     1.0000     0.1393     1.0480     1.0480    -0.0000
  2 H      0.8608     1.0000     0.1392     1.0479     1.0479     0.0000
  3 F      9.2513     9.0000    -0.2513     0.9482     0.9482     0.0000

  Mayer bond orders larger than 0.1
B(  0-N ,  1-H ) :   0.9842 B(  0-N ,  2-H ) :   0.9843 B(  0-N ,  3-F ) :   0.8555 


-------
TIMINGS
-------

Total SCF time: 0 days 0 hours 45 min 31 sec 

Total time                  ....    2731.763 sec
Sum of individual times     ....    2729.840 sec  ( 99.9%)

Fock matrix formation       ....    2716.150 sec  ( 99.4%)
  XC integration            ....      50.020 sec  (  1.8% of F)
    Basis function eval.    ....       2.500 sec  (  5.0% of XC)
    Density eval.           ....      12.585 sec  ( 25.2% of XC)
    XC-Functional eval.     ....       0.280 sec  (  0.6% of XC)
    XC-Potential eval.      ....      32.226 sec  ( 64.4% of XC)
Diagonalization             ....       4.386 sec  (  0.2%)
Density matrix formation    ....       0.062 sec  (  0.0%)
Population analysis         ....       0.327 sec  (  0.0%)
Initial guess               ....       2.039 sec  (  0.1%)
Orbital Transformation      ....       0.000 sec  (  0.0%)
Orbital Orthonormalization  ....       0.000 sec  (  0.0%)
DIIS solution               ....       2.605 sec  (  0.1%)
Grid generation             ....       4.271 sec  (  0.2%)

-------------------------   --------------------
FINAL SINGLE POINT ENERGY      -155.643508834110
-------------------------   --------------------


                            ***************************************
                            *     ORCA property calculations      *
                            ***************************************

                                    ---------------------
                                    Active property flags
                                    ---------------------
   (+) Dipole Moment
   (+) Polarizability


------------------------------------------------------------------------------
                       ORCA ELECTRIC PROPERTIES CALCULATION
------------------------------------------------------------------------------

Dipole Moment Calculation                       ... on
Quadrupole Moment Calculation                   ... off
Polarizability Calculation                      ... Analytic (CP-SCF)
GBWName                                         ... nh2f_pbe.gbw
Electron density file                           ... nh2f_pbe.scfp.tmp
The origin for moment calculation is the CENTER OF MASS  = (-0.323575,  1.373730 -0.249601)

-------------
DIPOLE MOMENT
-------------
                                X             Y             Z
Electronic contribution:     -0.79104       1.67587      -0.61020
Nuclear contribution   :      1.42742      -1.93608       1.10109
                        -----------------------------------------
Total Dipole Moment    :      0.63638      -0.26021       0.49089
                        -----------------------------------------
Magnitude (a.u.)       :      0.84479
Magnitude (Debye)      :      2.14727



--------------------
Rotational spectrum 
--------------------
 
Rotational constants in cm-1:     8.924455     0.894334     0.861143 
Rotational constants in MHz : 267548.442513 26811.452808 25816.415131 

 Dipole components along the rotational axes: 
x,y,z [a.u.] :     0.551501    -0.000000     0.639929 
x,y,z [Debye]:     1.401804    -0.000001     1.626571 

 
Transforming and storing MO dipole integrals   ... done

                ... starting polarizability calculation

Opening the Dipole integral file               ... (nh2f_pbe.dmo.tmp) done
Reading Dipole-MO integrals                    ... done
Solving CP-SCF equations                       ... 

           ************************************************************
           *        Program running with 4 parallel MPI-processes     *
           *              working on a common directory               *
           ************************************************************

------------------------------------------------------------------------------
                           ORCA CP-SCF CALCULATION
------------------------------------------------------------------------------

Input orbitals are from        ... nh2f_pbe.gbw
Input Perturbation             ... nh2f_pbe.cpv.tmp
Wavefunction output            ... nh2f_pbe.cpu.tmp
Perturbation mode              ... Real perturbation (singlet)
Solver                         ... POPLE
Max. number of iterations      ... 200
Convergence tolerance          ... 1.000e-06
Integral handling              ... Direct
Number of perturbations        ... 3
Number of operators            ... 2
Orbital ranges used for CP-SCF:
 Operator 0:  Orbitals   0...  8  to   9...465
 Operator 1:  Orbitals   0...  8  to   9...465
DFT calculation                         ... on
Exchange functional (SCF)               ... PBE
Exchange functional (CP-SCF)            ... PBE
   PBE kappa parameter  XKappa (SCF)    ...  0.804000
   PBE kappa parameter  XKappa (CP-SCF) ...  0.804000
   PBE mue parameter   XMuePBE (SCF)    ...  0.219520
   PBE mue parameter   XMuePBE (CP-SCF) ...  0.219520
Correlation functional (SCF)            ... PBE
Correlation functional (CP-SCF)         ... PBE
   PBE beta parameter CBetaPBE (SCF)    ...  0.066725
   PBE beta parameter CBetaPBE (CP-SCF) ...  0.066725
 LDA part of GGA corr.  LDAOpt (SCF)    ... PW91-LDA
 LDA part of GGA corr.  LDAOpt (CP-SCF) ... PW91-LDA
Variables per vector in CP-SCF ... 8226
Number of vectors sought       ... 3
Recalculating density on grid  ... done
Calculating the xc-kernel      ... done
     CP-SCF ITERATION   0: 
     CP-SCF ITERATION   1:      0.234488240220
     CP-SCF ITERATION   2:      0.030134418904
     CP-SCF ITERATION   3:      0.001430674747
     CP-SCF ITERATION   4:      0.000028362695
     CP-SCF ITERATION   5:      0.000000473293
done
Reading CP-SCF coefficients                    ... done
Doing the polarizability tensor   ... done
Cleaning up                                    ... done

-------------------------
THE POLARIZABILITY TENSOR
-------------------------

The raw cartesian tensor (atomic units):
   15.46219     -1.16613      0.59863  
   -1.16613     17.15097     -0.89958  
    0.59863     -0.89958     15.14801  
diagonalized tensor: 
   14.68620     14.94203     18.13293  

   -0.61084      0.65875      0.43923  
   -0.00003      0.55474     -0.83202  
    0.79176      0.50824      0.33884  

Isotropic polarizability :  15.92039


Timings for individual modules:

Sum of individual times         ...     4816.980 sec (=  80.283 min)
GTO integral calculation        ...        5.779 sec (=   0.096 min)   0.1 %
SCF iterations                  ...     2733.242 sec (=  45.554 min)  56.7 %
Solution of CP-SCF eqns.        ...     2077.958 sec (=  34.633 min)  43.1 %
                             ****ORCA TERMINATED NORMALLY****
TOTAL RUN TIME: 0 days 1 hours 20 minutes 23 seconds 818 msec
