
                                 *****************
                                 * O   R   C   A *
                                 *****************

           --- An Ab Initio, DFT and Semiempirical electronic structure package ---

                  #######################################################
                  #                        -***-                        #
                  #          Department of theory and spectroscopy      #
                  #               Directorship: Frank Neese             #
                  #        Max Planck Institute fuer Kohlenforschung    #
                  #                Kaiser Wilhelm Platz 1               #
                  #                 D-45470 Muelheim/Ruhr               #
                  #                      Germany                        #
                  #                                                     #
                  #                  All rights reserved                #
                  #                        -***-                        #
                  #######################################################


                         Program Version 4.1.2  - RELEASE  -


 With contributions from (in alphabetic order):
   Daniel Aravena         : Magnetic Properties
   Michael Atanasov       : Ab Initio Ligand Field Theory
   Alexander A. Auer      : GIAO ZORA
   Ute Becker             : Parallelization
   Giovanni Bistoni       : ED, Open-shell LED
   Martin Brehm           : Molecular dynamics
   Dmytro Bykov           : SCF Hessian
   Vijay G. Chilkuri      : MRCI spin determinant printing
   Dipayan Datta          : RHF DLPNO-CCSD density
   Achintya Kumar Dutta   : EOM-CC, STEOM-CC
   Dmitry Ganyushin       : Spin-Orbit,Spin-Spin,Magnetic field MRCI
   Miquel Garcia          : C-PCM Hessian
   Yang Guo               : DLPNO-NEVPT2, CIM, IAO-localization
   Andreas Hansen         : Spin unrestricted coupled pair/coupled cluster methods
   Benjamin Helmich-Paris : CASSCF linear response (MC-RPA)
   Lee Huntington         : MR-EOM, pCC
   Robert Izsak           : Overlap fitted RIJCOSX, COSX-SCS-MP3, EOM
   Christian Kollmar      : KDIIS, OOCD, Brueckner-CCSD(T), CCSD density
   Simone Kossmann        : Meta GGA functionals, TD-DFT gradient, OOMP2, MP2 Hessian
   Martin Krupicka        : AUTO-CI
   Lucas Lang             : DCDCAS
   Dagmar Lenk            : GEPOL surface, SMD
   Dimitrios Liakos       : Extrapolation schemes; parallel MDCI
   Dimitrios Manganas     : ROCIS; embedding schemes
   Dimitrios Pantazis     : SARC Basis sets
   Taras Petrenko         : DFT Hessian,TD-DFT gradient, ASA, ECA, R-Raman, ABS, FL, XAS/XES, NRVS
   Peter Pinski           : DLPNO-MP2, DLPNO-MP2 Gradient
   Christoph Reimann      : Effective Core Potentials
   Marius Retegan         : Local ZFS, SOC
   Christoph Riplinger    : Optimizer, TS searches, QM/MM, DLPNO-CCSD(T), (RO)-DLPNO pert. Triples
   Tobias Risthaus        : Range-separated hybrids, TD-DFT gradient, RPA, STAB
   Michael Roemelt        : Restricted open shell CIS
   Masaaki Saitow         : Open-shell DLPNO
   Barbara Sandhoefer     : DKH picture change effects
   Avijit Sen             : IP-ROCIS
   Kantharuban Sivalingam : CASSCF convergence, NEVPT2, FIC-MRCI
   Bernardo de Souza      : ESD, SOC TD-DFT
   Georgi Stoychev        : AutoAux, RI-MP2 NMR
   Willem Van den Heuvel  : Paramagnetic NMR
   Boris Wezisla          : Elementary symmetry handling
   Frank Wennmohs         : Technical directorship


 We gratefully acknowledge several colleagues who have allowed us to
 interface, adapt or use parts of their codes:
   Stefan Grimme, W. Hujo, H. Kruse,             : VdW corrections, initial TS optimization,
                  C. Bannwarth                     DFT functionals, gCP, sTDA/sTD-DF
   Ed Valeev                                     : LibInt (2-el integral package), F12 methods
   Garnet Chan, S. Sharma, J. Yang, R. Olivares  : DMRG
   Ulf Ekstrom                                   : XCFun DFT Library
   Mihaly Kallay                                 : mrcc  (arbitrary order and MRCC methods)
   Andreas Klamt, Michael Diedenhofen            : otool_cosmo (COSMO solvation model)
   Jiri Pittner, Ondrej Demel                    : Mk-CCSD
   Frank Weinhold                                : gennbo (NPA and NBO analysis)
   Christopher J. Cramer and Donald G. Truhlar   : smd solvation model
   Lars Goerigk                                  : TD-DFT with DH, B97 family of functionals
   V. Asgeirsson, H. Jonsson                     : NEB implementation
   FAccTs GmbH                                   : IRC, NEB, NEB-TS, Multilevel


 Your calculation uses the libint2 library for the computation of 2-el integrals
 For citations please refer to: http://libint.valeyev.net

 This ORCA versions uses:
   CBLAS   interface :  Fast vector & matrix operations
   LAPACKE interface :  Fast linear algebra routines
   SCALAPACK package :  Parallel linear algebra routines


----- Orbital basis set information -----
Your calculation utilizes the basis: aug-pc-4
   H, C-F              : F. Jensen, J. Chem. Phys. 115, 9113 (2001).
                         F. Jensen, J. Chem. Phys. 116, 7372 (2002).
                         F. Jensen, J. Chem. Phys. 117, 9234 (2002).
   Si-Cl               : F. Jensen, T. Helgaker, J. Chem. Phys. 121, 3463 (2004).
   He-B, Ne-Mg, Al, Ar : F. Jensen, J. Phys. Chem. A 111, 11198 (2007).
   K, Ca, Ga-Kr        : F. Jensen, J. Chem. Phys. 136, 094110 (2012).
   Sc-Zn               : F. Jensen, J. Chem. Phys. 138, 014107 (2013).

================================================================================
                                        WARNINGS
                       Please study these warnings very carefully!
================================================================================


INFO   : the flag for use of LIBINT has been found!

================================================================================
                                       INPUT FILE
================================================================================
NAME = nh3o_pbe.inp
|  1> !uks pbe nori aug-pc-4 grid5 nofinalgrid verytightscf
|  2> 
|  3> %maxcore 1500
|  4> 
|  5> %pal nprocs 4 end
|  6> 
|  7> %scf
|  8> 	maxiter 200
|  9> end
| 10> %elprop
| 11> 	dipole true
| 12> 	 polar 1
| 13> 	 maxiter 200
| 14> end
| 15> 
| 16> * xyz 0 1
| 17> N 0.0000000000 0.0000000000 -0.5344777797
| 18> H -0.9458001927 0.0000000000 -0.9350779673
| 19> H 0.4729000069 -0.8190998435 -0.9350776619
| 20> H 0.4729000069 0.8190998435 -0.9350776619
| 21> O 0.0000000000 0.0000000000 0.8183222203
| 22> *
| 23> 
| 24>                          ****END OF INPUT****
================================================================================

                       ****************************
                       * Single Point Calculation *
                       ****************************

---------------------------------
CARTESIAN COORDINATES (ANGSTROEM)
---------------------------------
  N      0.000000    0.000000   -0.534478
  H     -0.945800    0.000000   -0.935078
  H      0.472900   -0.819100   -0.935078
  H      0.472900    0.819100   -0.935078
  O      0.000000    0.000000    0.818322

----------------------------
CARTESIAN COORDINATES (A.U.)
----------------------------
  NO LB      ZA    FRAG     MASS         X           Y           Z
   0 N     7.0000    0    14.007    0.000000    0.000000   -1.010017
   1 H     1.0000    0     1.008   -1.787303    0.000000   -1.767041
   2 H     1.0000    0     1.008    0.893652   -1.547874   -1.767041
   3 H     1.0000    0     1.008    0.893652    1.547874   -1.767041
   4 O     8.0000    0    15.999    0.000000    0.000000    1.546405

--------------------------------
INTERNAL COORDINATES (ANGSTROEM)
--------------------------------
 N      0   0   0     0.000000000000     0.00000000     0.00000000
 H      1   0   0     1.027140942041     0.00000000     0.00000000
 H      1   2   0     1.027151028703   105.77319330     0.00000000
 H      1   2   3     1.027151028703   105.77319330   111.92080678
 O      1   2   3     1.352800000000   112.95542143   235.96040339

---------------------------
INTERNAL COORDINATES (A.U.)
---------------------------
 N      0   0   0     0.000000000000     0.00000000     0.00000000
 H      1   0   0     1.941015081395     0.00000000     0.00000000
 H      1   2   0     1.941034142425   105.77319330     0.00000000
 H      1   2   3     1.941034142425   105.77319330   111.92080678
 O      1   2   3     2.556421513969   112.95542143   235.96040339

---------------------
BASIS SET INFORMATION
---------------------
There are 3 groups of distinct atoms

 Group   1 Type N   : 27s12p7d4f3g2h contracted to 9s8p7d4f3g2h pattern {1191111111/51111111/1111111/1111/111/11}
 Group   2 Type H   : 12s7p4d3f2g contracted to 8s7p4d3f2g pattern {51111111/1111111/1111/111/11}
 Group   3 Type O   : 27s12p7d4f3g2h contracted to 9s8p7d4f3g2h pattern {1191111111/51111111/1111111/1111/111/11}

Atom   0N    basis set group =>   1
Atom   1H    basis set group =>   2
Atom   2H    basis set group =>   2
Atom   3H    basis set group =>   2
Atom   4O    basis set group =>   3


           ************************************************************
           *        Program running with 4 parallel MPI-processes     *
           *              working on a common directory               *
           ************************************************************
------------------------------------------------------------------------------
                           ORCA GTO INTEGRAL CALCULATION
------------------------------------------------------------------------------

                         BASIS SET STATISTICS AND STARTUP INFO

 # of primitive gaussian shells          ...  194
 # of primitive gaussian functions       ...  626
 # of contracted shells                  ...  138
 # of contracted basis functions         ...  554
 Highest angular momentum                ...    5
 Maximum contraction depth               ...   11
 Integral package used                   ... LIBINT
 Integral threshhold            Thresh   ...  1.000e-12
 Primitive cut-off              TCut     ...  1.000e-14


------------------------------ INTEGRAL EVALUATION ----------------------------


 * One electron integrals 
 Pre-screening matrix                    ... done
 Shell pair data                         ... done (   0.003 sec)



           ************************************************************
           *        Program running with 4 parallel MPI-processes     *
           *              working on a common directory               *
           ************************************************************
-------------------------------------------------------------------------------
                                 ORCA SCF
-------------------------------------------------------------------------------

------------
SCF SETTINGS
------------
Hamiltonian:
 Density Functional     Method          .... DFT(GTOs)
 Exchange Functional    Exchange        .... PBE
   PBE kappa parameter   XKappa         ....  0.804000
   PBE mue parameter    XMuePBE         ....  0.219520
 Correlation Functional Correlation     .... PBE
   PBE beta parameter  CBetaPBE         ....  0.066725
 LDA part of GGA corr.  LDAOpt          .... PW91-LDA
 Gradients option       PostSCFGGA      .... off
   Density functional embedding theory  .... OFF
   NL short-range parameter             ....  6.400000


General Settings:
 Integral files         IntName         .... nh3o_pbe
 Hartree-Fock type      HFTyp           .... UHF
 Total Charge           Charge          ....    0
 Multiplicity           Mult            ....    1
 Number of Electrons    NEL             ....   18
 Basis Dimension        Dim             ....  554
 Nuclear Repulsion      ENuc            ....     40.0686162132 Eh

Convergence Acceleration:
 DIIS                   CNVDIIS         .... on
   Start iteration      DIISMaxIt       ....    12
   Startup error        DIISStart       ....  0.200000
   # of expansion vecs  DIISMaxEq       ....     5
   Bias factor          DIISBfac        ....   1.050
   Max. coefficient     DIISMaxC        ....  10.000
 Newton-Raphson         CNVNR           .... off
 SOSCF                  CNVSOSCF        .... off
 Level Shifting         CNVShift        .... on
   Level shift para.    LevelShift      ....    0.2500
   Turn off err/grad.   ShiftErr        ....    0.0010
 Zerner damping         CNVZerner       .... off
 Static damping         CNVDamp         .... on
   Fraction old density DampFac         ....    0.7000
   Max. Damping (<1)    DampMax         ....    0.9800
   Min. Damping (>=0)   DampMin         ....    0.0000
   Turn off err/grad.   DampErr         ....    0.1000
 Fernandez-Rico         CNVRico         .... off

SCF Procedure:
 Maximum # iterations   MaxIter         ....   200
 SCF integral mode      SCFMode         .... Direct
   Integral package                     .... LIBINT
 Reset frequency        DirectResetFreq ....    20
 Integral Threshold     Thresh          ....  1.000e-12 Eh
 Primitive CutOff       TCut            ....  1.000e-14 Eh

Convergence Tolerance:
 Convergence Check Mode ConvCheckMode   .... Total+1el-Energy
 Convergence forced     ConvForced      .... 0
 Energy Change          TolE            ....  1.000e-09 Eh
 1-El. energy change                    ....  1.000e-06 Eh
 DIIS Error             TolErr          ....  1.000e-08


Diagonalization of the overlap matrix:
Smallest eigenvalue                        ... 1.536e-07
Time for diagonalization                   ...    0.069 sec
Threshold for overlap eigenvalues          ... 1.000e-08
Number of eigenvalues below threshold      ... 0
Time for construction of square roots      ...    0.050 sec
Total time needed                          ...    0.121 sec

-------------------
DFT GRID GENERATION
-------------------

General Integration Accuracy     IntAcc      ...  5.010
Radial Grid Type                 RadialGrid  ... Gauss-Chebyshev
Angular Grid (max. acc.)         AngularGrid ... Lebedev-434
Angular grid pruning method      GridPruning ... 3 (G Style)
Weight generation scheme         WeightScheme... Becke
Basis function cutoff            BFCut       ...    1.0000e-12
Integration weight cutoff        WCut        ...    1.0000e-14
Grids for H and He will be reduced by one unit

# of grid points (after initial pruning)     ...  41508 (   0.0 sec)
# of grid points (after weights+screening)   ...  40375 (   0.0 sec)
nearest neighbour list constructed           ...    0.0 sec
Grid point re-assignment to atoms done       ...    0.0 sec
Grid point division into batches done        ...    0.3 sec
Reduced shell lists constructed in    0.4 sec

Total number of grid points                  ...    40375
Total number of batches                      ...      634
Average number of points per batch           ...       63
Average number of grid points per atom       ...     8075
Average number of shells per batch           ...   108.84 (78.87%)
Average number of basis functions per batch  ...   449.23 (81.09%)
Average number of large shells per batch     ...    98.98 (90.93%)
Average number of large basis fcns per batch ...   411.68 (91.64%)
Maximum spatial batch extension              ...  12.05, 15.38, 11.14 au
Average spatial batch extension              ...   0.51,  0.61,  0.54 au

Time for grid setup =    0.467 sec

------------------------------
INITIAL GUESS: MODEL POTENTIAL
------------------------------
Loading Hartree-Fock densities                     ... done
Calculating cut-offs                               ... done
Setting up the integral package                    ... done
Initializing the effective Hamiltonian             ... done
Starting the Coulomb interaction                   ... done (   0.1 sec)
Reading the grid                                   ... done
Mapping shells                                     ... done
Starting the XC term evaluation                    ... done (   1.4 sec)
  promolecular density results
     # of electrons  =     17.998528693
     EX              =    -15.552163184
     EC              =     -0.588236611
     EX+EC           =    -16.140399795
Transforming the Hamiltonian                       ... done (   0.0 sec)
Diagonalizing the Hamiltonian                      ... done (   0.1 sec)
Back transforming the eigenvectors                 ... done (   0.0 sec)
Now organizing SCF variables                       ... done
                      ------------------
                      INITIAL GUESS DONE (   2.1 sec)
                      ------------------
--------------
SCF ITERATIONS
--------------
ITER       Energy         Delta-E        Max-DP      RMS-DP      [F,P]     Damp
               ***  Starting incremental Fock matrix formation  ***
  0   -131.4665711350   0.000000000000 0.02330561  0.00021529  0.3256459 0.7000
  1   -131.5453999784  -0.078828843391 0.01532233  0.00015119  0.0743313 0.7000
                               ***Turning on DIIS***
  2   -131.5603608183  -0.014960839898 0.01710377  0.00019084  0.0409351 0.0000
  3   -131.6062550571  -0.045894238731 0.01088716  0.00012180  0.0412224 0.0000
  4   -131.6092378729  -0.002982815837 0.00463671  0.00005059  0.0522810 0.0000
  5   -131.6114164255  -0.002178552586 0.00300246  0.00002498  0.0114464 0.0000
  6   -131.6115842659  -0.000167840412 0.00154152  0.00001683  0.0042141 0.0000
  7   -131.6116096387  -0.000025372768 0.00532329  0.00004618  0.0007123 0.0000
  8   -131.6116116113  -0.000001972625 0.00009895  0.00000104  0.0003754 0.0000
  9   -131.6116117820  -0.000000170717 0.00002716  0.00000027  0.0000831 0.0000
 10   -131.6116117927  -0.000000010703 0.00000361  0.00000003  0.0000055 0.0000
 11   -131.6116117928  -0.000000000078 0.00004274  0.00000019  0.0000027 0.0000
 12   -131.6116117928  -0.000000000009 0.00003549  0.00000021  0.0000004 0.0000
 13   -131.6116117928   0.000000000006 0.00002207  0.00000015  0.0000003 0.0000
                 **** Energy Check signals convergence ****

               *****************************************************
               *                     SUCCESS                       *
               *           SCF CONVERGED AFTER  14 CYCLES          *
               *****************************************************


----------------
TOTAL SCF ENERGY
----------------

Total Energy       :         -131.61161179 Eh           -3581.33403 eV

Components:
Nuclear Repulsion  :           40.06861621 Eh            1090.32248 eV
Electronic Energy  :         -171.68022801 Eh           -4671.65651 eV
One Electron Energy:         -259.06152776 Eh           -7049.42256 eV
Two Electron Energy:           87.38129976 Eh            2377.76605 eV

Virial components:
Potential Energy   :         -262.81179778 Eh           -7151.47259 eV
Kinetic Energy     :          131.20018598 Eh            3570.13856 eV
Virial Ratio       :            2.00313586


DFT components:
N(Alpha)           :        9.000000124312 electrons
N(Beta)            :        9.000000124312 electrons
N(Total)           :       18.000000248624 electrons
E(X)               :      -15.838233884014 Eh       
E(C)               :       -0.593258257379 Eh       
E(XC)              :      -16.431492141394 Eh       
DFET-embed. en.    :        0.000000000000 Eh       

---------------
SCF CONVERGENCE
---------------

  Last Energy change         ...    2.1316e-12  Tolerance :   1.0000e-09
  Last MAX-Density change    ...    1.6573e-04  Tolerance :   1.0000e-08
  Last RMS-Density change    ...    8.6071e-07  Tolerance :   1.0000e-09
  Last DIIS Error            ...    8.5035e-08  Tolerance :   1.0000e-08

             **** THE GBW FILE WAS UPDATED (nh3o_pbe.gbw) ****
             **** DENSITY FILE WAS UPDATED (nh3o_pbe.scfp.tmp) ****
             **** ENERGY FILE WAS UPDATED (nh3o_pbe.en.tmp) ****
----------------------
UHF SPIN CONTAMINATION
----------------------

Warning: in a DFT calculation there is little theoretical justification to 
         calculate <S**2> as in Hartree-Fock theory. We will do it anyways
         but you should keep in mind that the values have only limited relevance

Expectation value of <S**2>     :    -0.000000
Ideal value S*(S+1) for S=0.0   :     0.000000
Deviation                       :    -0.000000

----------------
ORBITAL ENERGIES
----------------
                 SPIN UP ORBITALS
  NO   OCC          E(Eh)            E(eV) 
   0   1.0000     -18.679312      -508.2899 
   1   1.0000     -14.126489      -384.4013 
   2   1.0000      -0.972202       -26.4550 
   3   1.0000      -0.738558       -20.0972 
   4   1.0000      -0.519754       -14.1432 
   5   1.0000      -0.519753       -14.1432 
   6   1.0000      -0.383516       -10.4360 
   7   1.0000      -0.171571        -4.6687 
   8   1.0000      -0.171571        -4.6687 
   9   0.0000      -0.055648        -1.5143 
  10   0.0000      -0.002917        -0.0794 
  11   0.0000      -0.002916        -0.0794 
  12   0.0000       0.008048         0.2190 
  13   0.0000       0.024444         0.6652 
  14   0.0000       0.039451         1.0735 
  15   0.0000       0.039452         1.0735 
  16   0.0000       0.045349         1.2340 
  17   0.0000       0.045351         1.2341 
  18   0.0000       0.051488         1.4010 
  19   0.0000       0.054797         1.4911 
  20   0.0000       0.054797         1.4911 
  21   0.0000       0.063154         1.7185 
  22   0.0000       0.101168         2.7529 
  23   0.0000       0.101168         2.7529 
  24   0.0000       0.102555         2.7907 
  25   0.0000       0.114592         3.1182 
  26   0.0000       0.114593         3.1182 
  27   0.0000       0.117566         3.1991 
  28   0.0000       0.117948         3.2095 
  29   0.0000       0.125083         3.4037 
  30   0.0000       0.125085         3.4037 
  31   0.0000       0.133944         3.6448 
  32   0.0000       0.146947         3.9986 
  33   0.0000       0.150531         4.0962 
  34   0.0000       0.150536         4.0963 
  35   0.0000       0.156058         4.2466 
  36   0.0000       0.156061         4.2466 
  37   0.0000       0.159582         4.3424 
  38   0.0000       0.191041         5.1985 
  39   0.0000       0.191044         5.1986 
  40   0.0000       0.214517         5.8373 
  41   0.0000       0.214993         5.8503 
  42   0.0000       0.215309         5.8589 
  43   0.0000       0.215311         5.8589 
  44   0.0000       0.224465         6.1080 
  45   0.0000       0.224475         6.1083 
  46   0.0000       0.233979         6.3669 
  47   0.0000       0.233981         6.3669 
  48   0.0000       0.234058         6.3691 
  49   0.0000       0.245847         6.6898 
  50   0.0000       0.253833         6.9071 
  51   0.0000       0.253837         6.9072 
  52   0.0000       0.263317         7.1652 
  53   0.0000       0.267570         7.2810 
  54   0.0000       0.268005         7.2928 
  55   0.0000       0.268007         7.2929 
  56   0.0000       0.289259         7.8711 
  57   0.0000       0.296512         8.0685 
  58   0.0000       0.301856         8.2139 
  59   0.0000       0.301865         8.2142 
  60   0.0000       0.307941         8.3795 
  61   0.0000       0.307948         8.3797 
  62   0.0000       0.322500         8.7757 
  63   0.0000       0.333956         9.0874 
  64   0.0000       0.333960         9.0875 
  65   0.0000       0.354236         9.6393 
  66   0.0000       0.354239         9.6393 
  67   0.0000       0.359004         9.7690 
  68   0.0000       0.359008         9.7691 
  69   0.0000       0.365946         9.9579 
  70   0.0000       0.366257         9.9664 
  71   0.0000       0.370676        10.0866 
  72   0.0000       0.370690        10.0870 
  73   0.0000       0.394950        10.7471 
  74   0.0000       0.394952        10.7472 
  75   0.0000       0.418937        11.3999 
  76   0.0000       0.424519        11.5518 
  77   0.0000       0.450415        12.2564 
  78   0.0000       0.450415        12.2564 
  79   0.0000       0.451878        12.2962 
  80   0.0000       0.461246        12.5511 
  81   0.0000       0.464405        12.6371 
  82   0.0000       0.464405        12.6371 
  83   0.0000       0.465471        12.6661 
  84   0.0000       0.469152        12.7663 
  85   0.0000       0.469155        12.7663 
  86   0.0000       0.472730        12.8637 
  87   0.0000       0.472732        12.8637 
  88   0.0000       0.473947        12.8967 
  89   0.0000       0.488895        13.3035 
  90   0.0000       0.488907        13.3038 
  91   0.0000       0.490275        13.3411 
  92   0.0000       0.498163        13.5557 
  93   0.0000       0.500587        13.6217 
  94   0.0000       0.500605        13.6221 
  95   0.0000       0.506584        13.7848 
  96   0.0000       0.513985        13.9863 
  97   0.0000       0.526862        14.3367 
  98   0.0000       0.526864        14.3367 
  99   0.0000       0.553832        15.0705 
 100   0.0000       0.575442        15.6586 
 101   0.0000       0.585361        15.9285 
 102   0.0000       0.588149        16.0043 
 103   0.0000       0.588151        16.0044 
 104   0.0000       0.597369        16.2552 
 105   0.0000       0.597384        16.2556 
 106   0.0000       0.603316        16.4171 
 107   0.0000       0.603324        16.4173 
 108   0.0000       0.606364        16.5000 
 109   0.0000       0.616888        16.7864 
 110   0.0000       0.616889        16.7864 
 111   0.0000       0.655994        17.8505 
 112   0.0000       0.656225        17.8568 
 113   0.0000       0.656231        17.8569 
 114   0.0000       0.665731        18.1155 
 115   0.0000       0.665733        18.1155 
 116   0.0000       0.715878        19.4800 
 117   0.0000       0.715886        19.4803 
 118   0.0000       0.725908        19.7530 
 119   0.0000       0.726755        19.7760 
 120   0.0000       0.736867        20.0512 
 121   0.0000       0.736872        20.0513 
 122   0.0000       0.750298        20.4166 
 123   0.0000       0.754208        20.5230 
 124   0.0000       0.754224        20.5235 
 125   0.0000       0.767266        20.8784 
 126   0.0000       0.767270        20.8785 
 127   0.0000       0.769761        20.9463 
 128   0.0000       0.770884        20.9768 
 129   0.0000       0.770902        20.9773 
 130   0.0000       0.771904        21.0046 
 131   0.0000       0.783341        21.3158 
 132   0.0000       0.786336        21.3973 
 133   0.0000       0.786352        21.3977 
 134   0.0000       0.796434        21.6721 
 135   0.0000       0.820236        22.3198 
 136   0.0000       0.820251        22.3202 
 137   0.0000       0.828287        22.5388 
 138   0.0000       0.838252        22.8100 
 139   0.0000       0.838254        22.8101 
 140   0.0000       0.847221        23.0541 
 141   0.0000       0.850842        23.1526 
 142   0.0000       0.850846        23.1527 
 143   0.0000       0.856310        23.3014 
 144   0.0000       0.858202        23.3529 
 145   0.0000       0.858229        23.3536 
 146   0.0000       0.869144        23.6506 
 147   0.0000       0.872038        23.7294 
 148   0.0000       0.875116        23.8131 
 149   0.0000       0.875124        23.8133 
 150   0.0000       0.881062        23.9749 
 151   0.0000       0.881068        23.9751 
 152   0.0000       0.905653        24.6441 
 153   0.0000       0.905676        24.6447 
 154   0.0000       0.916724        24.9453 
 155   0.0000       0.922621        25.1058 
 156   0.0000       0.956114        26.0172 
 157   0.0000       0.956149        26.0181 
 158   0.0000       0.960914        26.1478 
 159   0.0000       0.965997        26.2861 
 160   0.0000       0.966018        26.2867 
 161   0.0000       0.969234        26.3742 
 162   0.0000       0.992380        27.0040 
 163   0.0000       1.001415        27.2499 
 164   0.0000       1.025132        27.8953 
 165   0.0000       1.034900        28.1611 
 166   0.0000       1.034928        28.1618 
 167   0.0000       1.051692        28.6180 
 168   0.0000       1.051702        28.6183 
 169   0.0000       1.072816        29.1928 
 170   0.0000       1.074094        29.2276 
 171   0.0000       1.074097        29.2277 
 172   0.0000       1.090315        29.6690 
 173   0.0000       1.090335        29.6695 
 174   0.0000       1.115712        30.3601 
 175   0.0000       1.115737        30.3607 
 176   0.0000       1.122249        30.5379 
 177   0.0000       1.130689        30.7676 
 178   0.0000       1.138947        30.9923 
 179   0.0000       1.138962        30.9927 
 180   0.0000       1.153462        31.3873 
 181   0.0000       1.153502        31.3884 
 182   0.0000       1.184180        32.2232 
 183   0.0000       1.184185        32.2233 
 184   0.0000       1.185567        32.2609 
 185   0.0000       1.249703        34.0061 
 186   0.0000       1.298865        35.3439 
 187   0.0000       1.298898        35.3448 
 188   0.0000       1.329205        36.1695 
 189   0.0000       1.333455        36.2851 
 190   0.0000       1.333462        36.2854 
 191   0.0000       1.333850        36.2959 
 192   0.0000       1.339921        36.4611 
 193   0.0000       1.339971        36.4625 
 194   0.0000       1.375404        37.4266 
 195   0.0000       1.375454        37.4280 
 196   0.0000       1.376003        37.4429 
 197   0.0000       1.413490        38.4630 
 198   0.0000       1.413492        38.4631 
 199   0.0000       1.450496        39.4700 
 200   0.0000       1.450507        39.4703 
 201   0.0000       1.513364        41.1807 
 202   0.0000       1.523477        41.4559 
 203   0.0000       1.555707        42.3329 
 204   0.0000       1.555709        42.3330 
 205   0.0000       1.597087        43.4590 
 206   0.0000       1.619497        44.0687 
 207   0.0000       1.619514        44.0692 
 208   0.0000       1.628998        44.3273 
 209   0.0000       1.644389        44.7461 
 210   0.0000       1.685631        45.8684 
 211   0.0000       1.685640        45.8686 
 212   0.0000       1.711046        46.5599 
 213   0.0000       1.748715        47.5849 
 214   0.0000       1.748783        47.5868 
 215   0.0000       1.782907        48.5154 
 216   0.0000       1.782920        48.5157 
 217   0.0000       1.788966        48.6802 
 218   0.0000       1.815213        49.3944 
 219   0.0000       1.815214        49.3945 
 220   0.0000       1.817922        49.4682 
 221   0.0000       1.861841        50.6633 
 222   0.0000       1.861894        50.6647 
 223   0.0000       1.939948        52.7887 
 224   0.0000       1.939983        52.7896 
 225   0.0000       1.948802        53.0296 
 226   0.0000       1.956860        53.2489 
 227   0.0000       2.061321        56.0914 
 228   0.0000       2.061326        56.0915 
 229   0.0000       2.077958        56.5441 
 230   0.0000       2.131264        57.9946 
 231   0.0000       2.131283        57.9952 
 232   0.0000       2.160072        58.7785 
 233   0.0000       2.204355        59.9835 
 234   0.0000       2.273671        61.8697 
 235   0.0000       2.273681        61.8700 
 236   0.0000       2.301973        62.6399 
 237   0.0000       2.360477        64.2318 
 238   0.0000       2.361227        64.2523 
 239   0.0000       2.361245        64.2527 
 240   0.0000       2.522534        68.6416 
 241   0.0000       2.522559        68.6423 
 242   0.0000       2.533923        68.9516 
 243   0.0000       2.542686        69.1900 
 244   0.0000       2.542701        69.1904 
 245   0.0000       2.681240        72.9602 
 246   0.0000       2.681245        72.9604 
 247   0.0000       2.699597        73.4598 
 248   0.0000       2.720144        74.0189 
 249   0.0000       2.787757        75.8587 
 250   0.0000       2.843341        77.3712 
 251   0.0000       2.853649        77.6517 
 252   0.0000       2.853657        77.6520 
 253   0.0000       2.930865        79.7529 
 254   0.0000       2.930875        79.7532 
 255   0.0000       3.084091        83.9224 
 256   0.0000       3.139022        85.4171 
 257   0.0000       3.139036        85.4175 
 258   0.0000       3.221179        87.6527 
 259   0.0000       3.221200        87.6533 
 260   0.0000       3.246709        88.3474 
 261   0.0000       3.267231        88.9059 
 262   0.0000       3.267242        88.9062 
 263   0.0000       3.412476        92.8582 
 264   0.0000       3.444968        93.7423 
 265   0.0000       3.451261        93.9136 
 266   0.0000       3.451271        93.9139 
 267   0.0000       3.512165        95.5709 
 268   0.0000       3.540706        96.3475 
 269   0.0000       3.540709        96.3476 
 270   0.0000       3.621122        98.5357 
 271   0.0000       3.681748       100.1854 
 272   0.0000       3.681776       100.1862 
 273   0.0000       3.736474       101.6746 
 274   0.0000       3.736608       101.6783 
 275   0.0000       3.744933       101.9048 
 276   0.0000       3.781974       102.9127 
 277   0.0000       3.781981       102.9129 
 278   0.0000       3.853082       104.8477 
 279   0.0000       3.940203       107.2184 
 280   0.0000       3.964011       107.8662 
 281   0.0000       3.964028       107.8667 
 282   0.0000       4.076975       110.9401 
 283   0.0000       4.129368       112.3658 
 284   0.0000       4.129385       112.3663 
 285   0.0000       4.197519       114.2203 
 286   0.0000       4.226148       114.9993 
 287   0.0000       4.226170       114.9999 
 288   0.0000       4.240324       115.3851 
 289   0.0000       4.369855       118.9098 
 290   0.0000       4.392799       119.5341 
 291   0.0000       4.392843       119.5353 
 292   0.0000       4.464008       121.4718 
 293   0.0000       4.464044       121.4728 
 294   0.0000       4.523242       123.0837 
 295   0.0000       4.523252       123.0839 
 296   0.0000       4.578267       124.5810 
 297   0.0000       4.578286       124.5815 
 298   0.0000       4.659686       126.7965 
 299   0.0000       4.659716       126.7973 
 300   0.0000       4.660724       126.8247 
 301   0.0000       4.720636       128.4550 
 302   0.0000       4.793115       130.4273 
 303   0.0000       4.793176       130.4289 
 304   0.0000       4.851390       132.0130 
 305   0.0000       4.882278       132.8535 
 306   0.0000       4.927095       134.0731 
 307   0.0000       4.927099       134.0732 
 308   0.0000       5.132064       139.6506 
 309   0.0000       5.196862       141.4138 
 310   0.0000       5.196873       141.4141 
 311   0.0000       5.362935       145.9329 
 312   0.0000       5.362957       145.9335 
 313   0.0000       5.376378       146.2987 
 314   0.0000       5.394052       146.7796 
 315   0.0000       5.402118       146.9991 
 316   0.0000       5.402124       146.9993 
 317   0.0000       5.467037       148.7657 
 318   0.0000       5.563021       151.3775 
 319   0.0000       5.577752       151.7784 
 320   0.0000       5.577771       151.7789 
 321   0.0000       5.630944       153.2258 
 322   0.0000       5.654744       153.8734 
 323   0.0000       5.654801       153.8750 
 324   0.0000       5.705905       155.2656 
 325   0.0000       6.016629       163.7208 
 326   0.0000       6.016652       163.7214 
 327   0.0000       6.065725       165.0568 
 328   0.0000       6.096062       165.8823 
 329   0.0000       6.096099       165.8833 
 330   0.0000       6.104319       166.1070 
 331   0.0000       6.207485       168.9143 
 332   0.0000       6.286119       171.0540 
 333   0.0000       6.286136       171.0545 
 334   0.0000       6.412138       174.4831 
 335   0.0000       6.456263       175.6838 
 336   0.0000       6.456264       175.6839 
 337   0.0000       6.521466       177.4581 
 338   0.0000       6.668406       181.4565 
 339   0.0000       6.668464       181.4581 
 340   0.0000       6.793795       184.8686 
 341   0.0000       6.910490       188.0440 
 342   0.0000       6.910498       188.0442 
 343   0.0000       6.940154       188.8512 
 344   0.0000       7.079005       192.6295 
 345   0.0000       7.079011       192.6297 
 346   0.0000       7.234229       196.8534 
 347   0.0000       7.384712       200.9482 
 348   0.0000       7.384783       200.9502 
 349   0.0000       7.397786       201.3040 
 350   0.0000       7.520718       204.6491 
 351   0.0000       7.520739       204.6497 
 352   0.0000       7.588436       206.4918 
 353   0.0000       7.916325       215.4141 
 354   0.0000       7.916352       215.4149 
 355   0.0000       8.071487       219.6363 
 356   0.0000       8.071509       219.6369 
 357   0.0000       8.100844       220.4352 
 358   0.0000       8.457406       230.1377 
 359   0.0000       8.457407       230.1377 
 360   0.0000       8.550822       232.6797 
 361   0.0000       8.704374       236.8581 
 362   0.0000       8.797100       239.3813 
 363   0.0000       8.797106       239.3814 
 364   0.0000       8.997003       244.8209 
 365   0.0000       9.068091       246.7553 
 366   0.0000       9.068162       246.7572 
 367   0.0000       9.194636       250.1988 
 368   0.0000       9.218767       250.8554 
 369   0.0000       9.218772       250.8555 
 370   0.0000       9.283332       252.6123 
 371   0.0000       9.347395       254.3555 
 372   0.0000       9.347410       254.3560 
 373   0.0000       9.452530       257.2164 
 374   0.0000       9.498768       258.4746 
 375   0.0000       9.498778       258.4749 
 376   0.0000       9.611204       261.5342 
 377   0.0000       9.694416       263.7985 
 378   0.0000       9.694448       263.7993 
 379   0.0000       9.825131       267.3554 
 380   0.0000       9.825154       267.3560 
 381   0.0000       9.946238       270.6509 
 382   0.0000       9.946239       270.6509 
 383   0.0000      10.148975       276.1677 
 384   0.0000      10.148982       276.1678 
 385   0.0000      10.160883       276.4917 
 386   0.0000      10.247046       278.8363 
 387   0.0000      10.302642       280.3491 
 388   0.0000      10.302667       280.3498 
 389   0.0000      10.318761       280.7878 
 390   0.0000      10.830661       294.7173 
 391   0.0000      11.228797       305.5511 
 392   0.0000      11.228812       305.5515 
 393   0.0000      11.311969       307.8143 
 394   0.0000      11.350539       308.8639 
 395   0.0000      11.350548       308.8641 
 396   0.0000      11.448584       311.5318 
 397   0.0000      11.492067       312.7151 
 398   0.0000      11.492072       312.7152 
 399   0.0000      11.603282       315.7414 
 400   0.0000      11.824175       321.7522 
 401   0.0000      11.909509       324.0742 
 402   0.0000      11.909578       324.0761 
 403   0.0000      12.059415       328.1534 
 404   0.0000      12.059423       328.1536 
 405   0.0000      12.144533       330.4695 
 406   0.0000      12.144546       330.4699 
 407   0.0000      12.173447       331.2563 
 408   0.0000      12.173471       331.2570 
 409   0.0000      12.186454       331.6103 
 410   0.0000      12.352347       336.1244 
 411   0.0000      12.367989       336.5501 
 412   0.0000      12.496879       340.0574 
 413   0.0000      12.506183       340.3105 
 414   0.0000      12.506210       340.3113 
 415   0.0000      12.533940       341.0658 
 416   0.0000      12.599549       342.8511 
 417   0.0000      12.599578       342.8519 
 418   0.0000      12.684309       345.1576 
 419   0.0000      12.684320       345.1579 
 420   0.0000      12.739684       346.6644 
 421   0.0000      12.739706       346.6650 
 422   0.0000      12.740582       346.6889 
 423   0.0000      12.801391       348.3436 
 424   0.0000      12.891952       350.8079 
 425   0.0000      12.918274       351.5241 
 426   0.0000      12.918275       351.5241 
 427   0.0000      12.971293       352.9668 
 428   0.0000      12.985324       353.3486 
 429   0.0000      12.985325       353.3487 
 430   0.0000      13.009429       354.0045 
 431   0.0000      13.097958       356.4136 
 432   0.0000      13.135602       357.4379 
 433   0.0000      13.135605       357.4380 
 434   0.0000      13.401889       364.6839 
 435   0.0000      13.401896       364.6841 
 436   0.0000      13.657718       371.6454 
 437   0.0000      13.657735       371.6459 
 438   0.0000      13.929545       379.0422 
 439   0.0000      14.004331       381.0772 
 440   0.0000      14.069348       382.8464 
 441   0.0000      14.181992       385.9116 
 442   0.0000      14.182023       385.9125 
 443   0.0000      14.412693       392.1893 
 444   0.0000      14.455293       393.3485 
 445   0.0000      14.455347       393.3500 
 446   0.0000      15.119017       411.4094 
 447   0.0000      15.243075       414.7852 
 448   0.0000      15.243101       414.7859 
 449   0.0000      15.543056       422.9481 
 450   0.0000      15.635720       425.4696 
 451   0.0000      15.635731       425.4699 
 452   0.0000      15.727927       427.9787 
 453   0.0000      15.923304       433.2951 
 454   0.0000      15.923314       433.2954 
 455   0.0000      15.966738       434.4770 
 456   0.0000      15.966744       434.4772 
 457   0.0000      16.121290       438.6826 
 458   0.0000      16.558300       450.5743 
 459   0.0000      16.568917       450.8632 
 460   0.0000      16.568940       450.8638 
 461   0.0000      16.667950       453.5580 
 462   0.0000      16.716793       454.8871 
 463   0.0000      16.716810       454.8875 
 464   0.0000      16.823348       457.7866 
 465   0.0000      16.823370       457.7872 
 466   0.0000      16.831696       458.0137 
 467   0.0000      16.897895       459.8151 
 468   0.0000      17.014031       462.9753 
 469   0.0000      17.038482       463.6407 
 470   0.0000      17.038507       463.6413 
 471   0.0000      17.157422       466.8772 
 472   0.0000      17.157452       466.8780 
 473   0.0000      17.320639       471.3186 
 474   0.0000      17.320664       471.3192 
 475   0.0000      17.473628       475.4816 
 476   0.0000      17.522238       476.8043 
 477   0.0000      17.522267       476.8051 
 478   0.0000      17.548152       477.5095 
 479   0.0000      17.786381       483.9920 
 480   0.0000      17.786412       483.9929 
 481   0.0000      17.851901       485.7749 
 482   0.0000      17.926106       487.7941 
 483   0.0000      17.926115       487.7944 
 484   0.0000      17.928326       487.8546 
 485   0.0000      18.175165       494.5714 
 486   0.0000      18.175175       494.5717 
 487   0.0000      18.317904       498.4555 
 488   0.0000      18.317985       498.4577 
 489   0.0000      18.450237       502.0565 
 490   0.0000      19.021398       517.5986 
 491   0.0000      19.021406       517.5988 
 492   0.0000      19.260176       524.0960 
 493   0.0000      19.311813       525.5011 
 494   0.0000      19.311857       525.5023 
 495   0.0000      19.556983       532.1726 
 496   0.0000      19.557048       532.1743 
 497   0.0000      19.800921       538.8104 
 498   0.0000      19.826084       539.4952 
 499   0.0000      20.784236       565.5678 
 500   0.0000      20.784299       565.5695 
 501   0.0000      20.829243       566.7925 
 502   0.0000      20.834335       566.9311 
 503   0.0000      21.187976       576.5541 
 504   0.0000      21.282065       579.1144 
 505   0.0000      21.282095       579.1152 
 506   0.0000      22.045778       599.8961 
 507   0.0000      22.045849       599.8981 
 508   0.0000      23.265826       633.0953 
 509   0.0000      23.265859       633.0962 
 510   0.0000      23.489568       639.1836 
 511   0.0000      23.632712       643.0788 
 512   0.0000      23.632716       643.0789 
 513   0.0000      23.938502       651.3998 
 514   0.0000      23.967389       652.1858 
 515   0.0000      23.967392       652.1859 
 516   0.0000      24.002743       653.1478 
 517   0.0000      24.002770       653.1486 
 518   0.0000      24.372303       663.2041 
 519   0.0000      25.676592       698.6956 
 520   0.0000      25.676605       698.6959 
 521   0.0000      26.072498       709.4687 
 522   0.0000      26.922289       732.5927 
 523   0.0000      28.684092       780.5338 
 524   0.0000      28.855189       785.1896 
 525   0.0000      28.855212       785.1902 
 526   0.0000      30.521170       830.5233 
 527   0.0000      32.235801       877.1807 
 528   0.0000      32.235803       877.1808 
 529   0.0000      34.535624       939.7621 
 530   0.0000      41.529952      1130.0874 
 531   0.0000      41.591372      1131.7588 
 532   0.0000      41.591435      1131.7605 
 533   0.0000      48.383102      1316.5711 
 534   0.0000      48.383129      1316.5719 
 535   0.0000      48.891370      1330.4018 
 536   0.0000      49.253605      1340.2587 
 537   0.0000      49.253660      1340.2602 
 538   0.0000      66.790040      1817.4494 
 539   0.0000      66.790044      1817.4495 
 540   0.0000      67.135001      1826.8362 
 541   0.0000      67.135003      1826.8363 
 542   0.0000      68.651645      1868.1062 
 543   0.0000      90.956430      2475.0503 
 544   0.0000      91.076209      2478.3096 
 545   0.0000      91.076215      2478.3098 
 546   0.0000      91.290433      2484.1390 
 547   0.0000      91.313452      2484.7653 
 548   0.0000      91.313464      2484.7657 
 549   0.0000      92.822758      2525.8356 
 550   0.0000      92.822816      2525.8372 
 551   0.0000      93.004218      2530.7734 
 552   0.0000     106.967870      2910.7437 
 553   0.0000     143.837768      3914.0247 

                 SPIN DOWN ORBITALS
  NO   OCC          E(Eh)            E(eV) 
   0   1.0000     -18.679312      -508.2899 
   1   1.0000     -14.126489      -384.4013 
   2   1.0000      -0.972202       -26.4550 
   3   1.0000      -0.738558       -20.0972 
   4   1.0000      -0.519754       -14.1432 
   5   1.0000      -0.519753       -14.1432 
   6   1.0000      -0.383516       -10.4360 
   7   1.0000      -0.171571        -4.6687 
   8   1.0000      -0.171571        -4.6687 
   9   0.0000      -0.055648        -1.5143 
  10   0.0000      -0.002917        -0.0794 
  11   0.0000      -0.002916        -0.0794 
  12   0.0000       0.008048         0.2190 
  13   0.0000       0.024444         0.6652 
  14   0.0000       0.039451         1.0735 
  15   0.0000       0.039452         1.0735 
  16   0.0000       0.045349         1.2340 
  17   0.0000       0.045351         1.2341 
  18   0.0000       0.051488         1.4010 
  19   0.0000       0.054797         1.4911 
  20   0.0000       0.054797         1.4911 
  21   0.0000       0.063154         1.7185 
  22   0.0000       0.101168         2.7529 
  23   0.0000       0.101168         2.7529 
  24   0.0000       0.102555         2.7907 
  25   0.0000       0.114592         3.1182 
  26   0.0000       0.114593         3.1182 
  27   0.0000       0.117566         3.1991 
  28   0.0000       0.117948         3.2095 
  29   0.0000       0.125083         3.4037 
  30   0.0000       0.125085         3.4037 
  31   0.0000       0.133944         3.6448 
  32   0.0000       0.146947         3.9986 
  33   0.0000       0.150531         4.0962 
  34   0.0000       0.150536         4.0963 
  35   0.0000       0.156058         4.2466 
  36   0.0000       0.156061         4.2466 
  37   0.0000       0.159582         4.3424 
  38   0.0000       0.191041         5.1985 
  39   0.0000       0.191044         5.1986 
  40   0.0000       0.214517         5.8373 
  41   0.0000       0.214993         5.8503 
  42   0.0000       0.215309         5.8589 
  43   0.0000       0.215311         5.8589 
  44   0.0000       0.224465         6.1080 
  45   0.0000       0.224475         6.1083 
  46   0.0000       0.233979         6.3669 
  47   0.0000       0.233981         6.3669 
  48   0.0000       0.234058         6.3691 
  49   0.0000       0.245847         6.6898 
  50   0.0000       0.253833         6.9071 
  51   0.0000       0.253837         6.9072 
  52   0.0000       0.263317         7.1652 
  53   0.0000       0.267570         7.2810 
  54   0.0000       0.268005         7.2928 
  55   0.0000       0.268007         7.2929 
  56   0.0000       0.289259         7.8711 
  57   0.0000       0.296512         8.0685 
  58   0.0000       0.301856         8.2139 
  59   0.0000       0.301865         8.2142 
  60   0.0000       0.307941         8.3795 
  61   0.0000       0.307948         8.3797 
  62   0.0000       0.322500         8.7757 
  63   0.0000       0.333956         9.0874 
  64   0.0000       0.333960         9.0875 
  65   0.0000       0.354236         9.6393 
  66   0.0000       0.354239         9.6393 
  67   0.0000       0.359004         9.7690 
  68   0.0000       0.359008         9.7691 
  69   0.0000       0.365946         9.9579 
  70   0.0000       0.366257         9.9664 
  71   0.0000       0.370676        10.0866 
  72   0.0000       0.370690        10.0870 
  73   0.0000       0.394950        10.7471 
  74   0.0000       0.394952        10.7472 
  75   0.0000       0.418937        11.3999 
  76   0.0000       0.424519        11.5518 
  77   0.0000       0.450415        12.2564 
  78   0.0000       0.450415        12.2564 
  79   0.0000       0.451878        12.2962 
  80   0.0000       0.461246        12.5511 
  81   0.0000       0.464405        12.6371 
  82   0.0000       0.464405        12.6371 
  83   0.0000       0.465471        12.6661 
  84   0.0000       0.469152        12.7663 
  85   0.0000       0.469155        12.7663 
  86   0.0000       0.472730        12.8637 
  87   0.0000       0.472732        12.8637 
  88   0.0000       0.473947        12.8967 
  89   0.0000       0.488895        13.3035 
  90   0.0000       0.488907        13.3038 
  91   0.0000       0.490275        13.3411 
  92   0.0000       0.498163        13.5557 
  93   0.0000       0.500587        13.6217 
  94   0.0000       0.500605        13.6221 
  95   0.0000       0.506584        13.7848 
  96   0.0000       0.513985        13.9863 
  97   0.0000       0.526862        14.3367 
  98   0.0000       0.526864        14.3367 
  99   0.0000       0.553832        15.0705 
 100   0.0000       0.575442        15.6586 
 101   0.0000       0.585361        15.9285 
 102   0.0000       0.588149        16.0043 
 103   0.0000       0.588151        16.0044 
 104   0.0000       0.597369        16.2552 
 105   0.0000       0.597384        16.2556 
 106   0.0000       0.603316        16.4171 
 107   0.0000       0.603324        16.4173 
 108   0.0000       0.606364        16.5000 
 109   0.0000       0.616888        16.7864 
 110   0.0000       0.616889        16.7864 
 111   0.0000       0.655994        17.8505 
 112   0.0000       0.656225        17.8568 
 113   0.0000       0.656231        17.8569 
 114   0.0000       0.665731        18.1155 
 115   0.0000       0.665733        18.1155 
 116   0.0000       0.715878        19.4800 
 117   0.0000       0.715886        19.4803 
 118   0.0000       0.725908        19.7530 
 119   0.0000       0.726755        19.7760 
 120   0.0000       0.736867        20.0512 
 121   0.0000       0.736872        20.0513 
 122   0.0000       0.750298        20.4166 
 123   0.0000       0.754208        20.5230 
 124   0.0000       0.754224        20.5235 
 125   0.0000       0.767266        20.8784 
 126   0.0000       0.767270        20.8785 
 127   0.0000       0.769761        20.9463 
 128   0.0000       0.770884        20.9768 
 129   0.0000       0.770902        20.9773 
 130   0.0000       0.771904        21.0046 
 131   0.0000       0.783341        21.3158 
 132   0.0000       0.786336        21.3973 
 133   0.0000       0.786352        21.3977 
 134   0.0000       0.796434        21.6721 
 135   0.0000       0.820236        22.3198 
 136   0.0000       0.820251        22.3202 
 137   0.0000       0.828287        22.5388 
 138   0.0000       0.838252        22.8100 
 139   0.0000       0.838254        22.8101 
 140   0.0000       0.847221        23.0541 
 141   0.0000       0.850842        23.1526 
 142   0.0000       0.850846        23.1527 
 143   0.0000       0.856310        23.3014 
 144   0.0000       0.858202        23.3529 
 145   0.0000       0.858229        23.3536 
 146   0.0000       0.869144        23.6506 
 147   0.0000       0.872038        23.7294 
 148   0.0000       0.875116        23.8131 
 149   0.0000       0.875124        23.8133 
 150   0.0000       0.881062        23.9749 
 151   0.0000       0.881068        23.9751 
 152   0.0000       0.905653        24.6441 
 153   0.0000       0.905676        24.6447 
 154   0.0000       0.916724        24.9453 
 155   0.0000       0.922621        25.1058 
 156   0.0000       0.956114        26.0172 
 157   0.0000       0.956149        26.0181 
 158   0.0000       0.960914        26.1478 
 159   0.0000       0.965997        26.2861 
 160   0.0000       0.966018        26.2867 
 161   0.0000       0.969234        26.3742 
 162   0.0000       0.992380        27.0040 
 163   0.0000       1.001415        27.2499 
 164   0.0000       1.025132        27.8953 
 165   0.0000       1.034900        28.1611 
 166   0.0000       1.034928        28.1618 
 167   0.0000       1.051692        28.6180 
 168   0.0000       1.051702        28.6183 
 169   0.0000       1.072816        29.1928 
 170   0.0000       1.074094        29.2276 
 171   0.0000       1.074097        29.2277 
 172   0.0000       1.090315        29.6690 
 173   0.0000       1.090335        29.6695 
 174   0.0000       1.115712        30.3601 
 175   0.0000       1.115737        30.3607 
 176   0.0000       1.122249        30.5379 
 177   0.0000       1.130689        30.7676 
 178   0.0000       1.138947        30.9923 
 179   0.0000       1.138962        30.9927 
 180   0.0000       1.153462        31.3873 
 181   0.0000       1.153502        31.3884 
 182   0.0000       1.184180        32.2232 
 183   0.0000       1.184185        32.2233 
 184   0.0000       1.185567        32.2609 
 185   0.0000       1.249703        34.0061 
 186   0.0000       1.298865        35.3439 
 187   0.0000       1.298898        35.3448 
 188   0.0000       1.329205        36.1695 
 189   0.0000       1.333455        36.2851 
 190   0.0000       1.333462        36.2854 
 191   0.0000       1.333850        36.2959 
 192   0.0000       1.339921        36.4611 
 193   0.0000       1.339971        36.4625 
 194   0.0000       1.375404        37.4266 
 195   0.0000       1.375454        37.4280 
 196   0.0000       1.376003        37.4429 
 197   0.0000       1.413490        38.4630 
 198   0.0000       1.413492        38.4631 
 199   0.0000       1.450496        39.4700 
 200   0.0000       1.450507        39.4703 
 201   0.0000       1.513364        41.1807 
 202   0.0000       1.523477        41.4559 
 203   0.0000       1.555707        42.3329 
 204   0.0000       1.555709        42.3330 
 205   0.0000       1.597087        43.4590 
 206   0.0000       1.619497        44.0687 
 207   0.0000       1.619514        44.0692 
 208   0.0000       1.628998        44.3273 
 209   0.0000       1.644389        44.7461 
 210   0.0000       1.685631        45.8684 
 211   0.0000       1.685640        45.8686 
 212   0.0000       1.711046        46.5599 
 213   0.0000       1.748715        47.5849 
 214   0.0000       1.748783        47.5868 
 215   0.0000       1.782907        48.5154 
 216   0.0000       1.782920        48.5157 
 217   0.0000       1.788966        48.6802 
 218   0.0000       1.815213        49.3944 
 219   0.0000       1.815214        49.3945 
 220   0.0000       1.817922        49.4682 
 221   0.0000       1.861841        50.6633 
 222   0.0000       1.861894        50.6647 
 223   0.0000       1.939948        52.7887 
 224   0.0000       1.939983        52.7896 
 225   0.0000       1.948802        53.0296 
 226   0.0000       1.956860        53.2489 
 227   0.0000       2.061321        56.0914 
 228   0.0000       2.061326        56.0915 
 229   0.0000       2.077958        56.5441 
 230   0.0000       2.131264        57.9946 
 231   0.0000       2.131283        57.9952 
 232   0.0000       2.160072        58.7785 
 233   0.0000       2.204355        59.9835 
 234   0.0000       2.273671        61.8697 
 235   0.0000       2.273681        61.8700 
 236   0.0000       2.301973        62.6399 
 237   0.0000       2.360477        64.2318 
 238   0.0000       2.361227        64.2523 
 239   0.0000       2.361245        64.2527 
 240   0.0000       2.522534        68.6416 
 241   0.0000       2.522559        68.6423 
 242   0.0000       2.533923        68.9516 
 243   0.0000       2.542686        69.1900 
 244   0.0000       2.542701        69.1904 
 245   0.0000       2.681240        72.9602 
 246   0.0000       2.681245        72.9604 
 247   0.0000       2.699597        73.4598 
 248   0.0000       2.720144        74.0189 
 249   0.0000       2.787757        75.8587 
 250   0.0000       2.843341        77.3712 
 251   0.0000       2.853649        77.6517 
 252   0.0000       2.853657        77.6520 
 253   0.0000       2.930865        79.7529 
 254   0.0000       2.930875        79.7532 
 255   0.0000       3.084091        83.9224 
 256   0.0000       3.139022        85.4171 
 257   0.0000       3.139036        85.4175 
 258   0.0000       3.221179        87.6527 
 259   0.0000       3.221200        87.6533 
 260   0.0000       3.246709        88.3474 
 261   0.0000       3.267231        88.9059 
 262   0.0000       3.267242        88.9062 
 263   0.0000       3.412476        92.8582 
 264   0.0000       3.444968        93.7423 
 265   0.0000       3.451261        93.9136 
 266   0.0000       3.451271        93.9139 
 267   0.0000       3.512165        95.5709 
 268   0.0000       3.540706        96.3475 
 269   0.0000       3.540709        96.3476 
 270   0.0000       3.621122        98.5357 
 271   0.0000       3.681748       100.1854 
 272   0.0000       3.681776       100.1862 
 273   0.0000       3.736474       101.6746 
 274   0.0000       3.736608       101.6783 
 275   0.0000       3.744933       101.9048 
 276   0.0000       3.781974       102.9127 
 277   0.0000       3.781981       102.9129 
 278   0.0000       3.853082       104.8477 
 279   0.0000       3.940203       107.2184 
 280   0.0000       3.964011       107.8662 
 281   0.0000       3.964028       107.8667 
 282   0.0000       4.076975       110.9401 
 283   0.0000       4.129368       112.3658 
 284   0.0000       4.129385       112.3663 
 285   0.0000       4.197519       114.2203 
 286   0.0000       4.226148       114.9993 
 287   0.0000       4.226170       114.9999 
 288   0.0000       4.240324       115.3851 
 289   0.0000       4.369855       118.9098 
 290   0.0000       4.392799       119.5341 
 291   0.0000       4.392843       119.5353 
 292   0.0000       4.464008       121.4718 
 293   0.0000       4.464044       121.4728 
 294   0.0000       4.523242       123.0837 
 295   0.0000       4.523252       123.0839 
 296   0.0000       4.578267       124.5810 
 297   0.0000       4.578286       124.5815 
 298   0.0000       4.659686       126.7965 
 299   0.0000       4.659716       126.7973 
 300   0.0000       4.660724       126.8247 
 301   0.0000       4.720636       128.4550 
 302   0.0000       4.793115       130.4273 
 303   0.0000       4.793176       130.4289 
 304   0.0000       4.851390       132.0130 
 305   0.0000       4.882278       132.8535 
 306   0.0000       4.927095       134.0731 
 307   0.0000       4.927099       134.0732 
 308   0.0000       5.132064       139.6506 
 309   0.0000       5.196862       141.4138 
 310   0.0000       5.196873       141.4141 
 311   0.0000       5.362935       145.9329 
 312   0.0000       5.362957       145.9335 
 313   0.0000       5.376378       146.2987 
 314   0.0000       5.394052       146.7796 
 315   0.0000       5.402118       146.9991 
 316   0.0000       5.402124       146.9993 
 317   0.0000       5.467037       148.7657 
 318   0.0000       5.563021       151.3775 
 319   0.0000       5.577752       151.7784 
 320   0.0000       5.577771       151.7789 
 321   0.0000       5.630944       153.2258 
 322   0.0000       5.654744       153.8734 
 323   0.0000       5.654801       153.8750 
 324   0.0000       5.705905       155.2656 
 325   0.0000       6.016629       163.7208 
 326   0.0000       6.016652       163.7214 
 327   0.0000       6.065725       165.0568 
 328   0.0000       6.096062       165.8823 
 329   0.0000       6.096099       165.8833 
 330   0.0000       6.104319       166.1070 
 331   0.0000       6.207485       168.9143 
 332   0.0000       6.286119       171.0540 
 333   0.0000       6.286136       171.0545 
 334   0.0000       6.412138       174.4831 
 335   0.0000       6.456263       175.6838 
 336   0.0000       6.456264       175.6839 
 337   0.0000       6.521466       177.4581 
 338   0.0000       6.668406       181.4565 
 339   0.0000       6.668464       181.4581 
 340   0.0000       6.793795       184.8686 
 341   0.0000       6.910490       188.0440 
 342   0.0000       6.910498       188.0442 
 343   0.0000       6.940154       188.8512 
 344   0.0000       7.079005       192.6295 
 345   0.0000       7.079011       192.6297 
 346   0.0000       7.234229       196.8534 
 347   0.0000       7.384712       200.9482 
 348   0.0000       7.384783       200.9502 
 349   0.0000       7.397786       201.3040 
 350   0.0000       7.520718       204.6491 
 351   0.0000       7.520739       204.6497 
 352   0.0000       7.588436       206.4918 
 353   0.0000       7.916325       215.4141 
 354   0.0000       7.916352       215.4149 
 355   0.0000       8.071487       219.6363 
 356   0.0000       8.071509       219.6369 
 357   0.0000       8.100844       220.4352 
 358   0.0000       8.457406       230.1377 
 359   0.0000       8.457407       230.1377 
 360   0.0000       8.550822       232.6797 
 361   0.0000       8.704374       236.8581 
 362   0.0000       8.797100       239.3813 
 363   0.0000       8.797106       239.3814 
 364   0.0000       8.997003       244.8209 
 365   0.0000       9.068091       246.7553 
 366   0.0000       9.068162       246.7572 
 367   0.0000       9.194636       250.1988 
 368   0.0000       9.218767       250.8554 
 369   0.0000       9.218772       250.8555 
 370   0.0000       9.283332       252.6123 
 371   0.0000       9.347395       254.3555 
 372   0.0000       9.347410       254.3560 
 373   0.0000       9.452530       257.2164 
 374   0.0000       9.498768       258.4746 
 375   0.0000       9.498778       258.4749 
 376   0.0000       9.611204       261.5342 
 377   0.0000       9.694416       263.7985 
 378   0.0000       9.694448       263.7993 
 379   0.0000       9.825131       267.3554 
 380   0.0000       9.825154       267.3560 
 381   0.0000       9.946238       270.6509 
 382   0.0000       9.946239       270.6509 
 383   0.0000      10.148975       276.1677 
 384   0.0000      10.148982       276.1678 
 385   0.0000      10.160883       276.4917 
 386   0.0000      10.247046       278.8363 
 387   0.0000      10.302642       280.3491 
 388   0.0000      10.302667       280.3498 
 389   0.0000      10.318761       280.7878 
 390   0.0000      10.830661       294.7173 
 391   0.0000      11.228797       305.5511 
 392   0.0000      11.228812       305.5515 
 393   0.0000      11.311969       307.8143 
 394   0.0000      11.350539       308.8639 
 395   0.0000      11.350548       308.8641 
 396   0.0000      11.448584       311.5318 
 397   0.0000      11.492067       312.7151 
 398   0.0000      11.492072       312.7152 
 399   0.0000      11.603282       315.7414 
 400   0.0000      11.824175       321.7522 
 401   0.0000      11.909509       324.0742 
 402   0.0000      11.909578       324.0761 
 403   0.0000      12.059415       328.1534 
 404   0.0000      12.059423       328.1536 
 405   0.0000      12.144533       330.4695 
 406   0.0000      12.144546       330.4699 
 407   0.0000      12.173447       331.2563 
 408   0.0000      12.173471       331.2570 
 409   0.0000      12.186454       331.6103 
 410   0.0000      12.352347       336.1244 
 411   0.0000      12.367989       336.5501 
 412   0.0000      12.496879       340.0574 
 413   0.0000      12.506183       340.3105 
 414   0.0000      12.506210       340.3113 
 415   0.0000      12.533940       341.0658 
 416   0.0000      12.599549       342.8511 
 417   0.0000      12.599578       342.8519 
 418   0.0000      12.684309       345.1576 
 419   0.0000      12.684320       345.1579 
 420   0.0000      12.739684       346.6644 
 421   0.0000      12.739706       346.6650 
 422   0.0000      12.740582       346.6889 
 423   0.0000      12.801391       348.3436 
 424   0.0000      12.891952       350.8079 
 425   0.0000      12.918274       351.5241 
 426   0.0000      12.918275       351.5241 
 427   0.0000      12.971293       352.9668 
 428   0.0000      12.985324       353.3486 
 429   0.0000      12.985325       353.3487 
 430   0.0000      13.009429       354.0045 
 431   0.0000      13.097958       356.4136 
 432   0.0000      13.135602       357.4379 
 433   0.0000      13.135605       357.4380 
 434   0.0000      13.401889       364.6839 
 435   0.0000      13.401896       364.6841 
 436   0.0000      13.657718       371.6454 
 437   0.0000      13.657735       371.6459 
 438   0.0000      13.929545       379.0422 
 439   0.0000      14.004331       381.0772 
 440   0.0000      14.069348       382.8464 
 441   0.0000      14.181992       385.9116 
 442   0.0000      14.182023       385.9125 
 443   0.0000      14.412693       392.1893 
 444   0.0000      14.455293       393.3485 
 445   0.0000      14.455347       393.3500 
 446   0.0000      15.119017       411.4094 
 447   0.0000      15.243075       414.7852 
 448   0.0000      15.243101       414.7859 
 449   0.0000      15.543056       422.9481 
 450   0.0000      15.635720       425.4696 
 451   0.0000      15.635731       425.4699 
 452   0.0000      15.727927       427.9787 
 453   0.0000      15.923304       433.2951 
 454   0.0000      15.923314       433.2954 
 455   0.0000      15.966738       434.4770 
 456   0.0000      15.966744       434.4772 
 457   0.0000      16.121290       438.6826 
 458   0.0000      16.558300       450.5743 
 459   0.0000      16.568917       450.8632 
 460   0.0000      16.568940       450.8638 
 461   0.0000      16.667950       453.5580 
 462   0.0000      16.716793       454.8871 
 463   0.0000      16.716810       454.8875 
 464   0.0000      16.823348       457.7866 
 465   0.0000      16.823370       457.7872 
 466   0.0000      16.831696       458.0137 
 467   0.0000      16.897895       459.8151 
 468   0.0000      17.014031       462.9753 
 469   0.0000      17.038482       463.6407 
 470   0.0000      17.038507       463.6413 
 471   0.0000      17.157422       466.8772 
 472   0.0000      17.157452       466.8780 
 473   0.0000      17.320639       471.3186 
 474   0.0000      17.320664       471.3192 
 475   0.0000      17.473628       475.4816 
 476   0.0000      17.522238       476.8043 
 477   0.0000      17.522267       476.8051 
 478   0.0000      17.548152       477.5095 
 479   0.0000      17.786381       483.9920 
 480   0.0000      17.786412       483.9929 
 481   0.0000      17.851901       485.7749 
 482   0.0000      17.926106       487.7941 
 483   0.0000      17.926115       487.7944 
 484   0.0000      17.928326       487.8546 
 485   0.0000      18.175165       494.5714 
 486   0.0000      18.175175       494.5717 
 487   0.0000      18.317904       498.4555 
 488   0.0000      18.317985       498.4577 
 489   0.0000      18.450237       502.0565 
 490   0.0000      19.021398       517.5986 
 491   0.0000      19.021406       517.5988 
 492   0.0000      19.260176       524.0960 
 493   0.0000      19.311813       525.5011 
 494   0.0000      19.311857       525.5023 
 495   0.0000      19.556983       532.1726 
 496   0.0000      19.557048       532.1743 
 497   0.0000      19.800921       538.8104 
 498   0.0000      19.826084       539.4952 
 499   0.0000      20.784236       565.5678 
 500   0.0000      20.784299       565.5695 
 501   0.0000      20.829243       566.7925 
 502   0.0000      20.834335       566.9311 
 503   0.0000      21.187976       576.5541 
 504   0.0000      21.282065       579.1144 
 505   0.0000      21.282095       579.1152 
 506   0.0000      22.045778       599.8961 
 507   0.0000      22.045849       599.8981 
 508   0.0000      23.265826       633.0953 
 509   0.0000      23.265859       633.0962 
 510   0.0000      23.489568       639.1836 
 511   0.0000      23.632712       643.0788 
 512   0.0000      23.632716       643.0789 
 513   0.0000      23.938502       651.3998 
 514   0.0000      23.967389       652.1858 
 515   0.0000      23.967392       652.1859 
 516   0.0000      24.002743       653.1478 
 517   0.0000      24.002770       653.1486 
 518   0.0000      24.372303       663.2041 
 519   0.0000      25.676592       698.6956 
 520   0.0000      25.676605       698.6959 
 521   0.0000      26.072498       709.4687 
 522   0.0000      26.922289       732.5927 
 523   0.0000      28.684092       780.5338 
 524   0.0000      28.855189       785.1896 
 525   0.0000      28.855212       785.1902 
 526   0.0000      30.521170       830.5233 
 527   0.0000      32.235801       877.1807 
 528   0.0000      32.235803       877.1808 
 529   0.0000      34.535624       939.7621 
 530   0.0000      41.529952      1130.0874 
 531   0.0000      41.591372      1131.7588 
 532   0.0000      41.591435      1131.7605 
 533   0.0000      48.383102      1316.5711 
 534   0.0000      48.383129      1316.5719 
 535   0.0000      48.891370      1330.4018 
 536   0.0000      49.253605      1340.2587 
 537   0.0000      49.253660      1340.2602 
 538   0.0000      66.790040      1817.4494 
 539   0.0000      66.790044      1817.4495 
 540   0.0000      67.135001      1826.8362 
 541   0.0000      67.135003      1826.8363 
 542   0.0000      68.651645      1868.1062 
 543   0.0000      90.956430      2475.0503 
 544   0.0000      91.076209      2478.3096 
 545   0.0000      91.076215      2478.3098 
 546   0.0000      91.290433      2484.1390 
 547   0.0000      91.313452      2484.7653 
 548   0.0000      91.313464      2484.7657 
 549   0.0000      92.822758      2525.8356 
 550   0.0000      92.822816      2525.8372 
 551   0.0000      93.004218      2530.7734 
 552   0.0000     106.967870      2910.7437 
 553   0.0000     143.837768      3914.0247 

                    ********************************
                    * MULLIKEN POPULATION ANALYSIS *
                    ********************************

--------------------------------------------
MULLIKEN ATOMIC CHARGES AND SPIN POPULATIONS
--------------------------------------------
   0 N :    0.126563    0.000000
   1 H :    0.157946   -0.000000
   2 H :    0.159524   -0.000000
   3 H :    0.159504   -0.000000
   4 O :   -0.603536   -0.000000
Sum of atomic charges         :   -0.0000000
Sum of atomic spin populations:   -0.0000000

-----------------------------------------------------
MULLIKEN REDUCED ORBITAL CHARGES AND SPIN POPULATIONS
-----------------------------------------------------
CHARGE
  0 N s       :     3.196248  s :     3.196248
      pz      :     1.038080  p :     3.423912
      px      :     1.192715
      py      :     1.193117
      dz2     :    -0.001272  d :     0.237471
      dxz     :     0.114542
      dyz     :     0.114783
      dx2y2   :     0.004672
      dxy     :     0.004746
      f0      :    -0.000934  f :     0.012584
      f+1     :     0.006392
      f-1     :     0.006398
      f+2     :     0.000281
      f-2     :     0.000282
      f+3     :     0.000165
      f-3     :     0.000000
      g0      :    -0.000093  g :     0.002560
      g+1     :     0.001122
      g-1     :     0.001126
      g+2     :    -0.000008
      g-2     :    -0.000008
      g+3     :     0.000103
      g-3     :     0.000000
      g+4     :     0.000158
      g-4     :     0.000158
      h0      :     0.000142  h :     0.000662
      h+1     :     0.000242
      h-1     :     0.000243
      h+2     :    -0.000010
      h-2     :    -0.000010
      h+3     :     0.000003
      h-3     :    -0.000000
      h+4     :     0.000026
      h-4     :     0.000026
      h+5     :    -0.000001
      h-5     :    -0.000001
  1 H s       :     0.789782  s :     0.789782
      pz      :     0.026419  p :     0.047092
      px      :     0.018201
      py      :     0.002471
      dz2     :     0.004999  d :     0.006340
      dxz     :     0.002058
      dyz     :    -0.000244
      dx2y2   :     0.000910
      dxy     :    -0.001383
      f0      :     0.001438  f :    -0.001062
      f+1     :    -0.001028
      f-1     :    -0.000509
      f+2     :    -0.000068
      f-2     :     0.000145
      f+3     :     0.000096
      f-3     :    -0.001135
      g0      :     0.000130  g :    -0.000097
      g+1     :     0.000027
      g-1     :     0.000020
      g+2     :    -0.000187
      g-2     :     0.000021
      g+3     :    -0.000016
      g-3     :     0.000003
      g+4     :     0.000025
      g-4     :    -0.000120
  2 H s       :     0.788227  s :     0.788227
      pz      :     0.026430  p :     0.047005
      px      :     0.006370
      py      :     0.014205
      dz2     :     0.004978  d :     0.006354
      dxz     :     0.000354
      dyz     :     0.001512
      dx2y2   :    -0.000804
      dxy     :     0.000314
      f0      :     0.001447  f :    -0.001024
      f+1     :    -0.000628
      f-1     :    -0.000888
      f+2     :     0.000094
      f-2     :    -0.000009
      f+3     :     0.000095
      f-3     :    -0.001135
      g0      :     0.000134  g :    -0.000086
      g+1     :     0.000023
      g-1     :     0.000026
      g+2     :    -0.000029
      g-2     :    -0.000134
      g+3     :    -0.000015
      g-3     :     0.000004
      g+4     :    -0.000084
      g-4     :    -0.000011
  3 H s       :     0.788247  s :     0.788247
      pz      :     0.026429  p :     0.047006
      px      :     0.006370
      py      :     0.014206
      dz2     :     0.004978  d :     0.006354
      dxz     :     0.000354
      dyz     :     0.001512
      dx2y2   :    -0.000804
      dxy     :     0.000314
      f0      :     0.001447  f :    -0.001024
      f+1     :    -0.000628
      f-1     :    -0.000888
      f+2     :     0.000094
      f-2     :    -0.000009
      f+3     :     0.000095
      f-3     :    -0.001135
      g0      :     0.000134  g :    -0.000086
      g+1     :     0.000023
      g-1     :     0.000026
      g+2     :    -0.000029
      g-2     :    -0.000134
      g+3     :    -0.000015
      g-3     :     0.000004
      g+4     :    -0.000084
      g-4     :    -0.000011
  4 O s       :     4.002415  s :     4.002415
      pz      :     0.902028  p :     4.559513
      px      :     1.828808
      py      :     1.828677
      dz2     :     0.014380  d :     0.038422
      dxz     :     0.012036
      dyz     :     0.012078
      dx2y2   :    -0.000035
      dxy     :    -0.000037
      f0      :     0.002501  f :     0.003944
      f+1     :     0.001340
      f-1     :     0.001357
      f+2     :    -0.000623
      f-2     :    -0.000622
      f+3     :    -0.000009
      f-3     :    -0.000000
      g0      :     0.000492  g :    -0.000580
      g+1     :    -0.000187
      g-1     :    -0.000181
      g+2     :    -0.000344
      g-2     :    -0.000343
      g+3     :    -0.000030
      g-3     :    -0.000000
      g+4     :     0.000006
      g-4     :     0.000006
      h0      :     0.000073  h :    -0.000179
      h+1     :    -0.000051
      h-1     :    -0.000050
      h+2     :    -0.000071
      h-2     :    -0.000071
      h+3     :    -0.000016
      h-3     :    -0.000000
      h+4     :     0.000004
      h-4     :     0.000004
      h+5     :    -0.000000
      h-5     :    -0.000000

SPIN
  0 N s       :     0.000000  s :     0.000000
      pz      :     0.000000  p :     0.000000
      px      :     0.000000
      py      :     0.000000
      dz2     :     0.000000  d :     0.000000
      dxz     :    -0.000000
      dyz     :     0.000000
      dx2y2   :    -0.000000
      dxy     :     0.000000
      f0      :     0.000000  f :     0.000000
      f+1     :    -0.000000
      f-1     :     0.000000
      f+2     :    -0.000000
      f-2     :     0.000000
      f+3     :     0.000000
      f-3     :     0.000000
      g0      :     0.000000  g :     0.000000
      g+1     :     0.000000
      g-1     :     0.000000
      g+2     :     0.000000
      g-2     :     0.000000
      g+3     :    -0.000000
      g-3     :     0.000000
      g+4     :     0.000000
      g-4     :     0.000000
      h0      :     0.000000  h :     0.000000
      h+1     :    -0.000000
      h-1     :     0.000000
      h+2     :     0.000000
      h-2     :     0.000000
      h+3     :    -0.000000
      h-3     :     0.000000
      h+4     :     0.000000
      h-4     :     0.000000
      h+5     :     0.000000
      h-5     :    -0.000000
  1 H s       :    -0.000000  s :    -0.000000
      pz      :     0.000000  p :     0.000000
      px      :     0.000000
      py      :     0.000000
      dz2     :    -0.000000  d :    -0.000000
      dxz     :     0.000000
      dyz     :    -0.000000
      dx2y2   :    -0.000000
      dxy     :     0.000000
      f0      :     0.000000  f :    -0.000000
      f+1     :    -0.000000
      f-1     :    -0.000000
      f+2     :    -0.000000
      f-2     :    -0.000000
      f+3     :    -0.000000
      f-3     :     0.000000
      g0      :     0.000000  g :    -0.000000
      g+1     :    -0.000000
      g-1     :    -0.000000
      g+2     :    -0.000000
      g-2     :    -0.000000
      g+3     :    -0.000000
      g-3     :     0.000000
      g+4     :    -0.000000
      g-4     :     0.000000
  2 H s       :    -0.000000  s :    -0.000000
      pz      :    -0.000000  p :    -0.000000
      px      :    -0.000000
      py      :    -0.000000
      dz2     :    -0.000000  d :    -0.000000
      dxz     :    -0.000000
      dyz     :    -0.000000
      dx2y2   :    -0.000000
      dxy     :    -0.000000
      f0      :    -0.000000  f :    -0.000000
      f+1     :     0.000000
      f-1     :     0.000000
      f+2     :    -0.000000
      f-2     :    -0.000000
      f+3     :    -0.000000
      f-3     :    -0.000000
      g0      :    -0.000000  g :    -0.000000
      g+1     :     0.000000
      g-1     :    -0.000000
      g+2     :     0.000000
      g-2     :     0.000000
      g+3     :    -0.000000
      g-3     :    -0.000000
      g+4     :    -0.000000
      g-4     :    -0.000000
  3 H s       :    -0.000000  s :    -0.000000
      pz      :     0.000000  p :    -0.000000
      px      :    -0.000000
      py      :     0.000000
      dz2     :    -0.000000  d :    -0.000000
      dxz     :    -0.000000
      dyz     :    -0.000000
      dx2y2   :     0.000000
      dxy     :    -0.000000
      f0      :    -0.000000  f :    -0.000000
      f+1     :     0.000000
      f-1     :    -0.000000
      f+2     :    -0.000000
      f-2     :    -0.000000
      f+3     :    -0.000000
      f-3     :    -0.000000
      g0      :    -0.000000  g :    -0.000000
      g+1     :     0.000000
      g-1     :     0.000000
      g+2     :    -0.000000
      g-2     :    -0.000000
      g+3     :    -0.000000
      g-3     :    -0.000000
      g+4     :    -0.000000
      g-4     :     0.000000
  4 O s       :    -0.000000  s :    -0.000000
      pz      :    -0.000000  p :    -0.000000
      px      :     0.000000
      py      :    -0.000000
      dz2     :    -0.000000  d :    -0.000000
      dxz     :    -0.000000
      dyz     :     0.000000
      dx2y2   :     0.000000
      dxy     :     0.000000
      f0      :    -0.000000  f :    -0.000000
      f+1     :    -0.000000
      f-1     :     0.000000
      f+2     :     0.000000
      f-2     :     0.000000
      f+3     :     0.000000
      f-3     :     0.000000
      g0      :    -0.000000  g :    -0.000000
      g+1     :    -0.000000
      g-1     :     0.000000
      g+2     :     0.000000
      g-2     :    -0.000000
      g+3     :     0.000000
      g-3     :    -0.000000
      g+4     :     0.000000
      g-4     :     0.000000
      h0      :    -0.000000  h :    -0.000000
      h+1     :    -0.000000
      h-1     :     0.000000
      h+2     :     0.000000
      h-2     :    -0.000000
      h+3     :     0.000000
      h-3     :     0.000000
      h+4     :     0.000000
      h-4     :     0.000000
      h+5     :     0.000000
      h-5     :     0.000000


                     *******************************
                     * LOEWDIN POPULATION ANALYSIS *
                     *******************************

-------------------------------------------
LOEWDIN ATOMIC CHARGES AND SPIN POPULATIONS
-------------------------------------------
   0 N :    0.881039    0.000000
   1 H :   -0.445829    0.000000
   2 H :   -0.445813    0.000000
   3 H :   -0.445813   -0.000000
   4 O :    0.456417   -0.000000

----------------------------------------------------
LOEWDIN REDUCED ORBITAL CHARGES AND SPIN POPULATIONS
----------------------------------------------------
CHARGE
  0 N s       :     2.547374  s :     2.547374
      pz      :     0.837231  p :     2.539697
      px      :     0.851234
      py      :     0.851232
      dz2     :     0.193827  d :     0.728143
      dxz     :     0.230312
      dyz     :     0.230313
      dx2y2   :     0.036846
      dxy     :     0.036846
      f0      :     0.066415  f :     0.227946
      f+1     :     0.070288
      f-1     :     0.070289
      f+2     :     0.007562
      f-2     :     0.007562
      f+3     :     0.005829
      f-3     :     0.000000
      g0      :     0.017043  g :     0.053791
      g+1     :     0.017558
      g-1     :     0.017558
      g+2     :     0.000071
      g-2     :     0.000071
      g+3     :     0.000504
      g-3     :     0.000000
      g+4     :     0.000493
      g-4     :     0.000493
      h0      :     0.006631  h :     0.022011
      h+1     :     0.007002
      h-1     :     0.007002
      h+2     :     0.000087
      h-2     :     0.000087
      h+3     :     0.000460
      h-3     :     0.000000
      h+4     :     0.000345
      h-4     :     0.000345
      h+5     :     0.000026
      h-5     :     0.000026
  1 H s       :     0.553700  s :     0.553700
      pz      :     0.098831  p :     0.338219
      px      :     0.161000
      py      :     0.078388
      dz2     :     0.064832  d :     0.314004
      dxz     :     0.080764
      dyz     :     0.029528
      dx2y2   :     0.049076
      dxy     :     0.089804
      f0      :     0.025140  f :     0.156175
      f+1     :     0.042870
      f-1     :     0.017381
      f+2     :     0.020901
      f-2     :     0.018010
      f+3     :     0.007365
      f-3     :     0.024508
      g0      :     0.014193  g :     0.083732
      g+1     :     0.019884
      g-1     :     0.005408
      g+2     :     0.014172
      g-2     :     0.016474
      g+3     :     0.003786
      g-3     :     0.005007
      g+4     :     0.000841
      g-4     :     0.003967
  2 H s       :     0.553695  s :     0.553695
      pz      :     0.098828  p :     0.338212
      px      :     0.099038
      py      :     0.140345
      dz2     :     0.064830  d :     0.313999
      dxz     :     0.042336
      dyz     :     0.067955
      dx2y2   :     0.079620
      dxy     :     0.059258
      f0      :     0.025140  f :     0.156175
      f+1     :     0.023753
      f-1     :     0.036498
      f+2     :     0.018733
      f-2     :     0.020178
      f+3     :     0.007365
      f-3     :     0.024508
      g0      :     0.014193  g :     0.083732
      g+1     :     0.009027
      g-1     :     0.016265
      g+2     :     0.015899
      g-2     :     0.014748
      g+3     :     0.003786
      g-3     :     0.005007
      g+4     :     0.003185
      g-4     :     0.001622
  3 H s       :     0.553695  s :     0.553695
      pz      :     0.098828  p :     0.338212
      px      :     0.099038
      py      :     0.140345
      dz2     :     0.064830  d :     0.313999
      dxz     :     0.042336
      dyz     :     0.067955
      dx2y2   :     0.079620
      dxy     :     0.059258
      f0      :     0.025140  f :     0.156175
      f+1     :     0.023753
      f-1     :     0.036498
      f+2     :     0.018733
      f-2     :     0.020178
      f+3     :     0.007365
      f-3     :     0.024508
      g0      :     0.014193  g :     0.083732
      g+1     :     0.009027
      g-1     :     0.016265
      g+2     :     0.015899
      g-2     :     0.014748
      g+3     :     0.003786
      g-3     :     0.005007
      g+4     :     0.003185
      g-4     :     0.001622
  4 O s       :     3.151958  s :     3.151958
      pz      :     0.985321  p :     3.841476
      px      :     1.428079
      py      :     1.428077
      dz2     :     0.115108  d :     0.273327
      dxz     :     0.078193
      dyz     :     0.078193
      dx2y2   :     0.000916
      dxy     :     0.000916
      f0      :     0.038796  f :     0.165367
      f+1     :     0.060960
      f-1     :     0.060960
      f+2     :     0.002286
      f-2     :     0.002286
      f+3     :     0.000080
      f-3     :     0.000000
      g0      :     0.011030  g :     0.079143
      g+1     :     0.030502
      g-1     :     0.030502
      g+2     :     0.003362
      g-2     :     0.003362
      g+3     :     0.000311
      g-3     :     0.000000
      g+4     :     0.000037
      g-4     :     0.000037
      h0      :     0.002356  h :     0.032312
      h+1     :     0.011598
      h-1     :     0.011598
      h+2     :     0.002937
      h-2     :     0.002937
      h+3     :     0.000383
      h-3     :     0.000000
      h+4     :     0.000250
      h-4     :     0.000250
      h+5     :     0.000002
      h-5     :     0.000002

SPIN
  0 N s       :    -0.000000  s :    -0.000000
      pz      :     0.000000  p :     0.000000
      px      :     0.000000
      py      :     0.000000
      dz2     :     0.000000  d :     0.000000
      dxz     :    -0.000000
      dyz     :     0.000000
      dx2y2   :     0.000000
      dxy     :     0.000000
      f0      :     0.000000  f :     0.000000
      f+1     :    -0.000000
      f-1     :    -0.000000
      f+2     :    -0.000000
      f-2     :     0.000000
      f+3     :     0.000000
      f-3     :     0.000000
      g0      :     0.000000  g :     0.000000
      g+1     :     0.000000
      g-1     :    -0.000000
      g+2     :    -0.000000
      g-2     :    -0.000000
      g+3     :     0.000000
      g-3     :     0.000000
      g+4     :    -0.000000
      g-4     :    -0.000000
      h0      :    -0.000000  h :     0.000000
      h+1     :     0.000000
      h-1     :     0.000000
      h+2     :    -0.000000
      h-2     :    -0.000000
      h+3     :    -0.000000
      h-3     :    -0.000000
      h+4     :     0.000000
      h-4     :    -0.000000
      h+5     :    -0.000000
      h-5     :     0.000000
  1 H s       :     0.000000  s :     0.000000
      pz      :     0.000000  p :     0.000000
      px      :     0.000000
      py      :    -0.000000
      dz2     :    -0.000000  d :    -0.000000
      dxz     :    -0.000000
      dyz     :    -0.000000
      dx2y2   :    -0.000000
      dxy     :    -0.000000
      f0      :    -0.000000  f :    -0.000000
      f+1     :     0.000000
      f-1     :    -0.000000
      f+2     :    -0.000000
      f-2     :     0.000000
      f+3     :    -0.000000
      f-3     :    -0.000000
      g0      :    -0.000000  g :    -0.000000
      g+1     :    -0.000000
      g-1     :    -0.000000
      g+2     :    -0.000000
      g-2     :     0.000000
      g+3     :     0.000000
      g-3     :    -0.000000
      g+4     :    -0.000000
      g-4     :     0.000000
  2 H s       :     0.000000  s :     0.000000
      pz      :     0.000000  p :     0.000000
      px      :     0.000000
      py      :     0.000000
      dz2     :    -0.000000  d :    -0.000000
      dxz     :    -0.000000
      dyz     :    -0.000000
      dx2y2   :    -0.000000
      dxy     :    -0.000000
      f0      :    -0.000000  f :    -0.000000
      f+1     :     0.000000
      f-1     :     0.000000
      f+2     :     0.000000
      f-2     :    -0.000000
      f+3     :    -0.000000
      f-3     :    -0.000000
      g0      :     0.000000  g :    -0.000000
      g+1     :    -0.000000
      g-1     :    -0.000000
      g+2     :    -0.000000
      g-2     :    -0.000000
      g+3     :     0.000000
      g-3     :    -0.000000
      g+4     :     0.000000
      g-4     :    -0.000000
  3 H s       :    -0.000000  s :    -0.000000
      pz      :     0.000000  p :     0.000000
      px      :     0.000000
      py      :     0.000000
      dz2     :    -0.000000  d :    -0.000000
      dxz     :     0.000000
      dyz     :     0.000000
      dx2y2   :    -0.000000
      dxy     :    -0.000000
      f0      :    -0.000000  f :    -0.000000
      f+1     :     0.000000
      f-1     :     0.000000
      f+2     :     0.000000
      f-2     :    -0.000000
      f+3     :    -0.000000
      f-3     :    -0.000000
      g0      :    -0.000000  g :    -0.000000
      g+1     :     0.000000
      g-1     :    -0.000000
      g+2     :    -0.000000
      g-2     :    -0.000000
      g+3     :     0.000000
      g-3     :    -0.000000
      g+4     :     0.000000
      g-4     :     0.000000
  4 O s       :     0.000000  s :     0.000000
      pz      :    -0.000000  p :    -0.000000
      px      :    -0.000000
      py      :    -0.000000
      dz2     :     0.000000  d :     0.000000
      dxz     :     0.000000
      dyz     :    -0.000000
      dx2y2   :     0.000000
      dxy     :    -0.000000
      f0      :    -0.000000  f :     0.000000
      f+1     :     0.000000
      f-1     :     0.000000
      f+2     :     0.000000
      f-2     :    -0.000000
      f+3     :     0.000000
      f-3     :    -0.000000
      g0      :    -0.000000  g :    -0.000000
      g+1     :    -0.000000
      g-1     :    -0.000000
      g+2     :     0.000000
      g-2     :    -0.000000
      g+3     :     0.000000
      g-3     :     0.000000
      g+4     :     0.000000
      g-4     :    -0.000000
      h0      :     0.000000  h :     0.000000
      h+1     :    -0.000000
      h-1     :     0.000000
      h+2     :    -0.000000
      h-2     :     0.000000
      h+3     :     0.000000
      h-3     :    -0.000000
      h+4     :    -0.000000
      h-4     :    -0.000000
      h+5     :     0.000000
      h-5     :    -0.000000


                      *****************************
                      * MAYER POPULATION ANALYSIS *
                      *****************************

  NA   - Mulliken gross atomic population
  ZA   - Total nuclear charge
  QA   - Mulliken gross atomic charge
  VA   - Mayer's total valence
  BVA  - Mayer's bonded valence
  FA   - Mayer's free valence

  ATOM       NA         ZA         QA         VA         BVA        FA
  0 N      6.8734     7.0000     0.1266     4.0246     4.0246    -0.0000
  1 H      0.8421     1.0000     0.1579     0.9846     0.9846    -0.0000
  2 H      0.8405     1.0000     0.1595     0.9840     0.9840    -0.0000
  3 H      0.8405     1.0000     0.1595     0.9840     0.9840    -0.0000
  4 O      8.6035     8.0000    -0.6035     1.4442     1.4442    -0.0000

  Mayer bond orders larger than 0.1
B(  0-N ,  1-H ) :   0.9417 B(  0-N ,  2-H ) :   0.9409 B(  0-N ,  3-H ) :   0.9409 
B(  0-N ,  4-O ) :   1.2012 

-------
TIMINGS
-------

Total SCF time: 0 days 0 hours 47 min 13 sec 

Total time                  ....    2833.634 sec
Sum of individual times     ....    2831.766 sec  ( 99.9%)

Fock matrix formation       ....    2823.479 sec  ( 99.6%)
  XC integration            ....      45.637 sec  (  1.6% of F)
    Basis function eval.    ....       2.320 sec  (  5.1% of XC)
    Density eval.           ....      13.840 sec  ( 30.3% of XC)
    XC-Functional eval.     ....       0.184 sec  (  0.4% of XC)
    XC-Potential eval.      ....      28.645 sec  ( 62.8% of XC)
Diagonalization             ....       3.866 sec  (  0.1%)
Density matrix formation    ....       0.048 sec  (  0.0%)
Population analysis         ....       0.272 sec  (  0.0%)
Initial guess               ....       1.656 sec  (  0.1%)
Orbital Transformation      ....       0.000 sec  (  0.0%)
Orbital Orthonormalization  ....       0.000 sec  (  0.0%)
DIIS solution               ....       1.978 sec  (  0.1%)
Grid generation             ....       0.467 sec  (  0.0%)

-------------------------   --------------------
FINAL SINGLE POINT ENERGY      -131.611611792784
-------------------------   --------------------


                            ***************************************
                            *     ORCA property calculations      *
                            ***************************************

                                    ---------------------
                                    Active property flags
                                    ---------------------
   (+) Dipole Moment
   (+) Polarizability


------------------------------------------------------------------------------
                       ORCA ELECTRIC PROPERTIES CALCULATION
------------------------------------------------------------------------------

Dipole Moment Calculation                       ... on
Quadrupole Moment Calculation                   ... off
Polarizability Calculation                      ... Analytic (CP-SCF)
GBWName                                         ... nh3o_pbe.gbw
Electron density file                           ... nh3o_pbe.scfp.tmp
The origin for moment calculation is the CENTER OF MASS  = (-0.000000,  0.000000  0.158949)

-------------
DIPOLE MOMENT
-------------
                                X             Y             Z
Electronic contribution:     -0.00000      -0.00000       0.87519
Nuclear contribution   :     -0.00000       0.00000      -2.86109
                        -----------------------------------------
Total Dipole Moment    :     -0.00000      -0.00000      -1.98590
                        -----------------------------------------
Magnitude (a.u.)       :      1.98590
Magnitude (Debye)      :      5.04775



--------------------
Rotational spectrum 
--------------------
 
Rotational constants in cm-1:     6.231743     0.912307     0.912305 
Rotational constants in MHz : 186822.954115 27350.282852 27350.219786 

 Dipole components along the rotational axes: 
x,y,z [a.u.] :    -1.985897     0.000000    -0.000003 
x,y,z [Debye]:    -5.047750     0.000000    -0.000007 

 
Transforming and storing MO dipole integrals   ... done

                ... starting polarizability calculation

Opening the Dipole integral file               ... (nh3o_pbe.dmo.tmp) done
Reading Dipole-MO integrals                    ... done
Solving CP-SCF equations                       ... 

           ************************************************************
           *        Program running with 4 parallel MPI-processes     *
           *              working on a common directory               *
           ************************************************************

------------------------------------------------------------------------------
                           ORCA CP-SCF CALCULATION
------------------------------------------------------------------------------

Input orbitals are from        ... nh3o_pbe.gbw
Input Perturbation             ... nh3o_pbe.cpv.tmp
Wavefunction output            ... nh3o_pbe.cpu.tmp
Perturbation mode              ... Real perturbation (singlet)
Solver                         ... POPLE
Max. number of iterations      ... 200
Convergence tolerance          ... 1.000e-06
Integral handling              ... Direct
Number of perturbations        ... 3
Number of operators            ... 2
Orbital ranges used for CP-SCF:
 Operator 0:  Orbitals   0...  8  to   9...553
 Operator 1:  Orbitals   0...  8  to   9...553
DFT calculation                         ... on
Exchange functional (SCF)               ... PBE
Exchange functional (CP-SCF)            ... PBE
   PBE kappa parameter  XKappa (SCF)    ...  0.804000
   PBE kappa parameter  XKappa (CP-SCF) ...  0.804000
   PBE mue parameter   XMuePBE (SCF)    ...  0.219520
   PBE mue parameter   XMuePBE (CP-SCF) ...  0.219520
Correlation functional (SCF)            ... PBE
Correlation functional (CP-SCF)         ... PBE
   PBE beta parameter CBetaPBE (SCF)    ...  0.066725
   PBE beta parameter CBetaPBE (CP-SCF) ...  0.066725
 LDA part of GGA corr.  LDAOpt (SCF)    ... PW91-LDA
 LDA part of GGA corr.  LDAOpt (CP-SCF) ... PW91-LDA
Variables per vector in CP-SCF ... 9810
Number of vectors sought       ... 3
Recalculating density on grid  ... done
Calculating the xc-kernel      ... done
     CP-SCF ITERATION   0: 
     CP-SCF ITERATION   1:      0.382164923011
     CP-SCF ITERATION   2:      0.033181581106
     CP-SCF ITERATION   3:      0.001549600744
     CP-SCF ITERATION   4:      0.000044086890
     CP-SCF ITERATION   5:      0.000000747363
done
Reading CP-SCF coefficients                    ... done
Doing the polarizability tensor   ... done
Cleaning up                                    ... done

-------------------------
THE POLARIZABILITY TENSOR
-------------------------

The raw cartesian tensor (atomic units):
   20.73565     -0.00000     -0.00047  
   -0.00000     20.73584     -0.00000  
   -0.00047     -0.00000     30.13786  
diagonalized tensor: 
   20.73565     20.73584     30.13786  

    1.00000      0.00001     -0.00005  
    0.00001     -1.00000     -0.00000  
    0.00005     -0.00000      1.00000  

Isotropic polarizability :  23.86978


Timings for individual modules:

Sum of individual times         ...     4732.268 sec (=  78.871 min)
GTO integral calculation        ...        2.298 sec (=   0.038 min)   0.0 %
SCF iterations                  ...     2833.922 sec (=  47.232 min)  59.9 %
Solution of CP-SCF eqns.        ...     1896.048 sec (=  31.601 min)  40.1 %
                             ****ORCA TERMINATED NORMALLY****
TOTAL RUN TIME: 0 days 1 hours 18 minutes 53 seconds 284 msec
