
                                 *****************
                                 * O   R   C   A *
                                 *****************

           --- An Ab Initio, DFT and Semiempirical electronic structure package ---

                  #######################################################
                  #                        -***-                        #
                  #          Department of theory and spectroscopy      #
                  #               Directorship: Frank Neese             #
                  #        Max Planck Institute fuer Kohlenforschung    #
                  #                Kaiser Wilhelm Platz 1               #
                  #                 D-45470 Muelheim/Ruhr               #
                  #                      Germany                        #
                  #                                                     #
                  #                  All rights reserved                #
                  #                        -***-                        #
                  #######################################################


                         Program Version 4.1.2  - RELEASE  -


 With contributions from (in alphabetic order):
   Daniel Aravena         : Magnetic Properties
   Michael Atanasov       : Ab Initio Ligand Field Theory
   Alexander A. Auer      : GIAO ZORA
   Ute Becker             : Parallelization
   Giovanni Bistoni       : ED, Open-shell LED
   Martin Brehm           : Molecular dynamics
   Dmytro Bykov           : SCF Hessian
   Vijay G. Chilkuri      : MRCI spin determinant printing
   Dipayan Datta          : RHF DLPNO-CCSD density
   Achintya Kumar Dutta   : EOM-CC, STEOM-CC
   Dmitry Ganyushin       : Spin-Orbit,Spin-Spin,Magnetic field MRCI
   Miquel Garcia          : C-PCM Hessian
   Yang Guo               : DLPNO-NEVPT2, CIM, IAO-localization
   Andreas Hansen         : Spin unrestricted coupled pair/coupled cluster methods
   Benjamin Helmich-Paris : CASSCF linear response (MC-RPA)
   Lee Huntington         : MR-EOM, pCC
   Robert Izsak           : Overlap fitted RIJCOSX, COSX-SCS-MP3, EOM
   Christian Kollmar      : KDIIS, OOCD, Brueckner-CCSD(T), CCSD density
   Simone Kossmann        : Meta GGA functionals, TD-DFT gradient, OOMP2, MP2 Hessian
   Martin Krupicka        : AUTO-CI
   Lucas Lang             : DCDCAS
   Dagmar Lenk            : GEPOL surface, SMD
   Dimitrios Liakos       : Extrapolation schemes; parallel MDCI
   Dimitrios Manganas     : ROCIS; embedding schemes
   Dimitrios Pantazis     : SARC Basis sets
   Taras Petrenko         : DFT Hessian,TD-DFT gradient, ASA, ECA, R-Raman, ABS, FL, XAS/XES, NRVS
   Peter Pinski           : DLPNO-MP2, DLPNO-MP2 Gradient
   Christoph Reimann      : Effective Core Potentials
   Marius Retegan         : Local ZFS, SOC
   Christoph Riplinger    : Optimizer, TS searches, QM/MM, DLPNO-CCSD(T), (RO)-DLPNO pert. Triples
   Tobias Risthaus        : Range-separated hybrids, TD-DFT gradient, RPA, STAB
   Michael Roemelt        : Restricted open shell CIS
   Masaaki Saitow         : Open-shell DLPNO
   Barbara Sandhoefer     : DKH picture change effects
   Avijit Sen             : IP-ROCIS
   Kantharuban Sivalingam : CASSCF convergence, NEVPT2, FIC-MRCI
   Bernardo de Souza      : ESD, SOC TD-DFT
   Georgi Stoychev        : AutoAux, RI-MP2 NMR
   Willem Van den Heuvel  : Paramagnetic NMR
   Boris Wezisla          : Elementary symmetry handling
   Frank Wennmohs         : Technical directorship


 We gratefully acknowledge several colleagues who have allowed us to
 interface, adapt or use parts of their codes:
   Stefan Grimme, W. Hujo, H. Kruse,             : VdW corrections, initial TS optimization,
                  C. Bannwarth                     DFT functionals, gCP, sTDA/sTD-DF
   Ed Valeev                                     : LibInt (2-el integral package), F12 methods
   Garnet Chan, S. Sharma, J. Yang, R. Olivares  : DMRG
   Ulf Ekstrom                                   : XCFun DFT Library
   Mihaly Kallay                                 : mrcc  (arbitrary order and MRCC methods)
   Andreas Klamt, Michael Diedenhofen            : otool_cosmo (COSMO solvation model)
   Jiri Pittner, Ondrej Demel                    : Mk-CCSD
   Frank Weinhold                                : gennbo (NPA and NBO analysis)
   Christopher J. Cramer and Donald G. Truhlar   : smd solvation model
   Lars Goerigk                                  : TD-DFT with DH, B97 family of functionals
   V. Asgeirsson, H. Jonsson                     : NEB implementation
   FAccTs GmbH                                   : IRC, NEB, NEB-TS, Multilevel


 Your calculation uses the libint2 library for the computation of 2-el integrals
 For citations please refer to: http://libint.valeyev.net

 This ORCA versions uses:
   CBLAS   interface :  Fast vector & matrix operations
   LAPACKE interface :  Fast linear algebra routines
   SCALAPACK package :  Parallel linear algebra routines


----- Orbital basis set information -----
Your calculation utilizes the basis: aug-pc-4
   H, C-F              : F. Jensen, J. Chem. Phys. 115, 9113 (2001).
                         F. Jensen, J. Chem. Phys. 116, 7372 (2002).
                         F. Jensen, J. Chem. Phys. 117, 9234 (2002).
   Si-Cl               : F. Jensen, T. Helgaker, J. Chem. Phys. 121, 3463 (2004).
   He-B, Ne-Mg, Al, Ar : F. Jensen, J. Phys. Chem. A 111, 11198 (2007).
   K, Ca, Ga-Kr        : F. Jensen, J. Chem. Phys. 136, 094110 (2012).
   Sc-Zn               : F. Jensen, J. Chem. Phys. 138, 014107 (2013).

================================================================================
                                        WARNINGS
                       Please study these warnings very carefully!
================================================================================


INFO   : the flag for use of LIBINT has been found!

================================================================================
                                       INPUT FILE
================================================================================
NAME = nocl_pbe.inp
|  1> !uks pbe nori aug-pc-4 grid5 nofinalgrid verytightscf
|  2> 
|  3> %maxcore 1500
|  4> 
|  5> %pal nprocs 4 end
|  6> 
|  7> %scf
|  8> 	maxiter 200
|  9> end
| 10> %elprop
| 11> 	dipole true
| 12> 	 polar 1
| 13> 	 maxiter 200
| 14> end
| 15> 
| 16> * xyz 0 1
| 17> Cl -0.5312 -0.9298 0.0000
| 18> N 0.0000 0.9724 0.0000
| 19> O 1.1287 1.1250 0.0000
| 20> *
| 21> 
| 22>                          ****END OF INPUT****
================================================================================

                       ****************************
                       * Single Point Calculation *
                       ****************************

---------------------------------
CARTESIAN COORDINATES (ANGSTROEM)
---------------------------------
  Cl    -0.531200   -0.929800    0.000000
  N      0.000000    0.972400    0.000000
  O      1.128700    1.125000    0.000000

----------------------------
CARTESIAN COORDINATES (A.U.)
----------------------------
  NO LB      ZA    FRAG     MASS         X           Y           Z
   0 Cl   17.0000    0    35.453   -1.003823   -1.757067    0.000000
   1 N     7.0000    0    14.007    0.000000    1.837570    0.000000
   2 O     8.0000    0    15.999    2.132934    2.125942    0.000000

--------------------------------
INTERNAL COORDINATES (ANGSTROEM)
--------------------------------
 Cl     0   0   0     0.000000000000     0.00000000     0.00000000
 N      1   0   0     1.974978045448     0.00000000     0.00000000
 O      2   1   0     1.138969029430   113.30237807     0.00000000

---------------------------
INTERNAL COORDINATES (A.U.)
---------------------------
 Cl     0   0   0     0.000000000000     0.00000000     0.00000000
 N      1   0   0     3.732167626403     0.00000000     0.00000000
 O      2   1   0     2.152339540640   113.30237807     0.00000000

---------------------
BASIS SET INFORMATION
---------------------
There are 3 groups of distinct atoms

 Group   1 Type Cl  : 44s27p7d4f3g2h contracted to 8s7p7d4f3g2h pattern {15121211111/111111111/1111111/1111/111/11}
 Group   2 Type N   : 27s12p7d4f3g2h contracted to 9s8p7d4f3g2h pattern {1191111111/51111111/1111111/1111/111/11}
 Group   3 Type O   : 27s12p7d4f3g2h contracted to 9s8p7d4f3g2h pattern {1191111111/51111111/1111111/1111/111/11}

Atom   0Cl   basis set group =>   1
Atom   1N    basis set group =>   2
Atom   2O    basis set group =>   3


           ************************************************************
           *        Program running with 4 parallel MPI-processes     *
           *              working on a common directory               *
           ************************************************************
------------------------------------------------------------------------------
                           ORCA GTO INTEGRAL CALCULATION
------------------------------------------------------------------------------

                         BASIS SET STATISTICS AND STARTUP INFO

 # of primitive gaussian shells          ...  197
 # of primitive gaussian functions       ...  587
 # of contracted shells                  ...   97
 # of contracted basis functions         ...  431
 Highest angular momentum                ...    5
 Maximum contraction depth               ...   15
 Integral package used                   ... LIBINT
 Integral threshhold            Thresh   ...  1.000e-12
 Primitive cut-off              TCut     ...  1.000e-14


------------------------------ INTEGRAL EVALUATION ----------------------------


 * One electron integrals 
 Pre-screening matrix                    ... done
 Shell pair data                         ... done (   0.002 sec)



           ************************************************************
           *        Program running with 4 parallel MPI-processes     *
           *              working on a common directory               *
           ************************************************************
-------------------------------------------------------------------------------
                                 ORCA SCF
-------------------------------------------------------------------------------

------------
SCF SETTINGS
------------
Hamiltonian:
 Density Functional     Method          .... DFT(GTOs)
 Exchange Functional    Exchange        .... PBE
   PBE kappa parameter   XKappa         ....  0.804000
   PBE mue parameter    XMuePBE         ....  0.219520
 Correlation Functional Correlation     .... PBE
   PBE beta parameter  CBetaPBE         ....  0.066725
 LDA part of GGA corr.  LDAOpt          .... PW91-LDA
 Gradients option       PostSCFGGA      .... off
   Density functional embedding theory  .... OFF
   NL short-range parameter             ....  6.400000


General Settings:
 Integral files         IntName         .... nocl_pbe
 Hartree-Fock type      HFTyp           .... UHF
 Total Charge           Charge          ....    0
 Multiplicity           Mult            ....    1
 Number of Electrons    NEL             ....   32
 Basis Dimension        Dim             ....  431
 Nuclear Repulsion      ENuc            ....     85.1484193745 Eh

Convergence Acceleration:
 DIIS                   CNVDIIS         .... on
   Start iteration      DIISMaxIt       ....    12
   Startup error        DIISStart       ....  0.200000
   # of expansion vecs  DIISMaxEq       ....     5
   Bias factor          DIISBfac        ....   1.050
   Max. coefficient     DIISMaxC        ....  10.000
 Newton-Raphson         CNVNR           .... off
 SOSCF                  CNVSOSCF        .... off
 Level Shifting         CNVShift        .... on
   Level shift para.    LevelShift      ....    0.2500
   Turn off err/grad.   ShiftErr        ....    0.0010
 Zerner damping         CNVZerner       .... off
 Static damping         CNVDamp         .... on
   Fraction old density DampFac         ....    0.7000
   Max. Damping (<1)    DampMax         ....    0.9800
   Min. Damping (>=0)   DampMin         ....    0.0000
   Turn off err/grad.   DampErr         ....    0.1000
 Fernandez-Rico         CNVRico         .... off

SCF Procedure:
 Maximum # iterations   MaxIter         ....   200
 SCF integral mode      SCFMode         .... Direct
   Integral package                     .... LIBINT
 Reset frequency        DirectResetFreq ....    20
 Integral Threshold     Thresh          ....  1.000e-12 Eh
 Primitive CutOff       TCut            ....  1.000e-14 Eh

Convergence Tolerance:
 Convergence Check Mode ConvCheckMode   .... Total+1el-Energy
 Convergence forced     ConvForced      .... 0
 Energy Change          TolE            ....  1.000e-09 Eh
 1-El. energy change                    ....  1.000e-06 Eh
 DIIS Error             TolErr          ....  1.000e-08


Diagonalization of the overlap matrix:
Smallest eigenvalue                        ... 1.408e-06
Time for diagonalization                   ...    0.114 sec
Threshold for overlap eigenvalues          ... 1.000e-08
Number of eigenvalues below threshold      ... 0
Time for construction of square roots      ...    0.029 sec
Total time needed                          ...    0.144 sec

-------------------
DFT GRID GENERATION
-------------------

General Integration Accuracy     IntAcc      ...  5.010
Radial Grid Type                 RadialGrid  ... Gauss-Chebyshev
Angular Grid (max. acc.)         AngularGrid ... Lebedev-434
Angular grid pruning method      GridPruning ... 3 (G Style)
Weight generation scheme         WeightScheme... Becke
Basis function cutoff            BFCut       ...    1.0000e-12
Integration weight cutoff        WCut        ...    1.0000e-14
Grids for H and He will be reduced by one unit

# of grid points (after initial pruning)     ...  33316 (   0.0 sec)
# of grid points (after weights+screening)   ...  33076 (   0.0 sec)
nearest neighbour list constructed           ...    0.0 sec
Grid point re-assignment to atoms done       ...    0.0 sec
Grid point division into batches done        ...    0.3 sec
Reduced shell lists constructed in    0.4 sec

Total number of grid points                  ...    33076
Total number of batches                      ...      519
Average number of points per batch           ...       63
Average number of grid points per atom       ...    11025
Average number of shells per batch           ...    58.02 (59.81%)
Average number of basis functions per batch  ...   268.11 (62.21%)
Average number of large shells per batch     ...    49.11 (84.64%)
Average number of large basis fcns per batch ...   227.47 (84.84%)
Maximum spatial batch extension              ...  15.72, 16.23, 15.35 au
Average spatial batch extension              ...   1.09,  1.04,  1.10 au

Time for grid setup =    0.420 sec

------------------------------
INITIAL GUESS: MODEL POTENTIAL
------------------------------
Loading Hartree-Fock densities                     ... done
Calculating cut-offs                               ... done
Setting up the integral package                    ... done
Initializing the effective Hamiltonian             ... done
Starting the Coulomb interaction                   ... done (   0.0 sec)
Reading the grid                                   ... done
Mapping shells                                     ... done
Starting the XC term evaluation                    ... done (   0.6 sec)
  promolecular density results
     # of electrons  =     32.000001254
     EX              =    -41.989927386
     EC              =     -1.162894615
     EX+EC           =    -43.152822001
Transforming the Hamiltonian                       ... done (   0.0 sec)
Diagonalizing the Hamiltonian                      ... done (   0.0 sec)
Back transforming the eigenvectors                 ... done (   0.0 sec)
Now organizing SCF variables                       ... done
                      ------------------
                      INITIAL GUESS DONE (   1.3 sec)
                      ------------------
--------------
SCF ITERATIONS
--------------
ITER       Energy         Delta-E        Max-DP      RMS-DP      [F,P]     Damp
               ***  Starting incremental Fock matrix formation  ***
  0   -589.8333931044   0.000000000000 0.02331864  0.00015618  0.1513315 0.7000
  1   -589.8631481350  -0.029755030604 0.00799906  0.00009241  0.0391235 0.7000
                               ***Turning on DIIS***
  2   -589.8664963599  -0.003348224964 0.01299912  0.00013332  0.0314773 0.0000
  3   -589.8811659726  -0.014669612625 0.00839346  0.00009834  0.0307879 0.0000
  4   -589.8812356703  -0.000069697698 0.01066434  0.00004675  0.0346837 0.0000
  5   -589.8831542874  -0.001918617106 0.00186661  0.00001691  0.0203238 0.0000
  6   -589.8836241115  -0.000469824167 0.00077768  0.00000823  0.0102753 0.0000
  7   -589.8838043217  -0.000180210198 0.00047643  0.00000503  0.0061425 0.0000
  8   -589.8838591686  -0.000054846900 0.00024155  0.00000289  0.0022740 0.0000
  9   -589.8838712157  -0.000012047028 0.00021124  0.00000282  0.0008341 0.0000
 10   -589.8838719344  -0.000000718721 0.00006488  0.00000086  0.0006423 0.0000
 11   -589.8838727676  -0.000000833184 0.00002541  0.00000025  0.0001703 0.0000
 12   -589.8838728310  -0.000000063416 0.00001211  0.00000011  0.0000287 0.0000
 13   -589.8838728340  -0.000000002983 0.00001219  0.00000007  0.0000135 0.0000
 14   -589.8838728345  -0.000000000527 0.00000675  0.00000004  0.0000043 0.0000
 15   -589.8838728345  -0.000000000053 0.00000417  0.00000003  0.0000013 0.0000
 16   -589.8838728345   0.000000000013 0.00000354  0.00000002  0.0000014 0.0000
 17   -589.8838728345   0.000000000004 0.00001142  0.00000006  0.0000001 0.0000
                 **** Energy Check signals convergence ****

               *****************************************************
               *                     SUCCESS                       *
               *           SCF CONVERGED AFTER  18 CYCLES          *
               *****************************************************


----------------
TOTAL SCF ENERGY
----------------

Total Energy       :         -589.88387283 Eh          -16051.55623 eV

Components:
Nuclear Repulsion  :           85.14841937 Eh            2317.00629 eV
Electronic Energy  :         -675.03229221 Eh          -18368.56251 eV
One Electron Energy:         -981.60471058 Eh          -26710.82213 eV
Two Electron Energy:          306.57241837 Eh            8342.25962 eV

Virial components:
Potential Energy   :        -1179.00282227 Eh          -32082.29783 eV
Kinetic Energy     :          589.11894944 Eh           16030.74160 eV
Virial Ratio       :            2.00129842


DFT components:
N(Alpha)           :       16.000000702131 electrons
N(Beta)            :       16.000000702131 electrons
N(Total)           :       32.000001404262 electrons
E(X)               :      -42.095560010859 Eh       
E(C)               :       -1.162392894493 Eh       
E(XC)              :      -43.257952905352 Eh       
DFET-embed. en.    :        0.000000000000 Eh       

---------------
SCF CONVERGENCE
---------------

  Last Energy change         ...   -2.3078e-11  Tolerance :   1.0000e-09
  Last MAX-Density change    ...    4.3445e-06  Tolerance :   1.0000e-08
  Last RMS-Density change    ...    4.2650e-08  Tolerance :   1.0000e-09
  Last DIIS Error            ...    8.3378e-08  Tolerance :   1.0000e-08

             **** THE GBW FILE WAS UPDATED (nocl_pbe.gbw) ****
             **** DENSITY FILE WAS UPDATED (nocl_pbe.scfp.tmp) ****
             **** ENERGY FILE WAS UPDATED (nocl_pbe.en.tmp) ****
----------------------
UHF SPIN CONTAMINATION
----------------------

Warning: in a DFT calculation there is little theoretical justification to 
         calculate <S**2> as in Hartree-Fock theory. We will do it anyways
         but you should keep in mind that the values have only limited relevance

Expectation value of <S**2>     :    -0.000000
Ideal value S*(S+1) for S=0.0   :     0.000000
Deviation                       :    -0.000000

----------------
ORBITAL ENERGIES
----------------
                 SPIN UP ORBITALS
  NO   OCC          E(Eh)            E(eV) 
   0   1.0000    -100.651265     -2738.8602 
   1   1.0000     -18.917685      -514.7764 
   2   1.0000     -14.200110      -386.4046 
   3   1.0000      -9.174519      -249.6514 
   4   1.0000      -6.995598      -190.3599 
   5   1.0000      -6.989446      -190.1925 
   6   1.0000      -6.986684      -190.1173 
   7   1.0000      -1.207328       -32.8531 
   8   1.0000      -0.757895       -20.6234 
   9   1.0000      -0.639853       -17.4113 
  10   1.0000      -0.516842       -14.0640 
  11   1.0000      -0.514081       -13.9889 
  12   1.0000      -0.482910       -13.1406 
  13   1.0000      -0.291239        -7.9250 
  14   1.0000      -0.280635        -7.6365 
  15   1.0000      -0.273034        -7.4296 
  16   0.0000      -0.183177        -4.9845 
  17   0.0000      -0.120563        -3.2807 
  18   0.0000      -0.007911        -0.2153 
  19   0.0000       0.012993         0.3536 
  20   0.0000       0.018933         0.5152 
  21   0.0000       0.019480         0.5301 
  22   0.0000       0.044777         1.2184 
  23   0.0000       0.046345         1.2611 
  24   0.0000       0.047486         1.2922 
  25   0.0000       0.051748         1.4081 
  26   0.0000       0.055235         1.5030 
  27   0.0000       0.075214         2.0467 
  28   0.0000       0.084598         2.3020 
  29   0.0000       0.095466         2.5978 
  30   0.0000       0.108682         2.9574 
  31   0.0000       0.110886         3.0174 
  32   0.0000       0.123802         3.3688 
  33   0.0000       0.132326         3.6008 
  34   0.0000       0.134351         3.6559 
  35   0.0000       0.144160         3.9228 
  36   0.0000       0.148170         4.0319 
  37   0.0000       0.154093         4.1931 
  38   0.0000       0.155012         4.2181 
  39   0.0000       0.161344         4.3904 
  40   0.0000       0.169774         4.6198 
  41   0.0000       0.177864         4.8399 
  42   0.0000       0.184160         5.0113 
  43   0.0000       0.186264         5.0685 
  44   0.0000       0.214701         5.8423 
  45   0.0000       0.215802         5.8723 
  46   0.0000       0.225750         6.1430 
  47   0.0000       0.227584         6.1929 
  48   0.0000       0.247485         6.7344 
  49   0.0000       0.248917         6.7734 
  50   0.0000       0.264308         7.1922 
  51   0.0000       0.271330         7.3833 
  52   0.0000       0.273872         7.4524 
  53   0.0000       0.285758         7.7759 
  54   0.0000       0.287922         7.8347 
  55   0.0000       0.299839         8.1590 
  56   0.0000       0.306555         8.3418 
  57   0.0000       0.319864         8.7039 
  58   0.0000       0.320549         8.7226 
  59   0.0000       0.325580         8.8595 
  60   0.0000       0.341362         9.2889 
  61   0.0000       0.350920         9.5490 
  62   0.0000       0.359058         9.7705 
  63   0.0000       0.360047         9.7974 
  64   0.0000       0.374085        10.1794 
  65   0.0000       0.386732        10.5235 
  66   0.0000       0.388019        10.5585 
  67   0.0000       0.394212        10.7271 
  68   0.0000       0.402610        10.9556 
  69   0.0000       0.407880        11.0990 
  70   0.0000       0.417286        11.3549 
  71   0.0000       0.419289        11.4094 
  72   0.0000       0.424952        11.5635 
  73   0.0000       0.432624        11.7723 
  74   0.0000       0.436121        11.8675 
  75   0.0000       0.447037        12.1645 
  76   0.0000       0.455365        12.3911 
  77   0.0000       0.463810        12.6209 
  78   0.0000       0.468388        12.7455 
  79   0.0000       0.488503        13.2928 
  80   0.0000       0.491251        13.3676 
  81   0.0000       0.494642        13.4599 
  82   0.0000       0.510092        13.8803 
  83   0.0000       0.512105        13.9351 
  84   0.0000       0.536758        14.6059 
  85   0.0000       0.548250        14.9187 
  86   0.0000       0.557280        15.1644 
  87   0.0000       0.567580        15.4446 
  88   0.0000       0.577082        15.7032 
  89   0.0000       0.588828        16.0228 
  90   0.0000       0.599062        16.3013 
  91   0.0000       0.614690        16.7266 
  92   0.0000       0.619092        16.8464 
  93   0.0000       0.620651        16.8888 
  94   0.0000       0.627990        17.0885 
  95   0.0000       0.642849        17.4928 
  96   0.0000       0.645426        17.5629 
  97   0.0000       0.649204        17.6657 
  98   0.0000       0.654899        17.8207 
  99   0.0000       0.655187        17.8285 
 100   0.0000       0.671372        18.2690 
 101   0.0000       0.673315        18.3218 
 102   0.0000       0.686440        18.6790 
 103   0.0000       0.695954        18.9379 
 104   0.0000       0.699362        19.0306 
 105   0.0000       0.704674        19.1752 
 106   0.0000       0.723729        19.6937 
 107   0.0000       0.736656        20.0454 
 108   0.0000       0.756310        20.5802 
 109   0.0000       0.772251        21.0140 
 110   0.0000       0.777387        21.1538 
 111   0.0000       0.778952        21.1964 
 112   0.0000       0.798429        21.7264 
 113   0.0000       0.799305        21.7502 
 114   0.0000       0.811862        22.0919 
 115   0.0000       0.819872        22.3098 
 116   0.0000       0.828418        22.5424 
 117   0.0000       0.829380        22.5686 
 118   0.0000       0.833101        22.6698 
 119   0.0000       0.836864        22.7722 
 120   0.0000       0.857446        23.3323 
 121   0.0000       0.861543        23.4438 
 122   0.0000       0.874813        23.8049 
 123   0.0000       0.882024        24.0011 
 124   0.0000       0.897329        24.4176 
 125   0.0000       0.901368        24.5275 
 126   0.0000       0.903801        24.5937 
 127   0.0000       0.909875        24.7590 
 128   0.0000       0.916564        24.9410 
 129   0.0000       0.917555        24.9679 
 130   0.0000       0.927696        25.2439 
 131   0.0000       0.930738        25.3267 
 132   0.0000       0.933371        25.3983 
 133   0.0000       0.940664        25.5968 
 134   0.0000       0.949439        25.8355 
 135   0.0000       0.960719        26.1425 
 136   0.0000       0.963810        26.2266 
 137   0.0000       1.002809        27.2878 
 138   0.0000       1.005852        27.3706 
 139   0.0000       1.012774        27.5590 
 140   0.0000       1.021971        27.8092 
 141   0.0000       1.024767        27.8853 
 142   0.0000       1.033818        28.1316 
 143   0.0000       1.043556        28.3966 
 144   0.0000       1.048685        28.5362 
 145   0.0000       1.065515        28.9941 
 146   0.0000       1.088151        29.6101 
 147   0.0000       1.093302        29.7503 
 148   0.0000       1.099050        29.9067 
 149   0.0000       1.116424        30.3794 
 150   0.0000       1.124824        30.6080 
 151   0.0000       1.135387        30.8955 
 152   0.0000       1.138538        30.9812 
 153   0.0000       1.161285        31.6002 
 154   0.0000       1.164087        31.6764 
 155   0.0000       1.171678        31.8830 
 156   0.0000       1.178118        32.0582 
 157   0.0000       1.208111        32.8744 
 158   0.0000       1.222376        33.2626 
 159   0.0000       1.223183        33.2845 
 160   0.0000       1.234931        33.6042 
 161   0.0000       1.242539        33.8112 
 162   0.0000       1.247176        33.9374 
 163   0.0000       1.271771        34.6066 
 164   0.0000       1.272461        34.6254 
 165   0.0000       1.303204        35.4620 
 166   0.0000       1.313653        35.7463 
 167   0.0000       1.340565        36.4786 
 168   0.0000       1.361826        37.0572 
 169   0.0000       1.433334        39.0030 
 170   0.0000       1.436996        39.1027 
 171   0.0000       1.482668        40.3454 
 172   0.0000       1.496871        40.7319 
 173   0.0000       1.546927        42.0940 
 174   0.0000       1.551409        42.2160 
 175   0.0000       1.566128        42.6165 
 176   0.0000       1.574773        42.8517 
 177   0.0000       1.594957        43.4010 
 178   0.0000       1.662232        45.2316 
 179   0.0000       1.664669        45.2980 
 180   0.0000       1.715051        46.6689 
 181   0.0000       1.716102        46.6975 
 182   0.0000       1.763461        47.9862 
 183   0.0000       1.768714        48.1291 
 184   0.0000       1.792346        48.7722 
 185   0.0000       1.822570        49.5946 
 186   0.0000       1.834747        49.9260 
 187   0.0000       1.866282        50.7841 
 188   0.0000       1.892281        51.4916 
 189   0.0000       1.904815        51.8327 
 190   0.0000       1.941713        52.8367 
 191   0.0000       1.972698        53.6798 
 192   0.0000       2.014528        54.8181 
 193   0.0000       2.045054        55.6488 
 194   0.0000       2.051641        55.8280 
 195   0.0000       2.095693        57.0267 
 196   0.0000       2.144671        58.3595 
 197   0.0000       2.146805        58.4175 
 198   0.0000       2.183989        59.4294 
 199   0.0000       2.214764        60.2668 
 200   0.0000       2.234674        60.8086 
 201   0.0000       2.282386        62.1069 
 202   0.0000       2.334834        63.5341 
 203   0.0000       2.364523        64.3419 
 204   0.0000       2.370790        64.5125 
 205   0.0000       2.393239        65.1234 
 206   0.0000       2.421051        65.8801 
 207   0.0000       2.471880        67.2633 
 208   0.0000       2.503226        68.1162 
 209   0.0000       2.525216        68.7146 
 210   0.0000       2.684376        73.0456 
 211   0.0000       2.745092        74.6977 
 212   0.0000       2.805726        76.3477 
 213   0.0000       2.831014        77.0358 
 214   0.0000       2.861244        77.8584 
 215   0.0000       2.880817        78.3910 
 216   0.0000       2.889808        78.6357 
 217   0.0000       2.933844        79.8340 
 218   0.0000       2.966702        80.7281 
 219   0.0000       2.983774        81.1926 
 220   0.0000       3.015036        82.0433 
 221   0.0000       3.103903        84.4615 
 222   0.0000       3.118356        84.8548 
 223   0.0000       3.167987        86.2053 
 224   0.0000       3.202109        87.1338 
 225   0.0000       3.217797        87.5607 
 226   0.0000       3.342044        90.9416 
 227   0.0000       3.368268        91.6552 
 228   0.0000       3.402175        92.5779 
 229   0.0000       3.657570        99.5275 
 230   0.0000       3.683987       100.2464 
 231   0.0000       3.685240       100.2805 
 232   0.0000       3.722409       101.2919 
 233   0.0000       3.750233       102.0490 
 234   0.0000       3.812953       103.7557 
 235   0.0000       3.886556       105.7586 
 236   0.0000       3.894024       105.9618 
 237   0.0000       3.956196       107.6536 
 238   0.0000       3.987611       108.5084 
 239   0.0000       4.038738       109.8996 
 240   0.0000       4.070632       110.7675 
 241   0.0000       4.110753       111.8593 
 242   0.0000       4.122923       112.1904 
 243   0.0000       4.139416       112.6392 
 244   0.0000       4.292326       116.8001 
 245   0.0000       4.308590       117.2427 
 246   0.0000       4.380108       119.1888 
 247   0.0000       4.422884       120.3528 
 248   0.0000       4.475930       121.7962 
 249   0.0000       4.537613       123.4747 
 250   0.0000       4.572507       124.4242 
 251   0.0000       4.581186       124.6604 
 252   0.0000       4.686369       127.5226 
 253   0.0000       4.795365       130.4885 
 254   0.0000       4.847520       131.9077 
 255   0.0000       4.885008       132.9278 
 256   0.0000       4.902726       133.4100 
 257   0.0000       4.962036       135.0239 
 258   0.0000       5.043520       137.2412 
 259   0.0000       5.076152       138.1291 
 260   0.0000       5.135875       139.7543 
 261   0.0000       5.192352       141.2911 
 262   0.0000       5.248229       142.8116 
 263   0.0000       5.299482       144.2062 
 264   0.0000       5.318099       144.7128 
 265   0.0000       5.364884       145.9859 
 266   0.0000       5.412359       147.2778 
 267   0.0000       5.605049       152.5211 
 268   0.0000       5.645869       153.6319 
 269   0.0000       5.678136       154.5099 
 270   0.0000       5.685717       154.7162 
 271   0.0000       5.686735       154.7439 
 272   0.0000       5.687678       154.7696 
 273   0.0000       5.706251       155.2750 
 274   0.0000       5.751299       156.5008 
 275   0.0000       5.759109       156.7133 
 276   0.0000       5.814959       158.2331 
 277   0.0000       5.817000       158.2886 
 278   0.0000       5.844622       159.0402 
 279   0.0000       5.869869       159.7273 
 280   0.0000       5.874102       159.8424 
 281   0.0000       5.908251       160.7717 
 282   0.0000       5.994661       163.1230 
 283   0.0000       6.009826       163.5357 
 284   0.0000       6.072292       165.2355 
 285   0.0000       6.108813       166.2293 
 286   0.0000       6.110933       166.2869 
 287   0.0000       6.180966       168.1926 
 288   0.0000       6.391943       173.9336 
 289   0.0000       6.424786       174.8273 
 290   0.0000       6.550864       178.2581 
 291   0.0000       6.579981       179.0504 
 292   0.0000       6.648866       180.9248 
 293   0.0000       6.671618       181.5439 
 294   0.0000       6.880222       187.2204 
 295   0.0000       6.922666       188.3753 
 296   0.0000       6.923523       188.3986 
 297   0.0000       6.950425       189.1307 
 298   0.0000       7.205461       196.0706 
 299   0.0000       7.404628       201.4902 
 300   0.0000       7.461908       203.0488 
 301   0.0000       7.626834       207.5367 
 302   0.0000       7.744592       210.7411 
 303   0.0000       7.835832       213.2238 
 304   0.0000       8.237247       224.1469 
 305   0.0000       8.319091       226.3740 
 306   0.0000       8.452504       230.0043 
 307   0.0000       8.929982       242.9972 
 308   0.0000       9.080398       247.0902 
 309   0.0000       9.111305       247.9312 
 310   0.0000       9.114053       248.0060 
 311   0.0000       9.133864       248.5451 
 312   0.0000       9.151321       249.0201 
 313   0.0000       9.198106       250.2932 
 314   0.0000       9.222247       250.9501 
 315   0.0000       9.258242       251.9296 
 316   0.0000       9.346177       254.3224 
 317   0.0000       9.402645       255.8590 
 318   0.0000       9.475880       257.8518 
 319   0.0000       9.596937       261.1459 
 320   0.0000       9.813550       267.0403 
 321   0.0000      10.205333       277.7012 
 322   0.0000      10.278929       279.7039 
 323   0.0000      10.355249       281.7806 
 324   0.0000      10.692616       290.9609 
 325   0.0000      10.891521       296.3733 
 326   0.0000      10.935969       297.5828 
 327   0.0000      10.957508       298.1690 
 328   0.0000      10.997733       299.2635 
 329   0.0000      11.016453       299.7729 
 330   0.0000      11.076442       301.4053 
 331   0.0000      11.123555       302.6873 
 332   0.0000      11.139000       303.1076 
 333   0.0000      11.141033       303.1629 
 334   0.0000      11.272062       306.7284 
 335   0.0000      11.274683       306.7997 
 336   0.0000      11.346514       308.7543 
 337   0.0000      11.352067       308.9054 
 338   0.0000      11.493305       312.7487 
 339   0.0000      11.744580       319.5863 
 340   0.0000      11.812221       321.4269 
 341   0.0000      11.924061       324.4702 
 342   0.0000      11.924333       324.4776 
 343   0.0000      11.942389       324.9689 
 344   0.0000      12.037903       327.5680 
 345   0.0000      12.290405       334.4389 
 346   0.0000      12.297174       334.6231 
 347   0.0000      12.610956       343.1615 
 348   0.0000      12.651599       344.2675 
 349   0.0000      12.801060       348.3345 
 350   0.0000      12.841215       349.4272 
 351   0.0000      12.921429       351.6100 
 352   0.0000      12.923622       351.6696 
 353   0.0000      12.979355       353.1862 
 354   0.0000      12.986519       353.3812 
 355   0.0000      13.009955       354.0189 
 356   0.0000      13.037895       354.7792 
 357   0.0000      13.064941       355.5151 
 358   0.0000      13.102230       356.5298 
 359   0.0000      13.150900       357.8542 
 360   0.0000      13.172900       358.4528 
 361   0.0000      13.189189       358.8961 
 362   0.0000      13.639323       371.1448 
 363   0.0000      13.648411       371.3921 
 364   0.0000      14.071818       382.9136 
 365   0.0000      14.153289       385.1306 
 366   0.0000      14.251400       387.8003 
 367   0.0000      14.349250       390.4629 
 368   0.0000      14.686200       399.6318 
 369   0.0000      14.787111       402.3777 
 370   0.0000      14.961918       407.1345 
 371   0.0000      15.044806       409.3900 
 372   0.0000      15.192754       413.4159 
 373   0.0000      15.430260       419.8787 
 374   0.0000      15.584431       424.0739 
 375   0.0000      16.041545       436.5126 
 376   0.0000      16.049494       436.7289 
 377   0.0000      16.071903       437.3387 
 378   0.0000      16.247796       442.1250 
 379   0.0000      16.363211       445.2656 
 380   0.0000      16.550302       450.3566 
 381   0.0000      16.816140       457.5904 
 382   0.0000      16.868856       459.0249 
 383   0.0000      16.871752       459.1037 
 384   0.0000      16.968204       461.7283 
 385   0.0000      17.139454       466.3882 
 386   0.0000      17.165826       467.1059 
 387   0.0000      17.682486       481.1649 
 388   0.0000      17.686002       481.2606 
 389   0.0000      17.735648       482.6115 
 390   0.0000      17.788777       484.0572 
 391   0.0000      17.883723       486.6408 
 392   0.0000      17.916609       487.5357 
 393   0.0000      18.237483       496.2671 
 394   0.0000      18.642784       507.2959 
 395   0.0000      18.689196       508.5589 
 396   0.0000      18.769025       510.7311 
 397   0.0000      18.884315       513.8683 
 398   0.0000      18.973146       516.2856 
 399   0.0000      20.563468       559.5604 
 400   0.0000      22.930723       623.9767 
 401   0.0000      22.984706       625.4456 
 402   0.0000      23.903228       650.4399 
 403   0.0000      24.266822       660.3338 
 404   0.0000      24.395292       663.8296 
 405   0.0000      25.883766       704.3331 
 406   0.0000      26.146132       711.4724 
 407   0.0000      26.502027       721.1568 
 408   0.0000      28.806103       783.8539 
 409   0.0000      31.197201       848.9190 
 410   0.0000      31.796639       865.2305 
 411   0.0000      31.957489       869.6075 
 412   0.0000      34.286066       932.9713 
 413   0.0000      39.186129      1066.3088 
 414   0.0000      47.552838      1293.9785 
 415   0.0000      47.618292      1295.7596 
 416   0.0000      47.866898      1302.5245 
 417   0.0000      47.997146      1306.0687 
 418   0.0000      49.235059      1339.7541 
 419   0.0000      65.842388      1791.6625 
 420   0.0000      65.844617      1791.7231 
 421   0.0000      65.871174      1792.4458 
 422   0.0000      65.909348      1793.4845 
 423   0.0000      66.158900      1800.2752 
 424   0.0000      66.468989      1808.7132 
 425   0.0000      66.507506      1809.7612 
 426   0.0000      67.276118      1830.6762 
 427   0.0000      67.352116      1832.7443 
 428   0.0000      69.016400      1878.0317 
 429   0.0000     105.667988      2875.3721 
 430   0.0000     143.659415      3909.1714 

                 SPIN DOWN ORBITALS
  NO   OCC          E(Eh)            E(eV) 
   0   1.0000    -100.651265     -2738.8602 
   1   1.0000     -18.917685      -514.7764 
   2   1.0000     -14.200110      -386.4046 
   3   1.0000      -9.174519      -249.6514 
   4   1.0000      -6.995598      -190.3599 
   5   1.0000      -6.989446      -190.1925 
   6   1.0000      -6.986684      -190.1173 
   7   1.0000      -1.207328       -32.8531 
   8   1.0000      -0.757895       -20.6234 
   9   1.0000      -0.639853       -17.4113 
  10   1.0000      -0.516842       -14.0640 
  11   1.0000      -0.514081       -13.9889 
  12   1.0000      -0.482910       -13.1406 
  13   1.0000      -0.291239        -7.9250 
  14   1.0000      -0.280635        -7.6365 
  15   1.0000      -0.273034        -7.4296 
  16   0.0000      -0.183177        -4.9845 
  17   0.0000      -0.120563        -3.2807 
  18   0.0000      -0.007911        -0.2153 
  19   0.0000       0.012993         0.3536 
  20   0.0000       0.018933         0.5152 
  21   0.0000       0.019480         0.5301 
  22   0.0000       0.044777         1.2184 
  23   0.0000       0.046345         1.2611 
  24   0.0000       0.047486         1.2922 
  25   0.0000       0.051748         1.4081 
  26   0.0000       0.055235         1.5030 
  27   0.0000       0.075214         2.0467 
  28   0.0000       0.084598         2.3020 
  29   0.0000       0.095466         2.5978 
  30   0.0000       0.108682         2.9574 
  31   0.0000       0.110886         3.0174 
  32   0.0000       0.123802         3.3688 
  33   0.0000       0.132326         3.6008 
  34   0.0000       0.134351         3.6559 
  35   0.0000       0.144160         3.9228 
  36   0.0000       0.148170         4.0319 
  37   0.0000       0.154093         4.1931 
  38   0.0000       0.155012         4.2181 
  39   0.0000       0.161344         4.3904 
  40   0.0000       0.169774         4.6198 
  41   0.0000       0.177864         4.8399 
  42   0.0000       0.184160         5.0113 
  43   0.0000       0.186264         5.0685 
  44   0.0000       0.214701         5.8423 
  45   0.0000       0.215802         5.8723 
  46   0.0000       0.225750         6.1430 
  47   0.0000       0.227584         6.1929 
  48   0.0000       0.247485         6.7344 
  49   0.0000       0.248917         6.7734 
  50   0.0000       0.264308         7.1922 
  51   0.0000       0.271330         7.3833 
  52   0.0000       0.273872         7.4524 
  53   0.0000       0.285758         7.7759 
  54   0.0000       0.287922         7.8347 
  55   0.0000       0.299839         8.1590 
  56   0.0000       0.306555         8.3418 
  57   0.0000       0.319864         8.7039 
  58   0.0000       0.320549         8.7226 
  59   0.0000       0.325580         8.8595 
  60   0.0000       0.341362         9.2889 
  61   0.0000       0.350920         9.5490 
  62   0.0000       0.359058         9.7705 
  63   0.0000       0.360047         9.7974 
  64   0.0000       0.374085        10.1794 
  65   0.0000       0.386732        10.5235 
  66   0.0000       0.388019        10.5585 
  67   0.0000       0.394212        10.7271 
  68   0.0000       0.402610        10.9556 
  69   0.0000       0.407880        11.0990 
  70   0.0000       0.417286        11.3549 
  71   0.0000       0.419289        11.4094 
  72   0.0000       0.424952        11.5635 
  73   0.0000       0.432624        11.7723 
  74   0.0000       0.436121        11.8675 
  75   0.0000       0.447037        12.1645 
  76   0.0000       0.455365        12.3911 
  77   0.0000       0.463810        12.6209 
  78   0.0000       0.468388        12.7455 
  79   0.0000       0.488503        13.2928 
  80   0.0000       0.491251        13.3676 
  81   0.0000       0.494642        13.4599 
  82   0.0000       0.510092        13.8803 
  83   0.0000       0.512105        13.9351 
  84   0.0000       0.536758        14.6059 
  85   0.0000       0.548250        14.9187 
  86   0.0000       0.557280        15.1644 
  87   0.0000       0.567580        15.4446 
  88   0.0000       0.577082        15.7032 
  89   0.0000       0.588828        16.0228 
  90   0.0000       0.599062        16.3013 
  91   0.0000       0.614690        16.7266 
  92   0.0000       0.619092        16.8464 
  93   0.0000       0.620651        16.8888 
  94   0.0000       0.627990        17.0885 
  95   0.0000       0.642849        17.4928 
  96   0.0000       0.645426        17.5629 
  97   0.0000       0.649204        17.6657 
  98   0.0000       0.654899        17.8207 
  99   0.0000       0.655187        17.8285 
 100   0.0000       0.671372        18.2690 
 101   0.0000       0.673315        18.3218 
 102   0.0000       0.686440        18.6790 
 103   0.0000       0.695954        18.9379 
 104   0.0000       0.699362        19.0306 
 105   0.0000       0.704674        19.1752 
 106   0.0000       0.723729        19.6937 
 107   0.0000       0.736656        20.0454 
 108   0.0000       0.756310        20.5802 
 109   0.0000       0.772251        21.0140 
 110   0.0000       0.777387        21.1538 
 111   0.0000       0.778952        21.1964 
 112   0.0000       0.798429        21.7264 
 113   0.0000       0.799305        21.7502 
 114   0.0000       0.811862        22.0919 
 115   0.0000       0.819872        22.3098 
 116   0.0000       0.828418        22.5424 
 117   0.0000       0.829380        22.5686 
 118   0.0000       0.833101        22.6698 
 119   0.0000       0.836864        22.7722 
 120   0.0000       0.857446        23.3323 
 121   0.0000       0.861543        23.4438 
 122   0.0000       0.874813        23.8049 
 123   0.0000       0.882024        24.0011 
 124   0.0000       0.897329        24.4176 
 125   0.0000       0.901368        24.5275 
 126   0.0000       0.903801        24.5937 
 127   0.0000       0.909875        24.7590 
 128   0.0000       0.916564        24.9410 
 129   0.0000       0.917555        24.9679 
 130   0.0000       0.927696        25.2439 
 131   0.0000       0.930738        25.3267 
 132   0.0000       0.933371        25.3983 
 133   0.0000       0.940664        25.5968 
 134   0.0000       0.949439        25.8355 
 135   0.0000       0.960719        26.1425 
 136   0.0000       0.963810        26.2266 
 137   0.0000       1.002809        27.2878 
 138   0.0000       1.005852        27.3706 
 139   0.0000       1.012774        27.5590 
 140   0.0000       1.021971        27.8092 
 141   0.0000       1.024767        27.8853 
 142   0.0000       1.033818        28.1316 
 143   0.0000       1.043556        28.3966 
 144   0.0000       1.048685        28.5362 
 145   0.0000       1.065515        28.9941 
 146   0.0000       1.088151        29.6101 
 147   0.0000       1.093302        29.7503 
 148   0.0000       1.099050        29.9067 
 149   0.0000       1.116424        30.3794 
 150   0.0000       1.124824        30.6080 
 151   0.0000       1.135387        30.8955 
 152   0.0000       1.138538        30.9812 
 153   0.0000       1.161285        31.6002 
 154   0.0000       1.164087        31.6764 
 155   0.0000       1.171678        31.8830 
 156   0.0000       1.178118        32.0582 
 157   0.0000       1.208111        32.8744 
 158   0.0000       1.222376        33.2626 
 159   0.0000       1.223183        33.2845 
 160   0.0000       1.234931        33.6042 
 161   0.0000       1.242539        33.8112 
 162   0.0000       1.247176        33.9374 
 163   0.0000       1.271771        34.6066 
 164   0.0000       1.272461        34.6254 
 165   0.0000       1.303204        35.4620 
 166   0.0000       1.313653        35.7463 
 167   0.0000       1.340565        36.4786 
 168   0.0000       1.361826        37.0572 
 169   0.0000       1.433334        39.0030 
 170   0.0000       1.436996        39.1027 
 171   0.0000       1.482668        40.3454 
 172   0.0000       1.496871        40.7319 
 173   0.0000       1.546927        42.0940 
 174   0.0000       1.551409        42.2160 
 175   0.0000       1.566128        42.6165 
 176   0.0000       1.574773        42.8517 
 177   0.0000       1.594957        43.4010 
 178   0.0000       1.662232        45.2316 
 179   0.0000       1.664669        45.2980 
 180   0.0000       1.715051        46.6689 
 181   0.0000       1.716102        46.6975 
 182   0.0000       1.763461        47.9862 
 183   0.0000       1.768714        48.1291 
 184   0.0000       1.792346        48.7722 
 185   0.0000       1.822570        49.5946 
 186   0.0000       1.834747        49.9260 
 187   0.0000       1.866282        50.7841 
 188   0.0000       1.892281        51.4916 
 189   0.0000       1.904815        51.8327 
 190   0.0000       1.941713        52.8367 
 191   0.0000       1.972698        53.6798 
 192   0.0000       2.014528        54.8181 
 193   0.0000       2.045054        55.6488 
 194   0.0000       2.051641        55.8280 
 195   0.0000       2.095693        57.0267 
 196   0.0000       2.144671        58.3595 
 197   0.0000       2.146805        58.4175 
 198   0.0000       2.183989        59.4294 
 199   0.0000       2.214764        60.2668 
 200   0.0000       2.234674        60.8086 
 201   0.0000       2.282386        62.1069 
 202   0.0000       2.334834        63.5341 
 203   0.0000       2.364523        64.3419 
 204   0.0000       2.370790        64.5125 
 205   0.0000       2.393239        65.1234 
 206   0.0000       2.421051        65.8801 
 207   0.0000       2.471880        67.2633 
 208   0.0000       2.503226        68.1162 
 209   0.0000       2.525216        68.7146 
 210   0.0000       2.684376        73.0456 
 211   0.0000       2.745092        74.6977 
 212   0.0000       2.805726        76.3477 
 213   0.0000       2.831014        77.0358 
 214   0.0000       2.861244        77.8584 
 215   0.0000       2.880817        78.3910 
 216   0.0000       2.889808        78.6357 
 217   0.0000       2.933844        79.8340 
 218   0.0000       2.966702        80.7281 
 219   0.0000       2.983774        81.1926 
 220   0.0000       3.015036        82.0433 
 221   0.0000       3.103903        84.4615 
 222   0.0000       3.118356        84.8548 
 223   0.0000       3.167987        86.2053 
 224   0.0000       3.202109        87.1338 
 225   0.0000       3.217797        87.5607 
 226   0.0000       3.342044        90.9416 
 227   0.0000       3.368268        91.6552 
 228   0.0000       3.402175        92.5779 
 229   0.0000       3.657570        99.5275 
 230   0.0000       3.683987       100.2464 
 231   0.0000       3.685240       100.2805 
 232   0.0000       3.722409       101.2919 
 233   0.0000       3.750233       102.0490 
 234   0.0000       3.812953       103.7557 
 235   0.0000       3.886556       105.7586 
 236   0.0000       3.894024       105.9618 
 237   0.0000       3.956196       107.6536 
 238   0.0000       3.987611       108.5084 
 239   0.0000       4.038738       109.8996 
 240   0.0000       4.070632       110.7675 
 241   0.0000       4.110753       111.8593 
 242   0.0000       4.122923       112.1904 
 243   0.0000       4.139416       112.6392 
 244   0.0000       4.292326       116.8001 
 245   0.0000       4.308590       117.2427 
 246   0.0000       4.380108       119.1888 
 247   0.0000       4.422884       120.3528 
 248   0.0000       4.475930       121.7962 
 249   0.0000       4.537613       123.4747 
 250   0.0000       4.572507       124.4242 
 251   0.0000       4.581186       124.6604 
 252   0.0000       4.686369       127.5226 
 253   0.0000       4.795365       130.4885 
 254   0.0000       4.847520       131.9077 
 255   0.0000       4.885008       132.9278 
 256   0.0000       4.902726       133.4100 
 257   0.0000       4.962036       135.0239 
 258   0.0000       5.043520       137.2412 
 259   0.0000       5.076152       138.1291 
 260   0.0000       5.135875       139.7543 
 261   0.0000       5.192352       141.2911 
 262   0.0000       5.248229       142.8116 
 263   0.0000       5.299482       144.2062 
 264   0.0000       5.318099       144.7128 
 265   0.0000       5.364884       145.9859 
 266   0.0000       5.412359       147.2778 
 267   0.0000       5.605049       152.5211 
 268   0.0000       5.645869       153.6319 
 269   0.0000       5.678136       154.5099 
 270   0.0000       5.685717       154.7162 
 271   0.0000       5.686735       154.7439 
 272   0.0000       5.687678       154.7696 
 273   0.0000       5.706251       155.2750 
 274   0.0000       5.751299       156.5008 
 275   0.0000       5.759109       156.7133 
 276   0.0000       5.814959       158.2331 
 277   0.0000       5.817000       158.2886 
 278   0.0000       5.844622       159.0402 
 279   0.0000       5.869869       159.7273 
 280   0.0000       5.874102       159.8424 
 281   0.0000       5.908251       160.7717 
 282   0.0000       5.994661       163.1230 
 283   0.0000       6.009826       163.5357 
 284   0.0000       6.072292       165.2355 
 285   0.0000       6.108813       166.2293 
 286   0.0000       6.110933       166.2869 
 287   0.0000       6.180966       168.1926 
 288   0.0000       6.391943       173.9336 
 289   0.0000       6.424786       174.8273 
 290   0.0000       6.550864       178.2581 
 291   0.0000       6.579981       179.0504 
 292   0.0000       6.648866       180.9248 
 293   0.0000       6.671618       181.5439 
 294   0.0000       6.880222       187.2204 
 295   0.0000       6.922666       188.3753 
 296   0.0000       6.923523       188.3986 
 297   0.0000       6.950425       189.1307 
 298   0.0000       7.205461       196.0706 
 299   0.0000       7.404628       201.4902 
 300   0.0000       7.461908       203.0488 
 301   0.0000       7.626834       207.5367 
 302   0.0000       7.744592       210.7411 
 303   0.0000       7.835832       213.2238 
 304   0.0000       8.237247       224.1469 
 305   0.0000       8.319091       226.3740 
 306   0.0000       8.452504       230.0043 
 307   0.0000       8.929982       242.9972 
 308   0.0000       9.080398       247.0902 
 309   0.0000       9.111305       247.9312 
 310   0.0000       9.114053       248.0060 
 311   0.0000       9.133864       248.5451 
 312   0.0000       9.151321       249.0201 
 313   0.0000       9.198106       250.2932 
 314   0.0000       9.222247       250.9501 
 315   0.0000       9.258242       251.9296 
 316   0.0000       9.346177       254.3224 
 317   0.0000       9.402645       255.8590 
 318   0.0000       9.475880       257.8518 
 319   0.0000       9.596937       261.1459 
 320   0.0000       9.813550       267.0403 
 321   0.0000      10.205333       277.7012 
 322   0.0000      10.278929       279.7039 
 323   0.0000      10.355249       281.7806 
 324   0.0000      10.692616       290.9609 
 325   0.0000      10.891521       296.3733 
 326   0.0000      10.935969       297.5828 
 327   0.0000      10.957508       298.1690 
 328   0.0000      10.997733       299.2635 
 329   0.0000      11.016453       299.7729 
 330   0.0000      11.076442       301.4053 
 331   0.0000      11.123555       302.6873 
 332   0.0000      11.139000       303.1076 
 333   0.0000      11.141033       303.1629 
 334   0.0000      11.272062       306.7284 
 335   0.0000      11.274683       306.7997 
 336   0.0000      11.346514       308.7543 
 337   0.0000      11.352067       308.9054 
 338   0.0000      11.493305       312.7487 
 339   0.0000      11.744580       319.5863 
 340   0.0000      11.812221       321.4269 
 341   0.0000      11.924061       324.4702 
 342   0.0000      11.924333       324.4776 
 343   0.0000      11.942389       324.9689 
 344   0.0000      12.037903       327.5680 
 345   0.0000      12.290405       334.4389 
 346   0.0000      12.297174       334.6231 
 347   0.0000      12.610956       343.1615 
 348   0.0000      12.651599       344.2675 
 349   0.0000      12.801060       348.3345 
 350   0.0000      12.841215       349.4272 
 351   0.0000      12.921429       351.6100 
 352   0.0000      12.923622       351.6696 
 353   0.0000      12.979355       353.1862 
 354   0.0000      12.986519       353.3812 
 355   0.0000      13.009955       354.0189 
 356   0.0000      13.037895       354.7792 
 357   0.0000      13.064941       355.5151 
 358   0.0000      13.102230       356.5298 
 359   0.0000      13.150900       357.8542 
 360   0.0000      13.172900       358.4528 
 361   0.0000      13.189189       358.8961 
 362   0.0000      13.639323       371.1448 
 363   0.0000      13.648411       371.3921 
 364   0.0000      14.071818       382.9136 
 365   0.0000      14.153289       385.1306 
 366   0.0000      14.251400       387.8003 
 367   0.0000      14.349250       390.4629 
 368   0.0000      14.686200       399.6318 
 369   0.0000      14.787111       402.3777 
 370   0.0000      14.961918       407.1345 
 371   0.0000      15.044806       409.3900 
 372   0.0000      15.192754       413.4159 
 373   0.0000      15.430260       419.8787 
 374   0.0000      15.584431       424.0739 
 375   0.0000      16.041545       436.5126 
 376   0.0000      16.049494       436.7289 
 377   0.0000      16.071903       437.3387 
 378   0.0000      16.247796       442.1250 
 379   0.0000      16.363211       445.2656 
 380   0.0000      16.550302       450.3566 
 381   0.0000      16.816140       457.5904 
 382   0.0000      16.868856       459.0249 
 383   0.0000      16.871752       459.1037 
 384   0.0000      16.968204       461.7283 
 385   0.0000      17.139454       466.3882 
 386   0.0000      17.165826       467.1059 
 387   0.0000      17.682486       481.1649 
 388   0.0000      17.686002       481.2606 
 389   0.0000      17.735648       482.6115 
 390   0.0000      17.788777       484.0572 
 391   0.0000      17.883723       486.6408 
 392   0.0000      17.916609       487.5357 
 393   0.0000      18.237483       496.2671 
 394   0.0000      18.642784       507.2959 
 395   0.0000      18.689196       508.5589 
 396   0.0000      18.769025       510.7311 
 397   0.0000      18.884315       513.8683 
 398   0.0000      18.973146       516.2856 
 399   0.0000      20.563468       559.5604 
 400   0.0000      22.930723       623.9767 
 401   0.0000      22.984706       625.4456 
 402   0.0000      23.903228       650.4399 
 403   0.0000      24.266822       660.3338 
 404   0.0000      24.395292       663.8296 
 405   0.0000      25.883766       704.3331 
 406   0.0000      26.146132       711.4724 
 407   0.0000      26.502027       721.1568 
 408   0.0000      28.806103       783.8539 
 409   0.0000      31.197201       848.9190 
 410   0.0000      31.796639       865.2305 
 411   0.0000      31.957489       869.6075 
 412   0.0000      34.286066       932.9713 
 413   0.0000      39.186129      1066.3088 
 414   0.0000      47.552838      1293.9785 
 415   0.0000      47.618292      1295.7596 
 416   0.0000      47.866898      1302.5245 
 417   0.0000      47.997146      1306.0687 
 418   0.0000      49.235059      1339.7541 
 419   0.0000      65.842388      1791.6625 
 420   0.0000      65.844617      1791.7231 
 421   0.0000      65.871174      1792.4458 
 422   0.0000      65.909348      1793.4845 
 423   0.0000      66.158900      1800.2752 
 424   0.0000      66.468989      1808.7132 
 425   0.0000      66.507506      1809.7612 
 426   0.0000      67.276118      1830.6762 
 427   0.0000      67.352116      1832.7443 
 428   0.0000      69.016400      1878.0317 
 429   0.0000     105.667988      2875.3721 
 430   0.0000     143.659415      3909.1714 

                    ********************************
                    * MULLIKEN POPULATION ANALYSIS *
                    ********************************

--------------------------------------------
MULLIKEN ATOMIC CHARGES AND SPIN POPULATIONS
--------------------------------------------
   0 Cl:   -0.272030    0.000000
   1 N :    0.285317   -0.000000
   2 O :   -0.013288    0.000000
Sum of atomic charges         :    0.0000000
Sum of atomic spin populations:    0.0000000

-----------------------------------------------------
MULLIKEN REDUCED ORBITAL CHARGES AND SPIN POPULATIONS
-----------------------------------------------------
CHARGE
  0 Cls       :     6.047477  s :     6.047477
      pz      :     3.810147  p :    11.163203
      px      :     3.919062
      py      :     3.433995
      dz2     :     0.010318  d :     0.051717
      dxz     :     0.001077
      dyz     :     0.007115
      dx2y2   :     0.021857
      dxy     :     0.011349
      f0      :     0.001036  f :     0.009347
      f+1     :     0.000318
      f-1     :     0.001632
      f+2     :     0.000386
      f-2     :     0.000670
      f+3     :     0.002413
      f-3     :     0.002893
      g0      :     0.000008  g :     0.000571
      g+1     :     0.000040
      g-1     :    -0.000014
      g+2     :     0.000055
      g-2     :     0.000040
      g+3     :     0.000010
      g-3     :    -0.000173
      g+4     :     0.000190
      g-4     :     0.000417
      h0      :    -0.000071  h :    -0.000285
      h+1     :    -0.000004
      h-1     :    -0.000023
      h+2     :    -0.000062
      h-2     :    -0.000038
      h+3     :     0.000000
      h-3     :    -0.000013
      h+4     :    -0.000042
      h-4     :    -0.000021
      h+5     :     0.000028
      h-5     :    -0.000040
  1 N s       :     3.772627  s :     3.772627
      pz      :     0.840427  p :     2.755294
      px      :     0.985579
      py      :     0.929288
      dz2     :     0.008978  d :     0.158327
      dxz     :     0.032492
      dyz     :     0.021165
      dx2y2   :     0.033612
      dxy     :     0.062080
      f0      :     0.003044  f :     0.025858
      f+1     :     0.000810
      f-1     :     0.000486
      f+2     :     0.006372
      f-2     :     0.000408
      f+3     :     0.005906
      f-3     :     0.008833
      g0      :     0.000145  g :     0.002401
      g+1     :     0.000149
      g-1     :     0.000190
      g+2     :     0.000298
      g-2     :    -0.000131
      g+3     :    -0.000229
      g-3     :     0.000692
      g+4     :     0.000027
      g-4     :     0.001260
      h0      :    -0.000075  h :     0.000175
      h+1     :    -0.000009
      h-1     :     0.000101
      h+2     :    -0.000038
      h-2     :    -0.000112
      h+3     :    -0.000011
      h-3     :     0.000007
      h+4     :     0.000086
      h-4     :     0.000016
      h+5     :     0.000127
      h-5     :     0.000085
  2 O s       :     3.858257  s :     3.858257
      pz      :     1.252101  p :     4.070838
      px      :     1.256210
      py      :     1.562527
      dz2     :     0.003977  d :     0.075326
      dxz     :     0.023987
      dyz     :    -0.000822
      dx2y2   :     0.019420
      dxy     :     0.028764
      f0      :    -0.000037  f :     0.009450
      f+1     :    -0.000421
      f-1     :    -0.000545
      f+2     :     0.001912
      f-2     :    -0.000813
      f+3     :     0.003903
      f-3     :     0.005450
      g0      :    -0.000236  g :    -0.000254
      g+1     :     0.000116
      g-1     :    -0.000557
      g+2     :     0.000178
      g-2     :    -0.000679
      g+3     :    -0.000505
      g-3     :     0.000142
      g+4     :    -0.000462
      g-4     :     0.001750
      h0      :     0.000023  h :    -0.000329
      h+1     :    -0.000062
      h-1     :    -0.000045
      h+2     :    -0.000016
      h-2     :    -0.000115
      h+3     :    -0.000003
      h-3     :    -0.000084
      h+4     :    -0.000031
      h-4     :    -0.000028
      h+5     :    -0.000142
      h-5     :     0.000173

SPIN
  0 Cls       :     0.000000  s :     0.000000
      pz      :    -0.000000  p :     0.000000
      px      :     0.000000
      py      :     0.000000
      dz2     :     0.000000  d :     0.000000
      dxz     :     0.000000
      dyz     :    -0.000000
      dx2y2   :     0.000000
      dxy     :     0.000000
      f0      :    -0.000000  f :     0.000000
      f+1     :     0.000000
      f-1     :     0.000000
      f+2     :    -0.000000
      f-2     :     0.000000
      f+3     :     0.000000
      f-3     :    -0.000000
      g0      :    -0.000000  g :     0.000000
      g+1     :     0.000000
      g-1     :    -0.000000
      g+2     :     0.000000
      g-2     :     0.000000
      g+3     :     0.000000
      g-3     :     0.000000
      g+4     :     0.000000
      g-4     :     0.000000
      h0      :    -0.000000  h :    -0.000000
      h+1     :    -0.000000
      h-1     :    -0.000000
      h+2     :    -0.000000
      h-2     :     0.000000
      h+3     :     0.000000
      h-3     :     0.000000
      h+4     :     0.000000
      h-4     :     0.000000
      h+5     :    -0.000000
      h-5     :     0.000000
  1 N s       :     0.000000  s :     0.000000
      pz      :    -0.000000  p :    -0.000000
      px      :    -0.000000
      py      :    -0.000000
      dz2     :    -0.000000  d :    -0.000000
      dxz     :    -0.000000
      dyz     :     0.000000
      dx2y2   :    -0.000000
      dxy     :    -0.000000
      f0      :    -0.000000  f :    -0.000000
      f+1     :    -0.000000
      f-1     :    -0.000000
      f+2     :    -0.000000
      f-2     :    -0.000000
      f+3     :    -0.000000
      f-3     :    -0.000000
      g0      :    -0.000000  g :    -0.000000
      g+1     :     0.000000
      g-1     :    -0.000000
      g+2     :     0.000000
      g-2     :     0.000000
      g+3     :    -0.000000
      g-3     :    -0.000000
      g+4     :    -0.000000
      g-4     :     0.000000
      h0      :     0.000000  h :     0.000000
      h+1     :    -0.000000
      h-1     :    -0.000000
      h+2     :     0.000000
      h-2     :     0.000000
      h+3     :    -0.000000
      h-3     :    -0.000000
      h+4     :    -0.000000
      h-4     :     0.000000
      h+5     :     0.000000
      h-5     :    -0.000000
  2 O s       :     0.000000  s :     0.000000
      pz      :     0.000000  p :    -0.000000
      px      :    -0.000000
      py      :     0.000000
      dz2     :    -0.000000  d :     0.000000
      dxz     :     0.000000
      dyz     :     0.000000
      dx2y2   :     0.000000
      dxy     :    -0.000000
      f0      :     0.000000  f :     0.000000
      f+1     :    -0.000000
      f-1     :    -0.000000
      f+2     :     0.000000
      f-2     :     0.000000
      f+3     :     0.000000
      f-3     :     0.000000
      g0      :    -0.000000  g :     0.000000
      g+1     :     0.000000
      g-1     :     0.000000
      g+2     :     0.000000
      g-2     :    -0.000000
      g+3     :     0.000000
      g-3     :    -0.000000
      g+4     :     0.000000
      g-4     :     0.000000
      h0      :     0.000000  h :    -0.000000
      h+1     :    -0.000000
      h-1     :    -0.000000
      h+2     :     0.000000
      h-2     :     0.000000
      h+3     :     0.000000
      h-3     :    -0.000000
      h+4     :     0.000000
      h-4     :     0.000000
      h+5     :    -0.000000
      h-5     :     0.000000


                     *******************************
                     * LOEWDIN POPULATION ANALYSIS *
                     *******************************

-------------------------------------------
LOEWDIN ATOMIC CHARGES AND SPIN POPULATIONS
-------------------------------------------
   0 Cl:    0.968840   -0.000000
   1 N :   -0.833164    0.000000
   2 O :   -0.135676    0.000000

----------------------------------------------------
LOEWDIN REDUCED ORBITAL CHARGES AND SPIN POPULATIONS
----------------------------------------------------
CHARGE
  0 Cls       :     5.301776  s :     5.301776
      pz      :     3.368455  p :    10.114916
      px      :     3.502630
      py      :     3.243831
      dz2     :     0.042745  d :     0.214012
      dxz     :     0.004420
      dyz     :     0.020626
      dx2y2   :     0.093126
      dxy     :     0.053095
      f0      :     0.012132  f :     0.153002
      f+1     :     0.007980
      f-1     :     0.028409
      f+2     :     0.006855
      f-2     :     0.011425
      f+3     :     0.034796
      f-3     :     0.051404
      g0      :     0.008160  g :     0.134881
      g+1     :     0.004645
      g-1     :     0.016185
      g+2     :     0.010316
      g-2     :     0.012182
      g+3     :     0.012479
      g-3     :     0.000607
      g+4     :     0.046217
      g-4     :     0.024088
      h0      :     0.008241  h :     0.112573
      h+1     :     0.002658
      h-1     :     0.006412
      h+2     :     0.004244
      h-2     :     0.010326
      h+3     :     0.007794
      h-3     :     0.009064
      h+4     :     0.001854
      h-4     :     0.005685
      h+5     :     0.024469
      h-5     :     0.031826
  1 N s       :     3.097848  s :     3.097848
      pz      :     0.732540  p :     2.944596
      px      :     1.250006
      py      :     0.962050
      dz2     :     0.101876  d :     0.964086
      dxz     :     0.119965
      dyz     :     0.100012
      dx2y2   :     0.324462
      dxy     :     0.317772
      f0      :     0.035650  f :     0.466455
      f+1     :     0.032415
      f-1     :     0.035113
      f+2     :     0.076310
      f-2     :     0.012434
      f+3     :     0.118803
      f-3     :     0.155729
      g0      :     0.009390  g :     0.227052
      g+1     :     0.012422
      g-1     :     0.029557
      g+2     :     0.018289
      g-2     :     0.013974
      g+3     :     0.015888
      g-3     :     0.010219
      g+4     :     0.062905
      g-4     :     0.054407
      h0      :     0.010629  h :     0.133128
      h+1     :     0.002242
      h-1     :     0.007929
      h+2     :     0.016679
      h-2     :     0.005932
      h+3     :     0.009923
      h-3     :     0.008755
      h+4     :     0.002384
      h-4     :     0.012651
      h+5     :     0.018014
      h-5     :     0.037990
  2 O s       :     3.229600  s :     3.229600
      pz      :     1.067282  p :     3.872890
      px      :     1.453653
      py      :     1.351955
      dz2     :     0.055229  d :     0.476603
      dxz     :     0.073239
      dyz     :     0.019874
      dx2y2   :     0.173849
      dxy     :     0.154412
      f0      :     0.030238  f :     0.278758
      f+1     :     0.024139
      f-1     :     0.019710
      f+2     :     0.014966
      f-2     :     0.027342
      f+3     :     0.083961
      f-3     :     0.078402
      g0      :     0.007985  g :     0.168413
      g+1     :     0.015150
      g-1     :     0.016795
      g+2     :     0.009042
      g-2     :     0.015287
      g+3     :     0.015290
      g-3     :     0.003940
      g+4     :     0.039875
      g-4     :     0.045046
      h0      :     0.006830  h :     0.109412
      h+1     :     0.003019
      h-1     :     0.002843
      h+2     :     0.000778
      h-2     :     0.014524
      h+3     :     0.008809
      h-3     :     0.006721
      h+4     :     0.010557
      h-4     :     0.001742
      h+5     :     0.034789
      h-5     :     0.018800

SPIN
  0 Cls       :    -0.000000  s :    -0.000000
      pz      :     0.000000  p :    -0.000000
      px      :     0.000000
      py      :    -0.000000
      dz2     :    -0.000000  d :    -0.000000
      dxz     :     0.000000
      dyz     :     0.000000
      dx2y2   :     0.000000
      dxy     :    -0.000000
      f0      :     0.000000  f :    -0.000000
      f+1     :    -0.000000
      f-1     :    -0.000000
      f+2     :    -0.000000
      f-2     :     0.000000
      f+3     :     0.000000
      f-3     :    -0.000000
      g0      :    -0.000000  g :     0.000000
      g+1     :    -0.000000
      g-1     :    -0.000000
      g+2     :     0.000000
      g-2     :     0.000000
      g+3     :     0.000000
      g-3     :     0.000000
      g+4     :     0.000000
      g-4     :     0.000000
      h0      :    -0.000000  h :    -0.000000
      h+1     :    -0.000000
      h-1     :    -0.000000
      h+2     :    -0.000000
      h-2     :    -0.000000
      h+3     :    -0.000000
      h-3     :     0.000000
      h+4     :    -0.000000
      h-4     :    -0.000000
      h+5     :     0.000000
      h-5     :    -0.000000
  1 N s       :     0.000000  s :     0.000000
      pz      :     0.000000  p :    -0.000000
      px      :    -0.000000
      py      :     0.000000
      dz2     :     0.000000  d :    -0.000000
      dxz     :    -0.000000
      dyz     :     0.000000
      dx2y2   :    -0.000000
      dxy     :     0.000000
      f0      :    -0.000000  f :    -0.000000
      f+1     :    -0.000000
      f-1     :    -0.000000
      f+2     :    -0.000000
      f-2     :     0.000000
      f+3     :    -0.000000
      f-3     :     0.000000
      g0      :     0.000000  g :     0.000000
      g+1     :    -0.000000
      g-1     :     0.000000
      g+2     :     0.000000
      g-2     :     0.000000
      g+3     :    -0.000000
      g-3     :     0.000000
      g+4     :    -0.000000
      g-4     :     0.000000
      h0      :     0.000000  h :     0.000000
      h+1     :     0.000000
      h-1     :    -0.000000
      h+2     :     0.000000
      h-2     :     0.000000
      h+3     :     0.000000
      h-3     :     0.000000
      h+4     :    -0.000000
      h-4     :     0.000000
      h+5     :    -0.000000
      h-5     :    -0.000000
  2 O s       :     0.000000  s :     0.000000
      pz      :    -0.000000  p :    -0.000000
      px      :    -0.000000
      py      :     0.000000
      dz2     :     0.000000  d :     0.000000
      dxz     :     0.000000
      dyz     :     0.000000
      dx2y2   :     0.000000
      dxy     :     0.000000
      f0      :     0.000000  f :    -0.000000
      f+1     :    -0.000000
      f-1     :    -0.000000
      f+2     :    -0.000000
      f-2     :     0.000000
      f+3     :    -0.000000
      f-3     :     0.000000
      g0      :    -0.000000  g :    -0.000000
      g+1     :    -0.000000
      g-1     :     0.000000
      g+2     :     0.000000
      g-2     :    -0.000000
      g+3     :     0.000000
      g-3     :    -0.000000
      g+4     :    -0.000000
      g-4     :     0.000000
      h0      :     0.000000  h :    -0.000000
      h+1     :    -0.000000
      h-1     :    -0.000000
      h+2     :     0.000000
      h-2     :     0.000000
      h+3     :     0.000000
      h-3     :    -0.000000
      h+4     :    -0.000000
      h-4     :     0.000000
      h+5     :    -0.000000
      h-5     :     0.000000


                      *****************************
                      * MAYER POPULATION ANALYSIS *
                      *****************************

  NA   - Mulliken gross atomic population
  ZA   - Total nuclear charge
  QA   - Mulliken gross atomic charge
  VA   - Mayer's total valence
  BVA  - Mayer's bonded valence
  FA   - Mayer's free valence

  ATOM       NA         ZA         QA         VA         BVA        FA
  0 Cl    17.2720    17.0000    -0.2720     1.3056     1.3056     0.0000
  1 N      6.7147     7.0000     0.2853     3.0303     3.0303     0.0000
  2 O      8.0133     8.0000    -0.0133     2.3896     2.3896    -0.0000

  Mayer bond orders larger than 0.1
B(  0-Cl,  1-N ) :   0.9732 B(  0-Cl,  2-O ) :   0.3324 B(  1-N ,  2-O ) :   2.0571 


-------
TIMINGS
-------

Total SCF time: 0 days 0 hours 33 min 16 sec 

Total time                  ....    1996.282 sec
Sum of individual times     ....    1995.115 sec  ( 99.9%)

Fock matrix formation       ....    1989.641 sec  ( 99.7%)
  XC integration            ....      24.020 sec  (  1.2% of F)
    Basis function eval.    ....       1.607 sec  (  6.7% of XC)
    Density eval.           ....       5.293 sec  ( 22.0% of XC)
    XC-Functional eval.     ....       0.230 sec  (  1.0% of XC)
    XC-Potential eval.      ....      16.000 sec  ( 66.6% of XC)
Diagonalization             ....       2.557 sec  (  0.1%)
Density matrix formation    ....       0.044 sec  (  0.0%)
Population analysis         ....       0.182 sec  (  0.0%)
Initial guess               ....       0.831 sec  (  0.0%)
Orbital Transformation      ....       0.000 sec  (  0.0%)
Orbital Orthonormalization  ....       0.000 sec  (  0.0%)
DIIS solution               ....       1.440 sec  (  0.1%)
Grid generation             ....       0.420 sec  (  0.0%)

-------------------------   --------------------
FINAL SINGLE POINT ENERGY      -589.883872834540
-------------------------   --------------------


                            ***************************************
                            *     ORCA property calculations      *
                            ***************************************

                                    ---------------------
                                    Active property flags
                                    ---------------------
   (+) Dipole Moment
   (+) Polarizability


------------------------------------------------------------------------------
                       ORCA ELECTRIC PROPERTIES CALCULATION
------------------------------------------------------------------------------

Dipole Moment Calculation                       ... on
Quadrupole Moment Calculation                   ... off
Polarizability Calculation                      ... Analytic (CP-SCF)
GBWName                                         ... nocl_pbe.gbw
Electron density file                           ... nocl_pbe.scfp.tmp
The origin for moment calculation is the CENTER OF MASS  = (-0.022361, -0.038826  0.000000)

-------------
DIPOLE MOMENT
-------------
                                X             Y             Z
Electronic contribution:     -0.37378      -0.64932       0.00000
Nuclear contribution   :      0.71403       1.24282       0.00000
                        -----------------------------------------
Total Dipole Moment    :      0.34025       0.59350       0.00000
                        -----------------------------------------
Magnitude (a.u.)       :      0.68412
Magnitude (Debye)      :      1.73889



--------------------
Rotational spectrum 
--------------------
 
Rotational constants in cm-1:     2.884749     0.190162     0.178402 
Rotational constants in MHz : 86482.593014  5700.913502  5348.351357 

 Dipole components along the rotational axes: 
x,y,z [a.u.] :    -0.683081     0.037615     0.000000 
x,y,z [Debye]:    -1.736255     0.095611     0.000000 

 
Transforming and storing MO dipole integrals   ... done

                ... starting polarizability calculation

Opening the Dipole integral file               ... (nocl_pbe.dmo.tmp) done
Reading Dipole-MO integrals                    ... done
Solving CP-SCF equations                       ... 

           ************************************************************
           *        Program running with 4 parallel MPI-processes     *
           *              working on a common directory               *
           ************************************************************

------------------------------------------------------------------------------
                           ORCA CP-SCF CALCULATION
------------------------------------------------------------------------------

Input orbitals are from        ... nocl_pbe.gbw
Input Perturbation             ... nocl_pbe.cpv.tmp
Wavefunction output            ... nocl_pbe.cpu.tmp
Perturbation mode              ... Real perturbation (singlet)
Solver                         ... POPLE
Max. number of iterations      ... 200
Convergence tolerance          ... 1.000e-06
Integral handling              ... Direct
Number of perturbations        ... 3
Number of operators            ... 2
Orbital ranges used for CP-SCF:
 Operator 0:  Orbitals   0... 15  to  16...430
 Operator 1:  Orbitals   0... 15  to  16...430
DFT calculation                         ... on
Exchange functional (SCF)               ... PBE
Exchange functional (CP-SCF)            ... PBE
   PBE kappa parameter  XKappa (SCF)    ...  0.804000
   PBE kappa parameter  XKappa (CP-SCF) ...  0.804000
   PBE mue parameter   XMuePBE (SCF)    ...  0.219520
   PBE mue parameter   XMuePBE (CP-SCF) ...  0.219520
Correlation functional (SCF)            ... PBE
Correlation functional (CP-SCF)         ... PBE
   PBE beta parameter CBetaPBE (SCF)    ...  0.066725
   PBE beta parameter CBetaPBE (CP-SCF) ...  0.066725
 LDA part of GGA corr.  LDAOpt (SCF)    ... PW91-LDA
 LDA part of GGA corr.  LDAOpt (CP-SCF) ... PW91-LDA
Variables per vector in CP-SCF ... 13280
Number of vectors sought       ... 3
Recalculating density on grid  ... done
Calculating the xc-kernel      ... done
     CP-SCF ITERATION   0: 
     CP-SCF ITERATION   1:      4.523878586596
     CP-SCF ITERATION   2:      0.721431881338
     CP-SCF ITERATION   3:      0.019119112495
     CP-SCF ITERATION   4:      0.000948402211
     CP-SCF ITERATION   5:      0.000022390467
     CP-SCF ITERATION   6:      0.000001171328
     CP-SCF ITERATION   7:      0.000000755244
done
Reading CP-SCF coefficients                    ... done
Doing the polarizability tensor   ... done
Cleaning up                                    ... done

-------------------------
THE POLARIZABILITY TENSOR
-------------------------

The raw cartesian tensor (atomic units):
   33.46895     11.80649     -0.00000  
   11.80649     47.21033     -0.00000  
   -0.00000     -0.00000     23.62354  
diagonalized tensor: 
   23.62354     26.67949     53.99979  

    0.00000      0.86688      0.49851  
   -0.00000     -0.49851      0.86688  
    1.00000     -0.00000     -0.00000  

Isotropic polarizability :  34.76761


Timings for individual modules:

Sum of individual times         ...     3378.732 sec (=  56.312 min)
GTO integral calculation        ...        8.062 sec (=   0.134 min)   0.2 %
SCF iterations                  ...     2001.037 sec (=  33.351 min)  59.2 %
Solution of CP-SCF eqns.        ...     1369.632 sec (=  22.827 min)  40.5 %
                             ****ORCA TERMINATED NORMALLY****
TOTAL RUN TIME: 0 days 0 hours 56 minutes 19 seconds 653 msec
