
                                 *****************
                                 * O   R   C   A *
                                 *****************

           --- An Ab Initio, DFT and Semiempirical electronic structure package ---

                  #######################################################
                  #                        -***-                        #
                  #          Department of theory and spectroscopy      #
                  #               Directorship: Frank Neese             #
                  #        Max Planck Institute fuer Kohlenforschung    #
                  #                Kaiser Wilhelm Platz 1               #
                  #                 D-45470 Muelheim/Ruhr               #
                  #                      Germany                        #
                  #                                                     #
                  #                  All rights reserved                #
                  #                        -***-                        #
                  #######################################################


                         Program Version 4.1.2  - RELEASE  -


 With contributions from (in alphabetic order):
   Daniel Aravena         : Magnetic Properties
   Michael Atanasov       : Ab Initio Ligand Field Theory
   Alexander A. Auer      : GIAO ZORA
   Ute Becker             : Parallelization
   Giovanni Bistoni       : ED, Open-shell LED
   Martin Brehm           : Molecular dynamics
   Dmytro Bykov           : SCF Hessian
   Vijay G. Chilkuri      : MRCI spin determinant printing
   Dipayan Datta          : RHF DLPNO-CCSD density
   Achintya Kumar Dutta   : EOM-CC, STEOM-CC
   Dmitry Ganyushin       : Spin-Orbit,Spin-Spin,Magnetic field MRCI
   Miquel Garcia          : C-PCM Hessian
   Yang Guo               : DLPNO-NEVPT2, CIM, IAO-localization
   Andreas Hansen         : Spin unrestricted coupled pair/coupled cluster methods
   Benjamin Helmich-Paris : CASSCF linear response (MC-RPA)
   Lee Huntington         : MR-EOM, pCC
   Robert Izsak           : Overlap fitted RIJCOSX, COSX-SCS-MP3, EOM
   Christian Kollmar      : KDIIS, OOCD, Brueckner-CCSD(T), CCSD density
   Simone Kossmann        : Meta GGA functionals, TD-DFT gradient, OOMP2, MP2 Hessian
   Martin Krupicka        : AUTO-CI
   Lucas Lang             : DCDCAS
   Dagmar Lenk            : GEPOL surface, SMD
   Dimitrios Liakos       : Extrapolation schemes; parallel MDCI
   Dimitrios Manganas     : ROCIS; embedding schemes
   Dimitrios Pantazis     : SARC Basis sets
   Taras Petrenko         : DFT Hessian,TD-DFT gradient, ASA, ECA, R-Raman, ABS, FL, XAS/XES, NRVS
   Peter Pinski           : DLPNO-MP2, DLPNO-MP2 Gradient
   Christoph Reimann      : Effective Core Potentials
   Marius Retegan         : Local ZFS, SOC
   Christoph Riplinger    : Optimizer, TS searches, QM/MM, DLPNO-CCSD(T), (RO)-DLPNO pert. Triples
   Tobias Risthaus        : Range-separated hybrids, TD-DFT gradient, RPA, STAB
   Michael Roemelt        : Restricted open shell CIS
   Masaaki Saitow         : Open-shell DLPNO
   Barbara Sandhoefer     : DKH picture change effects
   Avijit Sen             : IP-ROCIS
   Kantharuban Sivalingam : CASSCF convergence, NEVPT2, FIC-MRCI
   Bernardo de Souza      : ESD, SOC TD-DFT
   Georgi Stoychev        : AutoAux, RI-MP2 NMR
   Willem Van den Heuvel  : Paramagnetic NMR
   Boris Wezisla          : Elementary symmetry handling
   Frank Wennmohs         : Technical directorship


 We gratefully acknowledge several colleagues who have allowed us to
 interface, adapt or use parts of their codes:
   Stefan Grimme, W. Hujo, H. Kruse,             : VdW corrections, initial TS optimization,
                  C. Bannwarth                     DFT functionals, gCP, sTDA/sTD-DF
   Ed Valeev                                     : LibInt (2-el integral package), F12 methods
   Garnet Chan, S. Sharma, J. Yang, R. Olivares  : DMRG
   Ulf Ekstrom                                   : XCFun DFT Library
   Mihaly Kallay                                 : mrcc  (arbitrary order and MRCC methods)
   Andreas Klamt, Michael Diedenhofen            : otool_cosmo (COSMO solvation model)
   Jiri Pittner, Ondrej Demel                    : Mk-CCSD
   Frank Weinhold                                : gennbo (NPA and NBO analysis)
   Christopher J. Cramer and Donald G. Truhlar   : smd solvation model
   Lars Goerigk                                  : TD-DFT with DH, B97 family of functionals
   V. Asgeirsson, H. Jonsson                     : NEB implementation
   FAccTs GmbH                                   : IRC, NEB, NEB-TS, Multilevel


 Your calculation uses the libint2 library for the computation of 2-el integrals
 For citations please refer to: http://libint.valeyev.net

 This ORCA versions uses:
   CBLAS   interface :  Fast vector & matrix operations
   LAPACKE interface :  Fast linear algebra routines
   SCALAPACK package :  Parallel linear algebra routines


----- Orbital basis set information -----
Your calculation utilizes the basis: aug-pc-4
   H, C-F              : F. Jensen, J. Chem. Phys. 115, 9113 (2001).
                         F. Jensen, J. Chem. Phys. 116, 7372 (2002).
                         F. Jensen, J. Chem. Phys. 117, 9234 (2002).
   Si-Cl               : F. Jensen, T. Helgaker, J. Chem. Phys. 121, 3463 (2004).
   He-B, Ne-Mg, Al, Ar : F. Jensen, J. Phys. Chem. A 111, 11198 (2007).
   K, Ca, Ga-Kr        : F. Jensen, J. Chem. Phys. 136, 094110 (2012).
   Sc-Zn               : F. Jensen, J. Chem. Phys. 138, 014107 (2013).

================================================================================
                                        WARNINGS
                       Please study these warnings very carefully!
================================================================================


INFO   : the flag for use of LIBINT has been found!

================================================================================
                                       INPUT FILE
================================================================================
NAME = np_pbe.inp
|  1> !uks pbe nori aug-pc-4 grid5 nofinalgrid verytightscf
|  2> 
|  3> %maxcore 1500
|  4> 
|  5> %pal nprocs 4 end
|  6> 
|  7> %scf
|  8> 	maxiter 200
|  9> end
| 10> %elprop
| 11> 	dipole true
| 12> 	 polar 1
| 13> 	 maxiter 200
| 14> end
| 15> 
| 16> * xyz 0 1
| 17> N 0.0000 0.0000 1.4909
| 18> P 0.0000 0.0000 0.0000
| 19> *
| 20> 
| 21>                          ****END OF INPUT****
================================================================================

                       ****************************
                       * Single Point Calculation *
                       ****************************

---------------------------------
CARTESIAN COORDINATES (ANGSTROEM)
---------------------------------
  N      0.000000    0.000000    1.490900
  P      0.000000    0.000000    0.000000

----------------------------
CARTESIAN COORDINATES (A.U.)
----------------------------
  NO LB      ZA    FRAG     MASS         X           Y           Z
   0 N     7.0000    0    14.007    0.000000    0.000000    2.817393
   1 P    15.0000    0    30.974    0.000000    0.000000    0.000000

--------------------------------
INTERNAL COORDINATES (ANGSTROEM)
--------------------------------
 N      0   0   0     0.000000000000     0.00000000     0.00000000
 P      1   0   0     1.490900000000     0.00000000     0.00000000

---------------------------
INTERNAL COORDINATES (A.U.)
---------------------------
 N      0   0   0     0.000000000000     0.00000000     0.00000000
 P      1   0   0     2.817392693063     0.00000000     0.00000000

---------------------
BASIS SET INFORMATION
---------------------
There are 2 groups of distinct atoms

 Group   1 Type N   : 27s12p7d4f3g2h contracted to 9s8p7d4f3g2h pattern {1191111111/51111111/1111111/1111/111/11}
 Group   2 Type P   : 44s27p7d4f3g2h contracted to 8s7p7d4f3g2h pattern {15121211111/111111111/1111111/1111/111/11}

Atom   0N    basis set group =>   1
Atom   1P    basis set group =>   2


           ************************************************************
           *        Program running with 4 parallel MPI-processes     *
           *              working on a common directory               *
           ************************************************************
------------------------------------------------------------------------------
                           ORCA GTO INTEGRAL CALCULATION
------------------------------------------------------------------------------

                         BASIS SET STATISTICS AND STARTUP INFO

 # of primitive gaussian shells          ...  142
 # of primitive gaussian functions       ...  412
 # of contracted shells                  ...   64
 # of contracted basis functions         ...  286
 Highest angular momentum                ...    5
 Maximum contraction depth               ...   15
 Integral package used                   ... LIBINT
 Integral threshhold            Thresh   ...  1.000e-12
 Primitive cut-off              TCut     ...  1.000e-14


------------------------------ INTEGRAL EVALUATION ----------------------------


 * One electron integrals 
 Pre-screening matrix                    ... done
 Shell pair data                         ... done (   0.001 sec)



           ************************************************************
           *        Program running with 4 parallel MPI-processes     *
           *              working on a common directory               *
           ************************************************************
-------------------------------------------------------------------------------
                                 ORCA SCF
-------------------------------------------------------------------------------

------------
SCF SETTINGS
------------
Hamiltonian:
 Density Functional     Method          .... DFT(GTOs)
 Exchange Functional    Exchange        .... PBE
   PBE kappa parameter   XKappa         ....  0.804000
   PBE mue parameter    XMuePBE         ....  0.219520
 Correlation Functional Correlation     .... PBE
   PBE beta parameter  CBetaPBE         ....  0.066725
 LDA part of GGA corr.  LDAOpt          .... PW91-LDA
 Gradients option       PostSCFGGA      .... off
   Density functional embedding theory  .... OFF
   NL short-range parameter             ....  6.400000


General Settings:
 Integral files         IntName         .... np_pbe
 Hartree-Fock type      HFTyp           .... UHF
 Total Charge           Charge          ....    0
 Multiplicity           Mult            ....    1
 Number of Electrons    NEL             ....   22
 Basis Dimension        Dim             ....  286
 Nuclear Repulsion      ENuc            ....     37.2685001486 Eh

Convergence Acceleration:
 DIIS                   CNVDIIS         .... on
   Start iteration      DIISMaxIt       ....    12
   Startup error        DIISStart       ....  0.200000
   # of expansion vecs  DIISMaxEq       ....     5
   Bias factor          DIISBfac        ....   1.050
   Max. coefficient     DIISMaxC        ....  10.000
 Newton-Raphson         CNVNR           .... off
 SOSCF                  CNVSOSCF        .... off
 Level Shifting         CNVShift        .... on
   Level shift para.    LevelShift      ....    0.2500
   Turn off err/grad.   ShiftErr        ....    0.0010
 Zerner damping         CNVZerner       .... off
 Static damping         CNVDamp         .... on
   Fraction old density DampFac         ....    0.7000
   Max. Damping (<1)    DampMax         ....    0.9800
   Min. Damping (>=0)   DampMin         ....    0.0000
   Turn off err/grad.   DampErr         ....    0.1000
 Fernandez-Rico         CNVRico         .... off

SCF Procedure:
 Maximum # iterations   MaxIter         ....   200
 SCF integral mode      SCFMode         .... Direct
   Integral package                     .... LIBINT
 Reset frequency        DirectResetFreq ....    20
 Integral Threshold     Thresh          ....  1.000e-12 Eh
 Primitive CutOff       TCut            ....  1.000e-14 Eh

Convergence Tolerance:
 Convergence Check Mode ConvCheckMode   .... Total+1el-Energy
 Convergence forced     ConvForced      .... 0
 Energy Change          TolE            ....  1.000e-09 Eh
 1-El. energy change                    ....  1.000e-06 Eh
 DIIS Error             TolErr          ....  1.000e-08


Diagonalization of the overlap matrix:
Smallest eigenvalue                        ... 5.678e-06
Time for diagonalization                   ...    0.018 sec
Threshold for overlap eigenvalues          ... 1.000e-08
Number of eigenvalues below threshold      ... 0
Time for construction of square roots      ...    0.012 sec
Total time needed                          ...    0.031 sec

-------------------
DFT GRID GENERATION
-------------------

General Integration Accuracy     IntAcc      ...  5.010
Radial Grid Type                 RadialGrid  ... Gauss-Chebyshev
Angular Grid (max. acc.)         AngularGrid ... Lebedev-434
Angular grid pruning method      GridPruning ... 3 (G Style)
Weight generation scheme         WeightScheme... Becke
Basis function cutoff            BFCut       ...    1.0000e-12
Integration weight cutoff        WCut        ...    1.0000e-14
Grids for H and He will be reduced by one unit

# of grid points (after initial pruning)     ...  22222 (   0.0 sec)
# of grid points (after weights+screening)   ...  22149 (   0.0 sec)
nearest neighbour list constructed           ...    0.0 sec
Grid point re-assignment to atoms done       ...    0.0 sec
Grid point division into batches done        ...    0.2 sec
Reduced shell lists constructed in    0.3 sec

Total number of grid points                  ...    22149
Total number of batches                      ...      347
Average number of points per batch           ...       63
Average number of grid points per atom       ...    11074
Average number of shells per batch           ...    40.55 (63.35%)
Average number of basis functions per batch  ...   187.66 (65.62%)
Average number of large shells per batch     ...    35.28 (87.02%)
Average number of large basis fcns per batch ...   166.67 (88.82%)
Maximum spatial batch extension              ...  18.81, 19.92, 15.99 au
Average spatial batch extension              ...   1.61,  1.64,  1.42 au

Time for grid setup =    0.298 sec

------------------------------
INITIAL GUESS: MODEL POTENTIAL
------------------------------
Loading Hartree-Fock densities                     ... done
Calculating cut-offs                               ... done
Setting up the integral package                    ... done
Initializing the effective Hamiltonian             ... done
Starting the Coulomb interaction                   ... done (   0.0 sec)
Reading the grid                                   ... done
Mapping shells                                     ... done
Starting the XC term evaluation                    ... done (   0.2 sec)
  promolecular density results
     # of electrons  =     22.000000248
     EX              =    -28.948020048
     EC              =     -0.780917855
     EX+EC           =    -29.728937903
Transforming the Hamiltonian                       ... done (   0.0 sec)
Diagonalizing the Hamiltonian                      ... done (   0.0 sec)
Back transforming the eigenvectors                 ... done (   0.0 sec)
Now organizing SCF variables                       ... done
                      ------------------
                      INITIAL GUESS DONE (   0.7 sec)
                      ------------------
--------------
SCF ITERATIONS
--------------
ITER       Energy         Delta-E        Max-DP      RMS-DP      [F,P]     Damp
               ***  Starting incremental Fock matrix formation  ***
  0   -395.6054173010   0.000000000000 0.04272057  0.00057968  0.4651178 0.7000
  1   -395.7930412540  -0.187623952938 0.01446603  0.00023537  0.0587399 0.7000
                               ***Turning on DIIS***
  2   -395.7842570736   0.008784180419 0.01890922  0.00016004  0.1151257 0.7000
  3   -395.8267494509  -0.042492377357 0.02741352  0.00033401  0.0608154 0.0000
  4   -395.8934884816  -0.066739030689 0.00642431  0.00007951  0.0768314 0.0000
  5   -395.8984810072  -0.004992525608 0.00224454  0.00003899  0.0423404 0.0000
  6   -395.9002365478  -0.001755540625 0.00099982  0.00001662  0.0224584 0.0000
  7   -395.9007305170  -0.000493969108 0.00053352  0.00000818  0.0118530 0.0000
  8   -395.9008655342  -0.000135017223 0.00029838  0.00000454  0.0063449 0.0000
  9   -395.9009061130  -0.000040578850 0.00017798  0.00000238  0.0031535 0.0000
 10   -395.9009154313  -0.000009318270 0.00006988  0.00000115  0.0016606 0.0000
 11   -395.9009180447  -0.000002613363 0.00008803  0.00000135  0.0009068 0.0000
 12   -395.9009191128  -0.000001068188 0.00001637  0.00000024  0.0001030 0.0000
 13   -395.9009191241  -0.000000011250 0.00000747  0.00000009  0.0000312 0.0000
 14   -395.9009191254  -0.000000001301 0.00000153  0.00000002  0.0000034 0.0000
 15   -395.9009191254  -0.000000000021 0.00000095  0.00000001  0.0000018 0.0000
 16   -395.9009191254  -0.000000000007 0.00000307  0.00000003  0.0000003 0.0000
                 **** Energy Check signals convergence ****

               *****************************************************
               *                     SUCCESS                       *
               *           SCF CONVERGED AFTER  17 CYCLES          *
               *****************************************************


----------------
TOTAL SCF ENERGY
----------------

Total Energy       :         -395.90091913 Eh          -10773.01170 eV

Components:
Nuclear Repulsion  :           37.26850015 Eh            1014.12745 eV
Electronic Energy  :         -433.16941927 Eh          -11787.13915 eV
One Electron Energy:         -620.14816677 Eh          -16875.08953 eV
Two Electron Energy:          186.97874750 Eh            5087.95039 eV

Virial components:
Potential Energy   :         -791.35591136 Eh          -21533.88911 eV
Kinetic Energy     :          395.45499223 Eh           10760.87741 eV
Virial Ratio       :            2.00112763


DFT components:
N(Alpha)           :       10.999999441877 electrons
N(Beta)            :       10.999999441877 electrons
N(Total)           :       21.999998883754 electrons
E(X)               :      -29.047393705255 Eh       
E(C)               :       -0.784597986379 Eh       
E(XC)              :      -29.831991691634 Eh       
DFET-embed. en.    :        0.000000000000 Eh       

---------------
SCF CONVERGENCE
---------------

  Last Energy change         ...    1.7053e-13  Tolerance :   1.0000e-09
  Last MAX-Density change    ...    3.1721e-06  Tolerance :   1.0000e-08
  Last RMS-Density change    ...    2.9520e-08  Tolerance :   1.0000e-09
  Last DIIS Error            ...    4.5866e-08  Tolerance :   1.0000e-08

             **** THE GBW FILE WAS UPDATED (np_pbe.gbw) ****
             **** DENSITY FILE WAS UPDATED (np_pbe.scfp.tmp) ****
             **** ENERGY FILE WAS UPDATED (np_pbe.en.tmp) ****
----------------------
UHF SPIN CONTAMINATION
----------------------

Warning: in a DFT calculation there is little theoretical justification to 
         calculate <S**2> as in Hartree-Fock theory. We will do it anyways
         but you should keep in mind that the values have only limited relevance

Expectation value of <S**2>     :    -0.000000
Ideal value S*(S+1) for S=0.0   :     0.000000
Deviation                       :    -0.000000

----------------
ORBITAL ENERGIES
----------------
                 SPIN UP ORBITALS
  NO   OCC          E(Eh)            E(eV) 
   0   1.0000     -76.325598     -2076.9251 
   1   1.0000     -14.018850      -381.4723 
   2   1.0000      -6.347878      -172.7345 
   3   1.0000      -4.564181      -124.1977 
   4   1.0000      -4.564181      -124.1977 
   5   1.0000      -4.558054      -124.0309 
   6   1.0000      -0.778333       -21.1795 
   7   1.0000      -0.451002       -12.2724 
   8   1.0000      -0.306565        -8.3421 
   9   1.0000      -0.306565        -8.3421 
  10   1.0000      -0.284881        -7.7520 
  11   0.0000      -0.125076        -3.4035 
  12   0.0000      -0.125076        -3.4035 
  13   0.0000      -0.012516        -0.3406 
  14   0.0000      -0.006396        -0.1740 
  15   0.0000       0.016771         0.4563 
  16   0.0000       0.016771         0.4563 
  17   0.0000       0.036225         0.9857 
  18   0.0000       0.050811         1.3826 
  19   0.0000       0.053982         1.4689 
  20   0.0000       0.053982         1.4689 
  21   0.0000       0.060851         1.6558 
  22   0.0000       0.060851         1.6558 
  23   0.0000       0.087322         2.3762 
  24   0.0000       0.089735         2.4418 
  25   0.0000       0.089735         2.4418 
  26   0.0000       0.104889         2.8542 
  27   0.0000       0.118178         3.2158 
  28   0.0000       0.118178         3.2158 
  29   0.0000       0.149028         4.0552 
  30   0.0000       0.167610         4.5609 
  31   0.0000       0.176201         4.7947 
  32   0.0000       0.176201         4.7947 
  33   0.0000       0.181231         4.9315 
  34   0.0000       0.181231         4.9315 
  35   0.0000       0.184547         5.0218 
  36   0.0000       0.184547         5.0218 
  37   0.0000       0.187346         5.0979 
  38   0.0000       0.187346         5.0979 
  39   0.0000       0.226564         6.1651 
  40   0.0000       0.226564         6.1651 
  41   0.0000       0.234602         6.3838 
  42   0.0000       0.238325         6.4852 
  43   0.0000       0.247055         6.7227 
  44   0.0000       0.247055         6.7227 
  45   0.0000       0.291512         7.9324 
  46   0.0000       0.291512         7.9324 
  47   0.0000       0.299318         8.1449 
  48   0.0000       0.308353         8.3907 
  49   0.0000       0.308353         8.3907 
  50   0.0000       0.330139         8.9835 
  51   0.0000       0.330139         8.9835 
  52   0.0000       0.340120         9.2551 
  53   0.0000       0.340120         9.2551 
  54   0.0000       0.380715        10.3598 
  55   0.0000       0.380715        10.3598 
  56   0.0000       0.381399        10.3784 
  57   0.0000       0.389104        10.5880 
  58   0.0000       0.395057        10.7500 
  59   0.0000       0.395057        10.7500 
  60   0.0000       0.438730        11.9384 
  61   0.0000       0.438730        11.9384 
  62   0.0000       0.441894        12.0245 
  63   0.0000       0.441894        12.0245 
  64   0.0000       0.451580        12.2881 
  65   0.0000       0.470960        12.8155 
  66   0.0000       0.470960        12.8155 
  67   0.0000       0.487944        13.2776 
  68   0.0000       0.487944        13.2776 
  69   0.0000       0.505058        13.7433 
  70   0.0000       0.505058        13.7433 
  71   0.0000       0.512612        13.9489 
  72   0.0000       0.520180        14.1548 
  73   0.0000       0.520180        14.1548 
  74   0.0000       0.525871        14.3097 
  75   0.0000       0.525871        14.3097 
  76   0.0000       0.532224        14.4826 
  77   0.0000       0.532224        14.4826 
  78   0.0000       0.536269        14.5926 
  79   0.0000       0.536269        14.5926 
  80   0.0000       0.544639        14.8204 
  81   0.0000       0.609320        16.5804 
  82   0.0000       0.614718        16.7273 
  83   0.0000       0.614718        16.7273 
  84   0.0000       0.615335        16.7441 
  85   0.0000       0.615335        16.7441 
  86   0.0000       0.659009        17.9326 
  87   0.0000       0.659009        17.9326 
  88   0.0000       0.698178        18.9984 
  89   0.0000       0.710086        19.3224 
  90   0.0000       0.710086        19.3224 
  91   0.0000       0.765551        20.8317 
  92   0.0000       0.765551        20.8317 
  93   0.0000       0.782892        21.3036 
  94   0.0000       0.792382        21.5618 
  95   0.0000       0.792382        21.5618 
  96   0.0000       0.797841        21.7104 
  97   0.0000       0.797841        21.7104 
  98   0.0000       0.860449        23.4140 
  99   0.0000       0.860450        23.4140 
 100   0.0000       0.866545        23.5799 
 101   0.0000       0.866545        23.5799 
 102   0.0000       0.885805        24.1040 
 103   0.0000       0.885805        24.1040 
 104   0.0000       0.892378        24.2828 
 105   0.0000       0.892553        24.2876 
 106   0.0000       0.892553        24.2876 
 107   0.0000       0.914029        24.8720 
 108   0.0000       0.927246        25.2317 
 109   0.0000       0.927246        25.2317 
 110   0.0000       0.944106        25.6904 
 111   0.0000       0.944106        25.6904 
 112   0.0000       0.966031        26.2870 
 113   0.0000       0.966031        26.2870 
 114   0.0000       0.992847        27.0167 
 115   0.0000       1.088151        29.6101 
 116   0.0000       1.135845        30.9079 
 117   0.0000       1.135845        30.9079 
 118   0.0000       1.144221        31.1358 
 119   0.0000       1.144221        31.1358 
 120   0.0000       1.152952        31.3734 
 121   0.0000       1.247912        33.9574 
 122   0.0000       1.247912        33.9574 
 123   0.0000       1.268735        34.5240 
 124   0.0000       1.292594        35.1733 
 125   0.0000       1.292594        35.1733 
 126   0.0000       1.339384        36.4465 
 127   0.0000       1.339384        36.4465 
 128   0.0000       1.502679        40.8900 
 129   0.0000       1.502679        40.8900 
 130   0.0000       1.557633        42.3853 
 131   0.0000       1.623210        44.1698 
 132   0.0000       1.623210        44.1698 
 133   0.0000       1.686789        45.8999 
 134   0.0000       1.748488        47.5788 
 135   0.0000       1.748488        47.5788 
 136   0.0000       1.991462        54.1904 
 137   0.0000       1.991462        54.1904 
 138   0.0000       1.992818        54.2273 
 139   0.0000       2.038859        55.4802 
 140   0.0000       2.038860        55.4802 
 141   0.0000       2.059160        56.0326 
 142   0.0000       2.059160        56.0326 
 143   0.0000       2.277028        61.9611 
 144   0.0000       2.277028        61.9611 
 145   0.0000       2.301257        62.6204 
 146   0.0000       2.301257        62.6204 
 147   0.0000       2.362445        64.2854 
 148   0.0000       2.362445        64.2854 
 149   0.0000       2.398108        65.2558 
 150   0.0000       2.533550        68.9414 
 151   0.0000       2.666556        72.5607 
 152   0.0000       2.734451        74.4082 
 153   0.0000       2.734451        74.4082 
 154   0.0000       2.799113        76.1677 
 155   0.0000       2.829604        76.9974 
 156   0.0000       2.829604        76.9974 
 157   0.0000       2.908330        79.1397 
 158   0.0000       2.908332        79.1397 
 159   0.0000       2.909175        79.1627 
 160   0.0000       2.909175        79.1627 
 161   0.0000       2.912964        79.2658 
 162   0.0000       2.912964        79.2658 
 163   0.0000       2.985642        81.2435 
 164   0.0000       2.985642        81.2435 
 165   0.0000       3.036011        82.6141 
 166   0.0000       3.196564        86.9829 
 167   0.0000       3.196564        86.9829 
 168   0.0000       3.405382        92.6651 
 169   0.0000       3.523095        95.8683 
 170   0.0000       3.523095        95.8683 
 171   0.0000       3.563516        96.9682 
 172   0.0000       3.836141       104.3867 
 173   0.0000       3.836141       104.3867 
 174   0.0000       3.977789       108.2411 
 175   0.0000       4.336683       118.0071 
 176   0.0000       4.336683       118.0071 
 177   0.0000       4.440826       120.8410 
 178   0.0000       4.440827       120.8410 
 179   0.0000       4.603375       125.2642 
 180   0.0000       4.603379       125.2643 
 181   0.0000       4.606371       125.3457 
 182   0.0000       4.606371       125.3457 
 183   0.0000       4.682644       127.4212 
 184   0.0000       4.682644       127.4212 
 185   0.0000       4.817801       131.0990 
 186   0.0000       4.817801       131.0990 
 187   0.0000       4.864508       132.3700 
 188   0.0000       5.079105       138.2095 
 189   0.0000       5.079123       138.2100 
 190   0.0000       5.244638       142.7139 
 191   0.0000       5.244640       142.7139 
 192   0.0000       5.285171       143.8168 
 193   0.0000       5.314702       144.6204 
 194   0.0000       5.314706       144.6205 
 195   0.0000       5.318083       144.7124 
 196   0.0000       5.318083       144.7124 
 197   0.0000       5.670750       154.3089 
 198   0.0000       5.670750       154.3089 
 199   0.0000       5.708258       155.3296 
 200   0.0000       6.121843       166.5838 
 201   0.0000       6.121843       166.5838 
 202   0.0000       6.499904       176.8714 
 203   0.0000       6.499907       176.8715 
 204   0.0000       6.518682       177.3824 
 205   0.0000       6.580899       179.0754 
 206   0.0000       6.580899       179.0754 
 207   0.0000       6.710749       182.6088 
 208   0.0000       6.868996       186.9149 
 209   0.0000       6.869002       186.9150 
 210   0.0000       7.027172       191.2191 
 211   0.0000       7.027172       191.2191 
 212   0.0000       7.299342       198.6252 
 213   0.0000       7.299346       198.6253 
 214   0.0000       7.306971       198.8328 
 215   0.0000       7.306971       198.8328 
 216   0.0000       7.350844       200.0266 
 217   0.0000       7.465174       203.1377 
 218   0.0000       7.465177       203.1378 
 219   0.0000       8.159547       222.0326 
 220   0.0000       8.187668       222.7978 
 221   0.0000       8.187668       222.7978 
 222   0.0000       8.804595       239.5852 
 223   0.0000       8.966145       243.9812 
 224   0.0000       8.966145       243.9812 
 225   0.0000      10.084838       274.4224 
 226   0.0000      10.271984       279.5149 
 227   0.0000      10.271990       279.5151 
 228   0.0000      10.274861       279.5932 
 229   0.0000      10.274861       279.5932 
 230   0.0000      11.020439       299.8814 
 231   0.0000      11.020439       299.8814 
 232   0.0000      11.132676       302.9355 
 233   0.0000      11.132676       302.9355 
 234   0.0000      11.309593       307.7497 
 235   0.0000      11.309604       307.7500 
 236   0.0000      11.381366       309.7027 
 237   0.0000      11.381366       309.7027 
 238   0.0000      11.386604       309.8452 
 239   0.0000      11.386622       309.8457 
 240   0.0000      11.420265       310.7612 
 241   0.0000      11.420265       310.7612 
 242   0.0000      11.539308       314.0005 
 243   0.0000      11.539308       314.0005 
 244   0.0000      11.586872       315.2948 
 245   0.0000      11.791514       320.8634 
 246   0.0000      11.973295       325.8099 
 247   0.0000      11.973296       325.8100 
 248   0.0000      12.943353       352.2066 
 249   0.0000      12.943353       352.2066 
 250   0.0000      13.300413       361.9226 
 251   0.0000      14.243607       387.5883 
 252   0.0000      14.243743       387.5919 
 253   0.0000      14.421489       392.4287 
 254   0.0000      14.421489       392.4287 
 255   0.0000      14.967884       407.2968 
 256   0.0000      14.967909       407.2975 
 257   0.0000      15.347112       417.6162 
 258   0.0000      15.435608       420.0243 
 259   0.0000      15.435608       420.0243 
 260   0.0000      16.058057       436.9619 
 261   0.0000      16.058068       436.9622 
 262   0.0000      16.390320       446.0033 
 263   0.0000      16.390320       446.0033 
 264   0.0000      16.755820       455.9490 
 265   0.0000      16.755861       455.9502 
 266   0.0000      17.376556       472.8401 
 267   0.0000      17.376556       472.8401 
 268   0.0000      17.448683       474.8028 
 269   0.0000      17.581489       478.4166 
 270   0.0000      21.476309       584.4001 
 271   0.0000      23.560751       641.1206 
 272   0.0000      25.890408       704.5138 
 273   0.0000      25.890408       704.5138 
 274   0.0000      27.319620       743.4047 
 275   0.0000      47.581263      1294.7520 
 276   0.0000      47.581407      1294.7559 
 277   0.0000      47.819233      1301.2275 
 278   0.0000      47.819233      1301.2275 
 279   0.0000      48.255323      1313.0941 
 280   0.0000      58.821329      1600.6097 
 281   0.0000      58.821336      1600.6099 
 282   0.0000      58.998374      1605.4274 
 283   0.0000      58.998374      1605.4274 
 284   0.0000      59.657997      1623.3766 
 285   0.0000     102.090277      2778.0177 

                 SPIN DOWN ORBITALS
  NO   OCC          E(Eh)            E(eV) 
   0   1.0000     -76.325598     -2076.9251 
   1   1.0000     -14.018850      -381.4723 
   2   1.0000      -6.347878      -172.7345 
   3   1.0000      -4.564181      -124.1977 
   4   1.0000      -4.564181      -124.1977 
   5   1.0000      -4.558054      -124.0309 
   6   1.0000      -0.778333       -21.1795 
   7   1.0000      -0.451002       -12.2724 
   8   1.0000      -0.306565        -8.3421 
   9   1.0000      -0.306565        -8.3421 
  10   1.0000      -0.284881        -7.7520 
  11   0.0000      -0.125076        -3.4035 
  12   0.0000      -0.125076        -3.4035 
  13   0.0000      -0.012516        -0.3406 
  14   0.0000      -0.006396        -0.1740 
  15   0.0000       0.016771         0.4563 
  16   0.0000       0.016771         0.4563 
  17   0.0000       0.036225         0.9857 
  18   0.0000       0.050811         1.3826 
  19   0.0000       0.053982         1.4689 
  20   0.0000       0.053982         1.4689 
  21   0.0000       0.060851         1.6558 
  22   0.0000       0.060851         1.6558 
  23   0.0000       0.087322         2.3762 
  24   0.0000       0.089735         2.4418 
  25   0.0000       0.089735         2.4418 
  26   0.0000       0.104889         2.8542 
  27   0.0000       0.118178         3.2158 
  28   0.0000       0.118178         3.2158 
  29   0.0000       0.149028         4.0552 
  30   0.0000       0.167610         4.5609 
  31   0.0000       0.176201         4.7947 
  32   0.0000       0.176201         4.7947 
  33   0.0000       0.181231         4.9315 
  34   0.0000       0.181231         4.9315 
  35   0.0000       0.184547         5.0218 
  36   0.0000       0.184547         5.0218 
  37   0.0000       0.187346         5.0979 
  38   0.0000       0.187346         5.0979 
  39   0.0000       0.226564         6.1651 
  40   0.0000       0.226564         6.1651 
  41   0.0000       0.234602         6.3838 
  42   0.0000       0.238325         6.4852 
  43   0.0000       0.247055         6.7227 
  44   0.0000       0.247055         6.7227 
  45   0.0000       0.291512         7.9324 
  46   0.0000       0.291512         7.9324 
  47   0.0000       0.299318         8.1449 
  48   0.0000       0.308353         8.3907 
  49   0.0000       0.308353         8.3907 
  50   0.0000       0.330139         8.9835 
  51   0.0000       0.330139         8.9835 
  52   0.0000       0.340120         9.2551 
  53   0.0000       0.340120         9.2551 
  54   0.0000       0.380715        10.3598 
  55   0.0000       0.380715        10.3598 
  56   0.0000       0.381399        10.3784 
  57   0.0000       0.389104        10.5880 
  58   0.0000       0.395057        10.7500 
  59   0.0000       0.395057        10.7500 
  60   0.0000       0.438730        11.9384 
  61   0.0000       0.438730        11.9384 
  62   0.0000       0.441894        12.0245 
  63   0.0000       0.441894        12.0245 
  64   0.0000       0.451580        12.2881 
  65   0.0000       0.470960        12.8155 
  66   0.0000       0.470960        12.8155 
  67   0.0000       0.487944        13.2776 
  68   0.0000       0.487944        13.2776 
  69   0.0000       0.505058        13.7433 
  70   0.0000       0.505058        13.7433 
  71   0.0000       0.512612        13.9489 
  72   0.0000       0.520180        14.1548 
  73   0.0000       0.520180        14.1548 
  74   0.0000       0.525871        14.3097 
  75   0.0000       0.525871        14.3097 
  76   0.0000       0.532224        14.4826 
  77   0.0000       0.532224        14.4826 
  78   0.0000       0.536269        14.5926 
  79   0.0000       0.536269        14.5926 
  80   0.0000       0.544639        14.8204 
  81   0.0000       0.609320        16.5804 
  82   0.0000       0.614718        16.7273 
  83   0.0000       0.614718        16.7273 
  84   0.0000       0.615335        16.7441 
  85   0.0000       0.615335        16.7441 
  86   0.0000       0.659009        17.9326 
  87   0.0000       0.659009        17.9326 
  88   0.0000       0.698178        18.9984 
  89   0.0000       0.710086        19.3224 
  90   0.0000       0.710086        19.3224 
  91   0.0000       0.765551        20.8317 
  92   0.0000       0.765551        20.8317 
  93   0.0000       0.782892        21.3036 
  94   0.0000       0.792382        21.5618 
  95   0.0000       0.792382        21.5618 
  96   0.0000       0.797841        21.7104 
  97   0.0000       0.797841        21.7104 
  98   0.0000       0.860449        23.4140 
  99   0.0000       0.860450        23.4140 
 100   0.0000       0.866545        23.5799 
 101   0.0000       0.866545        23.5799 
 102   0.0000       0.885805        24.1040 
 103   0.0000       0.885805        24.1040 
 104   0.0000       0.892378        24.2828 
 105   0.0000       0.892553        24.2876 
 106   0.0000       0.892553        24.2876 
 107   0.0000       0.914029        24.8720 
 108   0.0000       0.927246        25.2317 
 109   0.0000       0.927246        25.2317 
 110   0.0000       0.944106        25.6904 
 111   0.0000       0.944106        25.6904 
 112   0.0000       0.966031        26.2870 
 113   0.0000       0.966031        26.2870 
 114   0.0000       0.992847        27.0167 
 115   0.0000       1.088151        29.6101 
 116   0.0000       1.135845        30.9079 
 117   0.0000       1.135845        30.9079 
 118   0.0000       1.144221        31.1358 
 119   0.0000       1.144221        31.1358 
 120   0.0000       1.152952        31.3734 
 121   0.0000       1.247912        33.9574 
 122   0.0000       1.247912        33.9574 
 123   0.0000       1.268735        34.5240 
 124   0.0000       1.292594        35.1733 
 125   0.0000       1.292594        35.1733 
 126   0.0000       1.339384        36.4465 
 127   0.0000       1.339384        36.4465 
 128   0.0000       1.502679        40.8900 
 129   0.0000       1.502679        40.8900 
 130   0.0000       1.557633        42.3853 
 131   0.0000       1.623210        44.1698 
 132   0.0000       1.623210        44.1698 
 133   0.0000       1.686789        45.8999 
 134   0.0000       1.748488        47.5788 
 135   0.0000       1.748488        47.5788 
 136   0.0000       1.991462        54.1904 
 137   0.0000       1.991462        54.1904 
 138   0.0000       1.992818        54.2273 
 139   0.0000       2.038859        55.4802 
 140   0.0000       2.038860        55.4802 
 141   0.0000       2.059160        56.0326 
 142   0.0000       2.059160        56.0326 
 143   0.0000       2.277028        61.9611 
 144   0.0000       2.277028        61.9611 
 145   0.0000       2.301257        62.6204 
 146   0.0000       2.301257        62.6204 
 147   0.0000       2.362445        64.2854 
 148   0.0000       2.362445        64.2854 
 149   0.0000       2.398108        65.2558 
 150   0.0000       2.533550        68.9414 
 151   0.0000       2.666556        72.5607 
 152   0.0000       2.734451        74.4082 
 153   0.0000       2.734451        74.4082 
 154   0.0000       2.799113        76.1677 
 155   0.0000       2.829604        76.9974 
 156   0.0000       2.829604        76.9974 
 157   0.0000       2.908330        79.1397 
 158   0.0000       2.908332        79.1397 
 159   0.0000       2.909175        79.1627 
 160   0.0000       2.909175        79.1627 
 161   0.0000       2.912964        79.2658 
 162   0.0000       2.912964        79.2658 
 163   0.0000       2.985642        81.2435 
 164   0.0000       2.985642        81.2435 
 165   0.0000       3.036011        82.6141 
 166   0.0000       3.196564        86.9829 
 167   0.0000       3.196564        86.9829 
 168   0.0000       3.405382        92.6651 
 169   0.0000       3.523095        95.8683 
 170   0.0000       3.523095        95.8683 
 171   0.0000       3.563516        96.9682 
 172   0.0000       3.836141       104.3867 
 173   0.0000       3.836141       104.3867 
 174   0.0000       3.977789       108.2411 
 175   0.0000       4.336683       118.0071 
 176   0.0000       4.336683       118.0071 
 177   0.0000       4.440826       120.8410 
 178   0.0000       4.440827       120.8410 
 179   0.0000       4.603375       125.2642 
 180   0.0000       4.603379       125.2643 
 181   0.0000       4.606371       125.3457 
 182   0.0000       4.606371       125.3457 
 183   0.0000       4.682644       127.4212 
 184   0.0000       4.682644       127.4212 
 185   0.0000       4.817801       131.0990 
 186   0.0000       4.817801       131.0990 
 187   0.0000       4.864508       132.3700 
 188   0.0000       5.079105       138.2095 
 189   0.0000       5.079123       138.2100 
 190   0.0000       5.244638       142.7139 
 191   0.0000       5.244640       142.7139 
 192   0.0000       5.285171       143.8168 
 193   0.0000       5.314702       144.6204 
 194   0.0000       5.314706       144.6205 
 195   0.0000       5.318083       144.7124 
 196   0.0000       5.318083       144.7124 
 197   0.0000       5.670750       154.3089 
 198   0.0000       5.670750       154.3089 
 199   0.0000       5.708258       155.3296 
 200   0.0000       6.121843       166.5838 
 201   0.0000       6.121843       166.5838 
 202   0.0000       6.499904       176.8714 
 203   0.0000       6.499907       176.8715 
 204   0.0000       6.518682       177.3824 
 205   0.0000       6.580899       179.0754 
 206   0.0000       6.580899       179.0754 
 207   0.0000       6.710749       182.6088 
 208   0.0000       6.868996       186.9149 
 209   0.0000       6.869002       186.9150 
 210   0.0000       7.027172       191.2191 
 211   0.0000       7.027172       191.2191 
 212   0.0000       7.299342       198.6252 
 213   0.0000       7.299346       198.6253 
 214   0.0000       7.306971       198.8328 
 215   0.0000       7.306971       198.8328 
 216   0.0000       7.350844       200.0266 
 217   0.0000       7.465174       203.1377 
 218   0.0000       7.465177       203.1378 
 219   0.0000       8.159547       222.0326 
 220   0.0000       8.187668       222.7978 
 221   0.0000       8.187668       222.7978 
 222   0.0000       8.804595       239.5852 
 223   0.0000       8.966145       243.9812 
 224   0.0000       8.966145       243.9812 
 225   0.0000      10.084838       274.4224 
 226   0.0000      10.271984       279.5149 
 227   0.0000      10.271990       279.5151 
 228   0.0000      10.274861       279.5932 
 229   0.0000      10.274861       279.5932 
 230   0.0000      11.020439       299.8814 
 231   0.0000      11.020439       299.8814 
 232   0.0000      11.132676       302.9355 
 233   0.0000      11.132676       302.9355 
 234   0.0000      11.309593       307.7497 
 235   0.0000      11.309604       307.7500 
 236   0.0000      11.381366       309.7027 
 237   0.0000      11.381366       309.7027 
 238   0.0000      11.386604       309.8452 
 239   0.0000      11.386622       309.8457 
 240   0.0000      11.420265       310.7612 
 241   0.0000      11.420265       310.7612 
 242   0.0000      11.539308       314.0005 
 243   0.0000      11.539308       314.0005 
 244   0.0000      11.586872       315.2948 
 245   0.0000      11.791514       320.8634 
 246   0.0000      11.973295       325.8099 
 247   0.0000      11.973296       325.8100 
 248   0.0000      12.943353       352.2066 
 249   0.0000      12.943353       352.2066 
 250   0.0000      13.300413       361.9226 
 251   0.0000      14.243607       387.5883 
 252   0.0000      14.243743       387.5919 
 253   0.0000      14.421489       392.4287 
 254   0.0000      14.421489       392.4287 
 255   0.0000      14.967884       407.2968 
 256   0.0000      14.967909       407.2975 
 257   0.0000      15.347112       417.6162 
 258   0.0000      15.435608       420.0243 
 259   0.0000      15.435608       420.0243 
 260   0.0000      16.058057       436.9619 
 261   0.0000      16.058068       436.9622 
 262   0.0000      16.390320       446.0033 
 263   0.0000      16.390320       446.0033 
 264   0.0000      16.755820       455.9490 
 265   0.0000      16.755861       455.9502 
 266   0.0000      17.376556       472.8401 
 267   0.0000      17.376556       472.8401 
 268   0.0000      17.448683       474.8028 
 269   0.0000      17.581489       478.4166 
 270   0.0000      21.476309       584.4001 
 271   0.0000      23.560751       641.1206 
 272   0.0000      25.890408       704.5138 
 273   0.0000      25.890408       704.5138 
 274   0.0000      27.319620       743.4047 
 275   0.0000      47.581263      1294.7520 
 276   0.0000      47.581407      1294.7559 
 277   0.0000      47.819233      1301.2275 
 278   0.0000      47.819233      1301.2275 
 279   0.0000      48.255323      1313.0941 
 280   0.0000      58.821329      1600.6097 
 281   0.0000      58.821336      1600.6099 
 282   0.0000      58.998374      1605.4274 
 283   0.0000      58.998374      1605.4274 
 284   0.0000      59.657997      1623.3766 
 285   0.0000     102.090277      2778.0177 

                    ********************************
                    * MULLIKEN POPULATION ANALYSIS *
                    ********************************

--------------------------------------------
MULLIKEN ATOMIC CHARGES AND SPIN POPULATIONS
--------------------------------------------
   0 N :   -0.208543   -0.000000
   1 P :    0.208543    0.000000
Sum of atomic charges         :   -0.0000000
Sum of atomic spin populations:    0.0000000

-----------------------------------------------------
MULLIKEN REDUCED ORBITAL CHARGES AND SPIN POPULATIONS
-----------------------------------------------------
CHARGE
  0 N s       :     3.830701  s :     3.830701
      pz      :     1.224875  p :     3.331953
      px      :     1.053539
      py      :     1.053539
      dz2     :     0.010832  d :     0.044837
      dxz     :     0.017002
      dyz     :     0.017002
      dx2y2   :     0.000000
      dxy     :    -0.000000
      f0      :    -0.000540  f :     0.000860
      f+1     :     0.000700
      f-1     :     0.000700
      f+2     :     0.000000
      f-2     :     0.000000
      f+3     :     0.000000
      f-3     :     0.000000
      g0      :    -0.000212  g :     0.000057
      g+1     :     0.000134
      g-1     :     0.000134
      g+2     :     0.000000
      g-2     :     0.000000
      g+3     :     0.000000
      g-3     :     0.000000
      g+4     :     0.000000
      g-4     :     0.000000
      h0      :     0.000025  h :     0.000135
      h+1     :     0.000055
      h-1     :     0.000055
      h+2     :     0.000000
      h-2     :     0.000000
      h+3     :     0.000000
      h-3     :     0.000000
      h+4     :     0.000000
      h-4     :    -0.000000
      h+5     :     0.000000
      h-5     :     0.000000
  1 P s       :     5.860067  s :     5.860067
      pz      :     3.006266  p :     8.753000
      px      :     2.873367
      py      :     2.873367
      dz2     :     0.059413  d :     0.152598
      dxz     :     0.046593
      dyz     :     0.046593
      dx2y2   :    -0.000000
      dxy     :     0.000000
      f0      :     0.006918  f :     0.020727
      f+1     :     0.006904
      f-1     :     0.006904
      f+2     :     0.000000
      f-2     :     0.000000
      f+3     :     0.000000
      f-3     :     0.000000
      g0      :     0.001399  g :     0.004446
      g+1     :     0.001524
      g-1     :     0.001524
      g+2     :     0.000000
      g-2     :     0.000000
      g+3     :     0.000000
      g-3     :     0.000000
      g+4     :     0.000000
      g-4     :     0.000000
      h0      :     0.000255  h :     0.000619
      h+1     :     0.000182
      h-1     :     0.000182
      h+2     :    -0.000000
      h-2     :    -0.000000
      h+3     :     0.000000
      h-3     :     0.000000
      h+4     :     0.000000
      h-4     :     0.000000
      h+5     :     0.000000
      h-5     :     0.000000

SPIN
  0 N s       :    -0.000000  s :    -0.000000
      pz      :    -0.000000  p :    -0.000000
      px      :    -0.000000
      py      :     0.000000
      dz2     :    -0.000000  d :    -0.000000
      dxz     :    -0.000000
      dyz     :     0.000000
      dx2y2   :     0.000000
      dxy     :    -0.000000
      f0      :    -0.000000  f :    -0.000000
      f+1     :    -0.000000
      f-1     :     0.000000
      f+2     :     0.000000
      f-2     :     0.000000
      f+3     :    -0.000000
      f-3     :    -0.000000
      g0      :     0.000000  g :     0.000000
      g+1     :    -0.000000
      g-1     :     0.000000
      g+2     :     0.000000
      g-2     :     0.000000
      g+3     :     0.000000
      g-3     :    -0.000000
      g+4     :     0.000000
      g-4     :     0.000000
      h0      :     0.000000  h :     0.000000
      h+1     :    -0.000000
      h-1     :     0.000000
      h+2     :     0.000000
      h-2     :     0.000000
      h+3     :     0.000000
      h-3     :    -0.000000
      h+4     :    -0.000000
      h-4     :     0.000000
      h+5     :     0.000000
      h-5     :    -0.000000
  1 P s       :     0.000000  s :     0.000000
      pz      :     0.000000  p :     0.000000
      px      :     0.000000
      py      :    -0.000000
      dz2     :     0.000000  d :     0.000000
      dxz     :    -0.000000
      dyz     :    -0.000000
      dx2y2   :    -0.000000
      dxy     :    -0.000000
      f0      :     0.000000  f :     0.000000
      f+1     :    -0.000000
      f-1     :    -0.000000
      f+2     :     0.000000
      f-2     :     0.000000
      f+3     :     0.000000
      f-3     :     0.000000
      g0      :     0.000000  g :     0.000000
      g+1     :    -0.000000
      g-1     :    -0.000000
      g+2     :     0.000000
      g-2     :    -0.000000
      g+3     :     0.000000
      g-3     :    -0.000000
      g+4     :    -0.000000
      g-4     :    -0.000000
      h0      :     0.000000  h :     0.000000
      h+1     :    -0.000000
      h-1     :    -0.000000
      h+2     :     0.000000
      h-2     :    -0.000000
      h+3     :    -0.000000
      h-3     :     0.000000
      h+4     :    -0.000000
      h-4     :     0.000000
      h+5     :    -0.000000
      h-5     :     0.000000


                     *******************************
                     * LOEWDIN POPULATION ANALYSIS *
                     *******************************

-------------------------------------------
LOEWDIN ATOMIC CHARGES AND SPIN POPULATIONS
-------------------------------------------
   0 N :   -0.816006   -0.000000
   1 P :    0.816006    0.000000

----------------------------------------------------
LOEWDIN REDUCED ORBITAL CHARGES AND SPIN POPULATIONS
----------------------------------------------------
CHARGE
  0 N s       :     3.424920  s :     3.424920
      pz      :     1.681291  p :     3.749542
      px      :     1.034125
      py      :     1.034125
      dz2     :     0.224294  d :     0.417293
      dxz     :     0.096499
      dyz     :     0.096499
      dx2y2   :     0.000000
      dxy     :     0.000000
      f0      :     0.089844  f :     0.159995
      f+1     :     0.035075
      f-1     :     0.035075
      f+2     :     0.000000
      f-2     :     0.000000
      f+3     :     0.000000
      f-3     :     0.000000
      g0      :     0.024814  g :     0.048655
      g+1     :     0.011921
      g-1     :     0.011921
      g+2     :     0.000000
      g-2     :     0.000000
      g+3     :     0.000000
      g-3     :     0.000000
      g+4     :     0.000000
      g-4     :     0.000000
      h0      :     0.007285  h :     0.015603
      h+1     :     0.004159
      h-1     :     0.004159
      h+2     :     0.000000
      h-2     :     0.000000
      h+3     :     0.000000
      h-3     :     0.000000
      h+4     :     0.000000
      h-4     :     0.000000
      h+5     :     0.000000
      h-5     :     0.000000
  1 P s       :     5.166228  s :     5.166228
      pz      :     3.018847  p :     8.390101
      px      :     2.685627
      py      :     2.685627
      dz2     :     0.253620  d :     0.415342
      dxz     :     0.080861
      dyz     :     0.080861
      dx2y2   :     0.000000
      dxy     :     0.000000
      f0      :     0.078985  f :     0.143875
      f+1     :     0.032445
      f-1     :     0.032445
      f+2     :     0.000000
      f-2     :     0.000000
      f+3     :     0.000000
      f-3     :     0.000000
      g0      :     0.023072  g :     0.052069
      g+1     :     0.014498
      g-1     :     0.014498
      g+2     :     0.000000
      g-2     :     0.000000
      g+3     :     0.000000
      g-3     :     0.000000
      g+4     :     0.000000
      g-4     :     0.000000
      h0      :     0.006801  h :     0.016379
      h+1     :     0.004789
      h-1     :     0.004789
      h+2     :     0.000000
      h-2     :     0.000000
      h+3     :     0.000000
      h-3     :     0.000000
      h+4     :     0.000000
      h-4     :     0.000000
      h+5     :     0.000000
      h-5     :     0.000000

SPIN
  0 N s       :    -0.000000  s :    -0.000000
      pz      :    -0.000000  p :    -0.000000
      px      :     0.000000
      py      :     0.000000
      dz2     :     0.000000  d :     0.000000
      dxz     :    -0.000000
      dyz     :     0.000000
      dx2y2   :     0.000000
      dxy     :     0.000000
      f0      :    -0.000000  f :    -0.000000
      f+1     :    -0.000000
      f-1     :    -0.000000
      f+2     :     0.000000
      f-2     :     0.000000
      f+3     :    -0.000000
      f-3     :    -0.000000
      g0      :     0.000000  g :     0.000000
      g+1     :     0.000000
      g-1     :    -0.000000
      g+2     :     0.000000
      g-2     :     0.000000
      g+3     :     0.000000
      g-3     :    -0.000000
      g+4     :     0.000000
      g-4     :    -0.000000
      h0      :     0.000000  h :    -0.000000
      h+1     :     0.000000
      h-1     :    -0.000000
      h+2     :     0.000000
      h-2     :     0.000000
      h+3     :     0.000000
      h-3     :    -0.000000
      h+4     :    -0.000000
      h-4     :     0.000000
      h+5     :     0.000000
      h-5     :    -0.000000
  1 P s       :     0.000000  s :     0.000000
      pz      :     0.000000  p :     0.000000
      px      :     0.000000
      py      :     0.000000
      dz2     :     0.000000  d :     0.000000
      dxz     :    -0.000000
      dyz     :     0.000000
      dx2y2   :    -0.000000
      dxy     :    -0.000000
      f0      :     0.000000  f :    -0.000000
      f+1     :     0.000000
      f-1     :    -0.000000
      f+2     :     0.000000
      f-2     :     0.000000
      f+3     :     0.000000
      f-3     :    -0.000000
      g0      :     0.000000  g :     0.000000
      g+1     :     0.000000
      g-1     :    -0.000000
      g+2     :     0.000000
      g-2     :    -0.000000
      g+3     :     0.000000
      g-3     :    -0.000000
      g+4     :    -0.000000
      g-4     :    -0.000000
      h0      :    -0.000000  h :    -0.000000
      h+1     :    -0.000000
      h-1     :     0.000000
      h+2     :     0.000000
      h-2     :    -0.000000
      h+3     :    -0.000000
      h-3     :     0.000000
      h+4     :    -0.000000
      h-4     :     0.000000
      h+5     :    -0.000000
      h-5     :     0.000000


                      *****************************
                      * MAYER POPULATION ANALYSIS *
                      *****************************

  NA   - Mulliken gross atomic population
  ZA   - Total nuclear charge
  QA   - Mulliken gross atomic charge
  VA   - Mayer's total valence
  BVA  - Mayer's bonded valence
  FA   - Mayer's free valence

  ATOM       NA         ZA         QA         VA         BVA        FA
  0 N      7.2085     7.0000    -0.2085     2.9038     2.9038    -0.0000
  1 P     14.7915    15.0000     0.2085     2.9038     2.9038    -0.0000

  Mayer bond orders larger than 0.1
B(  0-N ,  1-P ) :   2.9038 

-------
TIMINGS
-------

Total SCF time: 0 days 0 hours 8 min 53 sec 

Total time                  ....     533.576 sec
Sum of individual times     ....     532.894 sec  ( 99.9%)

Fock matrix formation       ....     530.799 sec  ( 99.5%)
  XC integration            ....      10.357 sec  (  2.0% of F)
    Basis function eval.    ....       0.719 sec  (  6.9% of XC)
    Density eval.           ....       1.741 sec  ( 16.8% of XC)
    XC-Functional eval.     ....       0.140 sec  (  1.3% of XC)
    XC-Potential eval.      ....       5.763 sec  ( 55.6% of XC)
Diagonalization             ....       0.780 sec  (  0.1%)
Density matrix formation    ....       0.017 sec  (  0.0%)
Population analysis         ....       0.094 sec  (  0.0%)
Initial guess               ....       0.431 sec  (  0.1%)
Orbital Transformation      ....       0.000 sec  (  0.0%)
Orbital Orthonormalization  ....       0.000 sec  (  0.0%)
DIIS solution               ....       0.476 sec  (  0.1%)
Grid generation             ....       0.298 sec  (  0.1%)

-------------------------   --------------------
FINAL SINGLE POINT ENERGY      -395.900919125422
-------------------------   --------------------


                            ***************************************
                            *     ORCA property calculations      *
                            ***************************************

                                    ---------------------
                                    Active property flags
                                    ---------------------
   (+) Dipole Moment
   (+) Polarizability


------------------------------------------------------------------------------
                       ORCA ELECTRIC PROPERTIES CALCULATION
------------------------------------------------------------------------------

Dipole Moment Calculation                       ... on
Quadrupole Moment Calculation                   ... off
Polarizability Calculation                      ... Analytic (CP-SCF)
GBWName                                         ... np_pbe.gbw
Electron density file                           ... np_pbe.scfp.tmp
The origin for moment calculation is the CENTER OF MASS  = ( 0.000000,  0.000000  0.877331)

-------------
DIPOLE MOMENT
-------------
                                X             Y             Z
Electronic contribution:     -0.00000      -0.00000      -1.49114
Nuclear contribution   :      0.00000       0.00000       0.42047
                        -----------------------------------------
Total Dipole Moment    :     -0.00000      -0.00000      -1.07067
                        -----------------------------------------
Magnitude (a.u.)       :      1.07067
Magnitude (Debye)      :      2.72143



--------------------
Rotational spectrum 
--------------------
 
Rotational constants in cm-1:     0.000000     0.786297     0.786297 
Rotational constants in MHz :     0.000000 23572.587586 23572.587586 

 Dipole components along the rotational axes: 
x,y,z [a.u.] :    -1.070673    -0.000000    -0.000000 
x,y,z [Debye]:    -2.721433    -0.000000    -0.000000 

 
Transforming and storing MO dipole integrals   ... done

                ... starting polarizability calculation

Opening the Dipole integral file               ... (np_pbe.dmo.tmp) done
Reading Dipole-MO integrals                    ... done
Solving CP-SCF equations                       ... 

           ************************************************************
           *        Program running with 4 parallel MPI-processes     *
           *              working on a common directory               *
           ************************************************************

------------------------------------------------------------------------------
                           ORCA CP-SCF CALCULATION
------------------------------------------------------------------------------

Input orbitals are from        ... np_pbe.gbw
Input Perturbation             ... np_pbe.cpv.tmp
Wavefunction output            ... np_pbe.cpu.tmp
Perturbation mode              ... Real perturbation (singlet)
Solver                         ... POPLE
Max. number of iterations      ... 200
Convergence tolerance          ... 1.000e-06
Integral handling              ... Direct
Number of perturbations        ... 3
Number of operators            ... 2
Orbital ranges used for CP-SCF:
 Operator 0:  Orbitals   0... 10  to  11...285
 Operator 1:  Orbitals   0... 10  to  11...285
DFT calculation                         ... on
Exchange functional (SCF)               ... PBE
Exchange functional (CP-SCF)            ... PBE
   PBE kappa parameter  XKappa (SCF)    ...  0.804000
   PBE kappa parameter  XKappa (CP-SCF) ...  0.804000
   PBE mue parameter   XMuePBE (SCF)    ...  0.219520
   PBE mue parameter   XMuePBE (CP-SCF) ...  0.219520
Correlation functional (SCF)            ... PBE
Correlation functional (CP-SCF)         ... PBE
   PBE beta parameter CBetaPBE (SCF)    ...  0.066725
   PBE beta parameter CBetaPBE (CP-SCF) ...  0.066725
 LDA part of GGA corr.  LDAOpt (SCF)    ... PW91-LDA
 LDA part of GGA corr.  LDAOpt (CP-SCF) ... PW91-LDA
Variables per vector in CP-SCF ... 6050
Number of vectors sought       ... 3
Recalculating density on grid  ... done
Calculating the xc-kernel      ... done
     CP-SCF ITERATION   0: 
     CP-SCF ITERATION   1:      0.576574012146
     CP-SCF ITERATION   2:      0.006818436103
     CP-SCF ITERATION   3:      0.000056561906
     CP-SCF ITERATION   4:      0.000000752931
done
Reading CP-SCF coefficients                    ... done
Doing the polarizability tensor   ... done
Cleaning up                                    ... done

-------------------------
THE POLARIZABILITY TENSOR
-------------------------

The raw cartesian tensor (atomic units):
   24.77217     -0.00000     -0.00000  
   -0.00000     24.77217      0.00000  
   -0.00000      0.00000     37.70226  
diagonalized tensor: 
   24.77217     24.77217     37.70226  

    0.70879      0.70542     -0.00000  
    0.70542     -0.70879      0.00000  
   -0.00000      0.00000      1.00000  

Isotropic polarizability :  29.08220


Timings for individual modules:

Sum of individual times         ...      738.881 sec (=  12.315 min)
GTO integral calculation        ...        1.798 sec (=   0.030 min)   0.2 %
SCF iterations                  ...      533.921 sec (=   8.899 min)  72.3 %
Solution of CP-SCF eqns.        ...      203.162 sec (=   3.386 min)  27.5 %
                             ****ORCA TERMINATED NORMALLY****
TOTAL RUN TIME: 0 days 0 hours 12 minutes 19 seconds 669 msec
