
                                 *****************
                                 * O   R   C   A *
                                 *****************

           --- An Ab Initio, DFT and Semiempirical electronic structure package ---

                  #######################################################
                  #                        -***-                        #
                  #          Department of theory and spectroscopy      #
                  #               Directorship: Frank Neese             #
                  #        Max Planck Institute fuer Kohlenforschung    #
                  #                Kaiser Wilhelm Platz 1               #
                  #                 D-45470 Muelheim/Ruhr               #
                  #                      Germany                        #
                  #                                                     #
                  #                  All rights reserved                #
                  #                        -***-                        #
                  #######################################################


                         Program Version 4.1.2  - RELEASE  -


 With contributions from (in alphabetic order):
   Daniel Aravena         : Magnetic Properties
   Michael Atanasov       : Ab Initio Ligand Field Theory
   Alexander A. Auer      : GIAO ZORA
   Ute Becker             : Parallelization
   Giovanni Bistoni       : ED, Open-shell LED
   Martin Brehm           : Molecular dynamics
   Dmytro Bykov           : SCF Hessian
   Vijay G. Chilkuri      : MRCI spin determinant printing
   Dipayan Datta          : RHF DLPNO-CCSD density
   Achintya Kumar Dutta   : EOM-CC, STEOM-CC
   Dmitry Ganyushin       : Spin-Orbit,Spin-Spin,Magnetic field MRCI
   Miquel Garcia          : C-PCM Hessian
   Yang Guo               : DLPNO-NEVPT2, CIM, IAO-localization
   Andreas Hansen         : Spin unrestricted coupled pair/coupled cluster methods
   Benjamin Helmich-Paris : CASSCF linear response (MC-RPA)
   Lee Huntington         : MR-EOM, pCC
   Robert Izsak           : Overlap fitted RIJCOSX, COSX-SCS-MP3, EOM
   Christian Kollmar      : KDIIS, OOCD, Brueckner-CCSD(T), CCSD density
   Simone Kossmann        : Meta GGA functionals, TD-DFT gradient, OOMP2, MP2 Hessian
   Martin Krupicka        : AUTO-CI
   Lucas Lang             : DCDCAS
   Dagmar Lenk            : GEPOL surface, SMD
   Dimitrios Liakos       : Extrapolation schemes; parallel MDCI
   Dimitrios Manganas     : ROCIS; embedding schemes
   Dimitrios Pantazis     : SARC Basis sets
   Taras Petrenko         : DFT Hessian,TD-DFT gradient, ASA, ECA, R-Raman, ABS, FL, XAS/XES, NRVS
   Peter Pinski           : DLPNO-MP2, DLPNO-MP2 Gradient
   Christoph Reimann      : Effective Core Potentials
   Marius Retegan         : Local ZFS, SOC
   Christoph Riplinger    : Optimizer, TS searches, QM/MM, DLPNO-CCSD(T), (RO)-DLPNO pert. Triples
   Tobias Risthaus        : Range-separated hybrids, TD-DFT gradient, RPA, STAB
   Michael Roemelt        : Restricted open shell CIS
   Masaaki Saitow         : Open-shell DLPNO
   Barbara Sandhoefer     : DKH picture change effects
   Avijit Sen             : IP-ROCIS
   Kantharuban Sivalingam : CASSCF convergence, NEVPT2, FIC-MRCI
   Bernardo de Souza      : ESD, SOC TD-DFT
   Georgi Stoychev        : AutoAux, RI-MP2 NMR
   Willem Van den Heuvel  : Paramagnetic NMR
   Boris Wezisla          : Elementary symmetry handling
   Frank Wennmohs         : Technical directorship


 We gratefully acknowledge several colleagues who have allowed us to
 interface, adapt or use parts of their codes:
   Stefan Grimme, W. Hujo, H. Kruse,             : VdW corrections, initial TS optimization,
                  C. Bannwarth                     DFT functionals, gCP, sTDA/sTD-DF
   Ed Valeev                                     : LibInt (2-el integral package), F12 methods
   Garnet Chan, S. Sharma, J. Yang, R. Olivares  : DMRG
   Ulf Ekstrom                                   : XCFun DFT Library
   Mihaly Kallay                                 : mrcc  (arbitrary order and MRCC methods)
   Andreas Klamt, Michael Diedenhofen            : otool_cosmo (COSMO solvation model)
   Jiri Pittner, Ondrej Demel                    : Mk-CCSD
   Frank Weinhold                                : gennbo (NPA and NBO analysis)
   Christopher J. Cramer and Donald G. Truhlar   : smd solvation model
   Lars Goerigk                                  : TD-DFT with DH, B97 family of functionals
   V. Asgeirsson, H. Jonsson                     : NEB implementation
   FAccTs GmbH                                   : IRC, NEB, NEB-TS, Multilevel


 Your calculation uses the libint2 library for the computation of 2-el integrals
 For citations please refer to: http://libint.valeyev.net

 This ORCA versions uses:
   CBLAS   interface :  Fast vector & matrix operations
   LAPACKE interface :  Fast linear algebra routines
   SCALAPACK package :  Parallel linear algebra routines


----- Orbital basis set information -----
Your calculation utilizes the basis: aug-pc-4
   H, C-F              : F. Jensen, J. Chem. Phys. 115, 9113 (2001).
                         F. Jensen, J. Chem. Phys. 116, 7372 (2002).
                         F. Jensen, J. Chem. Phys. 117, 9234 (2002).
   Si-Cl               : F. Jensen, T. Helgaker, J. Chem. Phys. 121, 3463 (2004).
   He-B, Ne-Mg, Al, Ar : F. Jensen, J. Phys. Chem. A 111, 11198 (2007).
   K, Ca, Ga-Kr        : F. Jensen, J. Chem. Phys. 136, 094110 (2012).
   Sc-Zn               : F. Jensen, J. Chem. Phys. 138, 014107 (2013).

================================================================================
                                        WARNINGS
                       Please study these warnings very carefully!
================================================================================


INFO   : the flag for use of LIBINT has been found!

================================================================================
                                       INPUT FILE
================================================================================
NAME = o3_pbe.inp
|  1> !uks pbe nori aug-pc-4 grid5 nofinalgrid verytightscf
|  2> 
|  3> %maxcore 1500
|  4> 
|  5> %pal nprocs 4 end
|  6> 
|  7> %scf
|  8> 	maxiter 200
|  9> end
| 10> %elprop
| 11> 	dipole true
| 12> 	 polar 1
| 13> 	 maxiter 200
| 14> end
| 15> 
| 16> * xyz 0 1
| 17> O 0.0000 0.0000 0.0000
| 18> O 0.0000 1.0885 0.6697
| 19> O 0.0000 -1.0885 0.6697
| 20> *
| 21> 
| 22>                          ****END OF INPUT****
================================================================================

                       ****************************
                       * Single Point Calculation *
                       ****************************

---------------------------------
CARTESIAN COORDINATES (ANGSTROEM)
---------------------------------
  O      0.000000    0.000000    0.000000
  O      0.000000    1.088500    0.669700
  O      0.000000   -1.088500    0.669700

----------------------------
CARTESIAN COORDINATES (A.U.)
----------------------------
  NO LB      ZA    FRAG     MASS         X           Y           Z
   0 O     8.0000    0    15.999    0.000000    0.000000    0.000000
   1 O     8.0000    0    15.999    0.000000    2.056967    1.265550
   2 O     8.0000    0    15.999    0.000000   -2.056967    1.265550

--------------------------------
INTERNAL COORDINATES (ANGSTROEM)
--------------------------------
 O      0   0   0     0.000000000000     0.00000000     0.00000000
 O      1   0   0     1.278018129762     0.00000000     0.00000000
 O      1   2   0     1.278018129762   116.79615620     0.00000000

---------------------------
INTERNAL COORDINATES (A.U.)
---------------------------
 O      0   0   0     0.000000000000     0.00000000     0.00000000
 O      1   0   0     2.415104259436     0.00000000     0.00000000
 O      1   2   0     2.415104259436   116.79615620     0.00000000

---------------------
BASIS SET INFORMATION
---------------------
There are 1 groups of distinct atoms

 Group   1 Type O   : 27s12p7d4f3g2h contracted to 9s8p7d4f3g2h pattern {1191111111/51111111/1111111/1111/111/11}

Atom   0O    basis set group =>   1
Atom   1O    basis set group =>   1
Atom   2O    basis set group =>   1


           ************************************************************
           *        Program running with 4 parallel MPI-processes     *
           *              working on a common directory               *
           ************************************************************
------------------------------------------------------------------------------
                           ORCA GTO INTEGRAL CALCULATION
------------------------------------------------------------------------------

                         BASIS SET STATISTICS AND STARTUP INFO

 # of primitive gaussian shells          ...  165
 # of primitive gaussian functions       ...  525
 # of contracted shells                  ...   99
 # of contracted basis functions         ...  435
 Highest angular momentum                ...    5
 Maximum contraction depth               ...   11
 Integral package used                   ... LIBINT
 Integral threshhold            Thresh   ...  1.000e-12
 Primitive cut-off              TCut     ...  1.000e-14


------------------------------ INTEGRAL EVALUATION ----------------------------


 * One electron integrals 
 Pre-screening matrix                    ... done
 Shell pair data                         ... done (   0.001 sec)



           ************************************************************
           *        Program running with 4 parallel MPI-processes     *
           *              working on a common directory               *
           ************************************************************
-------------------------------------------------------------------------------
                                 ORCA SCF
-------------------------------------------------------------------------------

------------
SCF SETTINGS
------------
Hamiltonian:
 Density Functional     Method          .... DFT(GTOs)
 Exchange Functional    Exchange        .... PBE
   PBE kappa parameter   XKappa         ....  0.804000
   PBE mue parameter    XMuePBE         ....  0.219520
 Correlation Functional Correlation     .... PBE
   PBE beta parameter  CBetaPBE         ....  0.066725
 LDA part of GGA corr.  LDAOpt          .... PW91-LDA
 Gradients option       PostSCFGGA      .... off
   Density functional embedding theory  .... OFF
   NL short-range parameter             ....  6.400000


General Settings:
 Integral files         IntName         .... o3_pbe
 Hartree-Fock type      HFTyp           .... UHF
 Total Charge           Charge          ....    0
 Multiplicity           Mult            ....    1
 Number of Electrons    NEL             ....   24
 Basis Dimension        Dim             ....  435
 Nuclear Repulsion      ENuc            ....     68.5566685414 Eh

Convergence Acceleration:
 DIIS                   CNVDIIS         .... on
   Start iteration      DIISMaxIt       ....    12
   Startup error        DIISStart       ....  0.200000
   # of expansion vecs  DIISMaxEq       ....     5
   Bias factor          DIISBfac        ....   1.050
   Max. coefficient     DIISMaxC        ....  10.000
 Newton-Raphson         CNVNR           .... off
 SOSCF                  CNVSOSCF        .... off
 Level Shifting         CNVShift        .... on
   Level shift para.    LevelShift      ....    0.2500
   Turn off err/grad.   ShiftErr        ....    0.0010
 Zerner damping         CNVZerner       .... off
 Static damping         CNVDamp         .... on
   Fraction old density DampFac         ....    0.7000
   Max. Damping (<1)    DampMax         ....    0.9800
   Min. Damping (>=0)   DampMin         ....    0.0000
   Turn off err/grad.   DampErr         ....    0.1000
 Fernandez-Rico         CNVRico         .... off

SCF Procedure:
 Maximum # iterations   MaxIter         ....   200
 SCF integral mode      SCFMode         .... Direct
   Integral package                     .... LIBINT
 Reset frequency        DirectResetFreq ....    20
 Integral Threshold     Thresh          ....  1.000e-12 Eh
 Primitive CutOff       TCut            ....  1.000e-14 Eh

Convergence Tolerance:
 Convergence Check Mode ConvCheckMode   .... Total+1el-Energy
 Convergence forced     ConvForced      .... 0
 Energy Change          TolE            ....  1.000e-09 Eh
 1-El. energy change                    ....  1.000e-06 Eh
 DIIS Error             TolErr          ....  1.000e-08


Diagonalization of the overlap matrix:
Smallest eigenvalue                        ... 1.820e-06
Time for diagonalization                   ...    0.038 sec
Threshold for overlap eigenvalues          ... 1.000e-08
Number of eigenvalues below threshold      ... 0
Time for construction of square roots      ...    0.041 sec
Total time needed                          ...    0.080 sec

-------------------
DFT GRID GENERATION
-------------------

General Integration Accuracy     IntAcc      ...  5.010
Radial Grid Type                 RadialGrid  ... Gauss-Chebyshev
Angular Grid (max. acc.)         AngularGrid ... Lebedev-434
Angular grid pruning method      GridPruning ... 3 (G Style)
Weight generation scheme         WeightScheme... Becke
Basis function cutoff            BFCut       ...    1.0000e-12
Integration weight cutoff        WCut        ...    1.0000e-14
Grids for H and He will be reduced by one unit

# of grid points (after initial pruning)     ...  32526 (   0.0 sec)
# of grid points (after weights+screening)   ...  32268 (   0.0 sec)
nearest neighbour list constructed           ...    0.0 sec
Grid point re-assignment to atoms done       ...    0.0 sec
Grid point division into batches done        ...    0.3 sec
Reduced shell lists constructed in    0.4 sec

Total number of grid points                  ...    32268
Total number of batches                      ...      506
Average number of points per batch           ...       63
Average number of grid points per atom       ...    10756
Average number of shells per batch           ...    75.30 (76.06%)
Average number of basis functions per batch  ...   346.89 (79.74%)
Average number of large shells per batch     ...    67.73 (89.96%)
Average number of large basis fcns per batch ...   315.80 (91.04%)
Maximum spatial batch extension              ...  13.83, 14.02,  9.72 au
Average spatial batch extension              ...   0.65,  0.62,  0.58 au

Time for grid setup =    0.420 sec

------------------------------
INITIAL GUESS: MODEL POTENTIAL
------------------------------
Loading Hartree-Fock densities                     ... done
Calculating cut-offs                               ... done
Setting up the integral package                    ... done
Initializing the effective Hamiltonian             ... done
Starting the Coulomb interaction                   ... done (   0.0 sec)
Reading the grid                                   ... done
Mapping shells                                     ... done
Starting the XC term evaluation                    ... done (   0.6 sec)
  promolecular density results
     # of electrons  =     24.000002266
     EX              =    -24.352681953
     EC              =     -0.814702700
     EX+EC           =    -25.167384653
Transforming the Hamiltonian                       ... done (   0.0 sec)
Diagonalizing the Hamiltonian                      ... done (   0.0 sec)
Back transforming the eigenvectors                 ... done (   0.0 sec)
Now organizing SCF variables                       ... done
                      ------------------
                      INITIAL GUESS DONE (   1.3 sec)
                      ------------------
--------------
SCF ITERATIONS
--------------
ITER       Energy         Delta-E        Max-DP      RMS-DP      [F,P]     Damp
               ***  Starting incremental Fock matrix formation  ***
  0   -225.2052860487   0.000000000000 0.01405435  0.00015114  0.2547730 0.7000
  1   -225.2792525661  -0.073966517410 0.00633344  0.00006497  0.0513820 0.7000
                               ***Turning on DIIS***
  2   -225.2907914649  -0.011538898774 0.00868130  0.00009751  0.0634078 0.0000
  3   -225.3389773404  -0.048185875529 0.00463648  0.00003932  0.0400217 0.0000
  4   -225.3404528403  -0.001475499919 0.00133438  0.00001005  0.0100332 0.0000
  5   -225.3406018572  -0.000149016880 0.00015135  0.00000289  0.0014731 0.0000
  6   -225.3406080139  -0.000006156714 0.00009756  0.00000194  0.0002072 0.0000
  7   -225.3406082858  -0.000000271884 0.00002359  0.00000028  0.0002275 0.0000
  8   -225.3406083593  -0.000000073546 0.00000371  0.00000007  0.0000499 0.0000
  9   -225.3406083628  -0.000000003437 0.00000127  0.00000002  0.0000182 0.0000
 10   -225.3406083634  -0.000000000590 0.00000038  0.00000001  0.0000047 0.0000
 11   -225.3406083634  -0.000000000055 0.00000148  0.00000001  0.0000005 0.0000
                 **** Energy Check signals convergence ****

               *****************************************************
               *                     SUCCESS                       *
               *           SCF CONVERGED AFTER  12 CYCLES          *
               *****************************************************


----------------
TOTAL SCF ENERGY
----------------

Total Energy       :         -225.34060836 Eh           -6131.82969 eV

Components:
Nuclear Repulsion  :           68.55666854 Eh            1865.52179 eV
Electronic Energy  :         -293.89727690 Eh           -7997.35148 eV
One Electron Energy:         -445.11554209 Eh          -12112.20967 eV
Two Electron Energy:          151.21826519 Eh            4114.85819 eV

Virial components:
Potential Energy   :         -449.97054793 Eh          -12244.32110 eV
Kinetic Energy     :          224.62993956 Eh            6112.49141 eV
Virial Ratio       :            2.00316373


DFT components:
N(Alpha)           :       11.999999249292 electrons
N(Beta)            :       11.999999249292 electrons
N(Total)           :       23.999998498583 electrons
E(X)               :      -24.467888288147 Eh       
E(C)               :       -0.812422211448 Eh       
E(XC)              :      -25.280310499594 Eh       
DFET-embed. en.    :        0.000000000000 Eh       

---------------
SCF CONVERGENCE
---------------

  Last Energy change         ...   -3.4674e-12  Tolerance :   1.0000e-09
  Last MAX-Density change    ...    4.2283e-06  Tolerance :   1.0000e-08
  Last RMS-Density change    ...    3.8415e-08  Tolerance :   1.0000e-09
  Last DIIS Error            ...    1.5058e-07  Tolerance :   1.0000e-08

             **** THE GBW FILE WAS UPDATED (o3_pbe.gbw) ****
             **** DENSITY FILE WAS UPDATED (o3_pbe.scfp.tmp) ****
             **** ENERGY FILE WAS UPDATED (o3_pbe.en.tmp) ****
----------------------
UHF SPIN CONTAMINATION
----------------------

Warning: in a DFT calculation there is little theoretical justification to 
         calculate <S**2> as in Hartree-Fock theory. We will do it anyways
         but you should keep in mind that the values have only limited relevance

Expectation value of <S**2>     :     0.000000
Ideal value S*(S+1) for S=0.0   :     0.000000
Deviation                       :     0.000000

----------------
ORBITAL ENERGIES
----------------
                 SPIN UP ORBITALS
  NO   OCC          E(Eh)            E(eV) 
   0   1.0000     -19.042119      -518.1624 
   1   1.0000     -18.868539      -513.4390 
   2   1.0000     -18.868539      -513.4390 
   3   1.0000      -1.260293       -34.2943 
   4   1.0000      -1.008288       -27.4369 
   5   1.0000      -0.715596       -19.4724 
   6   1.0000      -0.546846       -14.8804 
   7   1.0000      -0.542008       -14.7488 
   8   1.0000      -0.531378       -14.4595 
   9   1.0000      -0.336534        -9.1575 
  10   1.0000      -0.297154        -8.0860 
  11   1.0000      -0.294092        -8.0027 
  12   0.0000      -0.228330        -6.2132 
  13   0.0000      -0.004196        -0.1142 
  14   0.0000       0.002770         0.0754 
  15   0.0000       0.016669         0.4536 
  16   0.0000       0.025156         0.6845 
  17   0.0000       0.027813         0.7568 
  18   0.0000       0.054100         1.4721 
  19   0.0000       0.055690         1.5154 
  20   0.0000       0.055748         1.5170 
  21   0.0000       0.060979         1.6593 
  22   0.0000       0.061284         1.6676 
  23   0.0000       0.073460         1.9990 
  24   0.0000       0.089374         2.4320 
  25   0.0000       0.104459         2.8425 
  26   0.0000       0.115561         3.1446 
  27   0.0000       0.135840         3.6964 
  28   0.0000       0.151062         4.1106 
  29   0.0000       0.154921         4.2156 
  30   0.0000       0.159219         4.3326 
  31   0.0000       0.160884         4.3779 
  32   0.0000       0.162857         4.4316 
  33   0.0000       0.179106         4.8737 
  34   0.0000       0.182538         4.9671 
  35   0.0000       0.182895         4.9768 
  36   0.0000       0.186815         5.0835 
  37   0.0000       0.207828         5.6553 
  38   0.0000       0.215473         5.8633 
  39   0.0000       0.222003         6.0410 
  40   0.0000       0.224692         6.1142 
  41   0.0000       0.247495         6.7347 
  42   0.0000       0.257452         7.0056 
  43   0.0000       0.258612         7.0372 
  44   0.0000       0.261992         7.1292 
  45   0.0000       0.283902         7.7254 
  46   0.0000       0.298217         8.1149 
  47   0.0000       0.298704         8.1281 
  48   0.0000       0.327694         8.9170 
  49   0.0000       0.329749         8.9729 
  50   0.0000       0.346219         9.4211 
  51   0.0000       0.362889         9.8747 
  52   0.0000       0.366745         9.9796 
  53   0.0000       0.385244        10.4830 
  54   0.0000       0.388220        10.5640 
  55   0.0000       0.388284        10.5658 
  56   0.0000       0.399612        10.8740 
  57   0.0000       0.404585        11.0093 
  58   0.0000       0.408157        11.1065 
  59   0.0000       0.419363        11.4114 
  60   0.0000       0.421936        11.4815 
  61   0.0000       0.424896        11.5620 
  62   0.0000       0.433829        11.8051 
  63   0.0000       0.436269        11.8715 
  64   0.0000       0.437967        11.9177 
  65   0.0000       0.453698        12.3458 
  66   0.0000       0.456865        12.4319 
  67   0.0000       0.459821        12.5124 
  68   0.0000       0.486078        13.2268 
  69   0.0000       0.512112        13.9353 
  70   0.0000       0.515490        14.0272 
  71   0.0000       0.522081        14.2065 
  72   0.0000       0.527068        14.3422 
  73   0.0000       0.545770        14.8512 
  74   0.0000       0.546232        14.8637 
  75   0.0000       0.580419        15.7940 
  76   0.0000       0.581902        15.8344 
  77   0.0000       0.594051        16.1650 
  78   0.0000       0.611043        16.6273 
  79   0.0000       0.620208        16.8767 
  80   0.0000       0.629568        17.1314 
  81   0.0000       0.651815        17.7368 
  82   0.0000       0.662183        18.0189 
  83   0.0000       0.671875        18.2826 
  84   0.0000       0.673912        18.3381 
  85   0.0000       0.679070        18.4784 
  86   0.0000       0.684506        18.6263 
  87   0.0000       0.717387        19.5211 
  88   0.0000       0.718217        19.5437 
  89   0.0000       0.724685        19.7197 
  90   0.0000       0.732127        19.9222 
  91   0.0000       0.735371        20.0105 
  92   0.0000       0.738248        20.0887 
  93   0.0000       0.751298        20.4438 
  94   0.0000       0.773332        21.0434 
  95   0.0000       0.779012        21.1980 
  96   0.0000       0.780850        21.2480 
  97   0.0000       0.785915        21.3858 
  98   0.0000       0.795176        21.6378 
  99   0.0000       0.818133        22.2625 
 100   0.0000       0.838028        22.8039 
 101   0.0000       0.844277        22.9739 
 102   0.0000       0.847985        23.0748 
 103   0.0000       0.851565        23.1723 
 104   0.0000       0.856618        23.3097 
 105   0.0000       0.869383        23.6571 
 106   0.0000       0.875519        23.8241 
 107   0.0000       0.880965        23.9723 
 108   0.0000       0.886628        24.1264 
 109   0.0000       0.899856        24.4863 
 110   0.0000       0.911879        24.8135 
 111   0.0000       0.923952        25.1420 
 112   0.0000       0.925184        25.1755 
 113   0.0000       0.929286        25.2872 
 114   0.0000       0.932356        25.3707 
 115   0.0000       0.937963        25.5233 
 116   0.0000       0.951569        25.8935 
 117   0.0000       0.955468        25.9996 
 118   0.0000       0.957487        26.0546 
 119   0.0000       0.972072        26.4514 
 120   0.0000       0.996989        27.1294 
 121   0.0000       1.003716        27.3125 
 122   0.0000       1.006338        27.3839 
 123   0.0000       1.008622        27.4460 
 124   0.0000       1.013154        27.5693 
 125   0.0000       1.044980        28.4354 
 126   0.0000       1.051171        28.6038 
 127   0.0000       1.060892        28.8683 
 128   0.0000       1.067893        29.0588 
 129   0.0000       1.078874        29.3577 
 130   0.0000       1.080755        29.4088 
 131   0.0000       1.101757        29.9803 
 132   0.0000       1.105615        30.0853 
 133   0.0000       1.167908        31.7804 
 134   0.0000       1.172737        31.9118 
 135   0.0000       1.198678        32.6177 
 136   0.0000       1.201547        32.6958 
 137   0.0000       1.211989        32.9799 
 138   0.0000       1.215256        33.0688 
 139   0.0000       1.223112        33.2826 
 140   0.0000       1.232645        33.5420 
 141   0.0000       1.243052        33.8252 
 142   0.0000       1.249571        34.0026 
 143   0.0000       1.267999        34.5040 
 144   0.0000       1.272726        34.6326 
 145   0.0000       1.279721        34.8230 
 146   0.0000       1.286277        35.0014 
 147   0.0000       1.289613        35.0921 
 148   0.0000       1.291340        35.1391 
 149   0.0000       1.317498        35.8510 
 150   0.0000       1.331540        36.2331 
 151   0.0000       1.333120        36.2760 
 152   0.0000       1.354332        36.8532 
 153   0.0000       1.364874        37.1401 
 154   0.0000       1.383861        37.6568 
 155   0.0000       1.397103        38.0171 
 156   0.0000       1.410162        38.3725 
 157   0.0000       1.462010        39.7833 
 158   0.0000       1.485610        40.4255 
 159   0.0000       1.570642        42.7393 
 160   0.0000       1.683510        45.8106 
 161   0.0000       1.684247        45.8307 
 162   0.0000       1.688790        45.9543 
 163   0.0000       1.695442        46.1353 
 164   0.0000       1.752482        47.6875 
 165   0.0000       1.770814        48.1863 
 166   0.0000       1.792096        48.7654 
 167   0.0000       1.803173        49.0668 
 168   0.0000       1.841042        50.0973 
 169   0.0000       1.879776        51.1513 
 170   0.0000       1.895928        51.5908 
 171   0.0000       1.910194        51.9790 
 172   0.0000       1.915149        52.1139 
 173   0.0000       1.947258        52.9876 
 174   0.0000       1.997850        54.3643 
 175   0.0000       2.001901        54.4745 
 176   0.0000       2.046754        55.6950 
 177   0.0000       2.057419        55.9852 
 178   0.0000       2.067054        56.2474 
 179   0.0000       2.158563        58.7375 
 180   0.0000       2.158647        58.7398 
 181   0.0000       2.185978        59.4835 
 182   0.0000       2.223430        60.5026 
 183   0.0000       2.238998        60.9262 
 184   0.0000       2.247192        61.1492 
 185   0.0000       2.269362        61.7525 
 186   0.0000       2.282323        62.1052 
 187   0.0000       2.299455        62.5714 
 188   0.0000       2.311951        62.9114 
 189   0.0000       2.367756        64.4299 
 190   0.0000       2.403715        65.4084 
 191   0.0000       2.447201        66.5917 
 192   0.0000       2.449298        66.6488 
 193   0.0000       2.470422        67.2236 
 194   0.0000       2.528526        68.8047 
 195   0.0000       2.610782        71.0430 
 196   0.0000       2.803353        76.2831 
 197   0.0000       2.830254        77.0151 
 198   0.0000       2.831494        77.0489 
 199   0.0000       3.036593        82.6299 
 200   0.0000       3.069720        83.5313 
 201   0.0000       3.132236        85.2325 
 202   0.0000       3.193198        86.8913 
 203   0.0000       3.205952        87.2384 
 204   0.0000       3.243096        88.2491 
 205   0.0000       3.243785        88.2679 
 206   0.0000       3.429209        93.3135 
 207   0.0000       3.835172       104.3603 
 208   0.0000       3.848551       104.7244 
 209   0.0000       3.860155       105.0402 
 210   0.0000       3.936081       107.1062 
 211   0.0000       4.062998       110.5598 
 212   0.0000       4.068178       110.7008 
 213   0.0000       4.087239       111.2194 
 214   0.0000       4.157863       113.1412 
 215   0.0000       4.190655       114.0335 
 216   0.0000       4.216752       114.7436 
 217   0.0000       4.224479       114.9539 
 218   0.0000       4.253319       115.7387 
 219   0.0000       4.289739       116.7297 
 220   0.0000       4.321281       117.5880 
 221   0.0000       4.382973       119.2668 
 222   0.0000       4.386258       119.3561 
 223   0.0000       4.433621       120.6450 
 224   0.0000       4.466895       121.5504 
 225   0.0000       4.495221       122.3212 
 226   0.0000       4.552162       123.8706 
 227   0.0000       4.585609       124.7808 
 228   0.0000       4.587499       124.8322 
 229   0.0000       4.697619       127.8287 
 230   0.0000       4.838756       131.6693 
 231   0.0000       4.910843       133.6308 
 232   0.0000       4.929232       134.1312 
 233   0.0000       5.002675       136.1297 
 234   0.0000       5.024712       136.7294 
 235   0.0000       5.076063       138.1267 
 236   0.0000       5.079517       138.2207 
 237   0.0000       5.181684       141.0008 
 238   0.0000       5.193569       141.3242 
 239   0.0000       5.258699       143.0965 
 240   0.0000       5.287576       143.8823 
 241   0.0000       5.332741       145.1112 
 242   0.0000       5.345936       145.4703 
 243   0.0000       5.367466       146.0562 
 244   0.0000       5.469986       148.8459 
 245   0.0000       5.486692       149.3005 
 246   0.0000       5.532197       150.5387 
 247   0.0000       5.680725       154.5804 
 248   0.0000       5.688710       154.7977 
 249   0.0000       5.766017       156.9013 
 250   0.0000       5.830823       158.6648 
 251   0.0000       5.854283       159.3031 
 252   0.0000       5.925800       161.2492 
 253   0.0000       5.939787       161.6298 
 254   0.0000       5.955198       162.0492 
 255   0.0000       5.966403       162.3541 
 256   0.0000       5.998415       163.2252 
 257   0.0000       6.123207       166.6209 
 258   0.0000       6.173423       167.9874 
 259   0.0000       6.185038       168.3035 
 260   0.0000       6.241915       169.8512 
 261   0.0000       6.319022       171.9493 
 262   0.0000       6.404018       174.2622 
 263   0.0000       6.459862       175.7818 
 264   0.0000       6.811555       185.3518 
 265   0.0000       6.948817       189.0869 
 266   0.0000       7.008991       190.7243 
 267   0.0000       7.078535       192.6167 
 268   0.0000       7.129797       194.0117 
 269   0.0000       7.177914       195.3210 
 270   0.0000       7.333312       199.5496 
 271   0.0000       7.619183       207.3285 
 272   0.0000       7.650338       208.1763 
 273   0.0000       7.831442       213.1044 
 274   0.0000       7.934863       215.9186 
 275   0.0000       8.052658       219.1240 
 276   0.0000       8.412153       228.9063 
 277   0.0000       8.437521       229.5966 
 278   0.0000       8.655342       235.5238 
 279   0.0000       8.678632       236.1576 
 280   0.0000       9.044933       246.1251 
 281   0.0000       9.073589       246.9049 
 282   0.0000       9.184966       249.9356 
 283   0.0000       9.237892       251.3758 
 284   0.0000       9.249424       251.6896 
 285   0.0000       9.347444       254.3569 
 286   0.0000       9.384089       255.3540 
 287   0.0000       9.422925       256.4108 
 288   0.0000       9.502317       258.5712 
 289   0.0000       9.507469       258.7114 
 290   0.0000       9.614316       261.6188 
 291   0.0000       9.925640       270.0904 
 292   0.0000      10.037008       273.1209 
 293   0.0000      10.173233       276.8278 
 294   0.0000      10.215297       277.9724 
 295   0.0000      10.605425       288.5883 
 296   0.0000      10.688653       290.8530 
 297   0.0000      10.818727       294.3925 
 298   0.0000      10.833977       294.8075 
 299   0.0000      10.948735       297.9302 
 300   0.0000      10.999004       299.2981 
 301   0.0000      11.061586       301.0011 
 302   0.0000      11.099098       302.0218 
 303   0.0000      11.106437       302.2215 
 304   0.0000      11.209359       305.0222 
 305   0.0000      11.221528       305.3533 
 306   0.0000      11.247633       306.0636 
 307   0.0000      11.341865       308.6278 
 308   0.0000      11.347008       308.7678 
 309   0.0000      11.348732       308.8147 
 310   0.0000      11.502287       312.9931 
 311   0.0000      11.577967       315.0525 
 312   0.0000      11.602567       315.7219 
 313   0.0000      11.627602       316.4031 
 314   0.0000      11.722600       318.9882 
 315   0.0000      11.922166       324.4186 
 316   0.0000      11.971099       325.7502 
 317   0.0000      11.979490       325.9785 
 318   0.0000      11.981739       326.0397 
 319   0.0000      11.982085       326.0491 
 320   0.0000      11.982767       326.0677 
 321   0.0000      11.995254       326.4075 
 322   0.0000      12.040871       327.6487 
 323   0.0000      12.099731       329.2504 
 324   0.0000      12.126041       329.9663 
 325   0.0000      12.394923       337.2830 
 326   0.0000      12.445603       338.6621 
 327   0.0000      12.480310       339.6065 
 328   0.0000      12.564685       341.9024 
 329   0.0000      12.603060       342.9467 
 330   0.0000      12.606591       343.0428 
 331   0.0000      12.615636       343.2889 
 332   0.0000      12.707574       345.7907 
 333   0.0000      12.717914       346.0720 
 334   0.0000      12.733828       346.5051 
 335   0.0000      12.747989       346.8904 
 336   0.0000      12.755808       347.1032 
 337   0.0000      12.764108       347.3290 
 338   0.0000      12.771600       347.5329 
 339   0.0000      12.784025       347.8710 
 340   0.0000      12.787606       347.9685 
 341   0.0000      13.056659       355.2898 
 342   0.0000      13.120314       357.0219 
 343   0.0000      13.145883       357.7177 
 344   0.0000      13.368961       363.7879 
 345   0.0000      13.427710       365.3866 
 346   0.0000      13.477367       366.7378 
 347   0.0000      13.507609       367.5607 
 348   0.0000      13.688480       372.4825 
 349   0.0000      13.894907       378.0996 
 350   0.0000      14.383242       391.3879 
 351   0.0000      14.612801       397.6345 
 352   0.0000      14.704684       400.1348 
 353   0.0000      15.102712       410.9657 
 354   0.0000      15.152649       412.3245 
 355   0.0000      15.331847       417.2008 
 356   0.0000      15.536596       422.7723 
 357   0.0000      16.772315       456.3979 
 358   0.0000      16.852328       458.5752 
 359   0.0000      16.926927       460.6051 
 360   0.0000      16.937147       460.8832 
 361   0.0000      16.937426       460.8908 
 362   0.0000      16.942036       461.0162 
 363   0.0000      17.048323       463.9085 
 364   0.0000      17.062935       464.3061 
 365   0.0000      17.085245       464.9131 
 366   0.0000      17.141815       466.4525 
 367   0.0000      17.169889       467.2164 
 368   0.0000      17.227042       468.7716 
 369   0.0000      17.229498       468.8385 
 370   0.0000      17.295177       470.6257 
 371   0.0000      17.350082       472.1197 
 372   0.0000      17.595648       478.8019 
 373   0.0000      17.790311       484.0990 
 374   0.0000      17.894406       486.9316 
 375   0.0000      17.907828       487.2968 
 376   0.0000      18.006365       489.9781 
 377   0.0000      18.259518       496.8667 
 378   0.0000      18.429090       501.4810 
 379   0.0000      18.546455       504.6747 
 380   0.0000      18.592216       505.9199 
 381   0.0000      18.610061       506.4055 
 382   0.0000      18.627215       506.8723 
 383   0.0000      18.786555       511.2081 
 384   0.0000      18.839623       512.6522 
 385   0.0000      18.876037       513.6431 
 386   0.0000      18.986872       516.6590 
 387   0.0000      19.342611       526.3392 
 388   0.0000      19.477004       529.9962 
 389   0.0000      19.632171       534.2185 
 390   0.0000      22.833702       621.3366 
 391   0.0000      22.937964       624.1737 
 392   0.0000      22.947971       624.4460 
 393   0.0000      22.953367       624.5929 
 394   0.0000      22.988316       625.5439 
 395   0.0000      23.002072       625.9182 
 396   0.0000      23.055979       627.3851 
 397   0.0000      23.913746       650.7261 
 398   0.0000      24.014252       653.4610 
 399   0.0000      24.102437       655.8607 
 400   0.0000      24.543385       667.8595 
 401   0.0000      24.809512       675.1011 
 402   0.0000      24.930833       678.4025 
 403   0.0000      27.436378       746.5818 
 404   0.0000      28.046987       763.1973 
 405   0.0000      29.676626       807.5421 
 406   0.0000      30.565487       831.7292 
 407   0.0000      31.125696       846.9732 
 408   0.0000      31.604444       860.0007 
 409   0.0000      31.849713       866.6747 
 410   0.0000      31.933181       868.9460 
 411   0.0000      31.947875       869.3459 
 412   0.0000      31.953483       869.4985 
 413   0.0000      33.139759       901.7787 
 414   0.0000      33.736140       918.0070 
 415   0.0000      34.162643       929.6128 
 416   0.0000      34.920484       950.2347 
 417   0.0000      66.379984      1806.2912 
 418   0.0000      66.457613      1808.4036 
 419   0.0000      66.466675      1808.6502 
 420   0.0000      66.486547      1809.1909 
 421   0.0000      66.508935      1809.8001 
 422   0.0000      66.538814      1810.6132 
 423   0.0000      66.573460      1811.5559 
 424   0.0000      66.976893      1822.5339 
 425   0.0000      66.989665      1822.8815 
 426   0.0000      67.000609      1823.1793 
 427   0.0000      67.196155      1828.5003 
 428   0.0000      67.521191      1837.3450 
 429   0.0000      67.576289      1838.8443 
 430   0.0000      69.568747      1893.0618 
 431   0.0000      70.074863      1906.8340 
 432   0.0000     142.450297      3876.2696 
 433   0.0000     143.350027      3900.7525 
 434   0.0000     144.085168      3920.7568 

                 SPIN DOWN ORBITALS
  NO   OCC          E(Eh)            E(eV) 
   0   1.0000     -19.042119      -518.1624 
   1   1.0000     -18.868539      -513.4390 
   2   1.0000     -18.868539      -513.4390 
   3   1.0000      -1.260293       -34.2943 
   4   1.0000      -1.008288       -27.4369 
   5   1.0000      -0.715596       -19.4724 
   6   1.0000      -0.546846       -14.8804 
   7   1.0000      -0.542008       -14.7488 
   8   1.0000      -0.531378       -14.4595 
   9   1.0000      -0.336534        -9.1575 
  10   1.0000      -0.297154        -8.0860 
  11   1.0000      -0.294092        -8.0027 
  12   0.0000      -0.228330        -6.2132 
  13   0.0000      -0.004196        -0.1142 
  14   0.0000       0.002770         0.0754 
  15   0.0000       0.016669         0.4536 
  16   0.0000       0.025156         0.6845 
  17   0.0000       0.027813         0.7568 
  18   0.0000       0.054100         1.4721 
  19   0.0000       0.055690         1.5154 
  20   0.0000       0.055748         1.5170 
  21   0.0000       0.060979         1.6593 
  22   0.0000       0.061284         1.6676 
  23   0.0000       0.073460         1.9990 
  24   0.0000       0.089374         2.4320 
  25   0.0000       0.104459         2.8425 
  26   0.0000       0.115561         3.1446 
  27   0.0000       0.135840         3.6964 
  28   0.0000       0.151062         4.1106 
  29   0.0000       0.154921         4.2156 
  30   0.0000       0.159219         4.3326 
  31   0.0000       0.160884         4.3779 
  32   0.0000       0.162857         4.4316 
  33   0.0000       0.179106         4.8737 
  34   0.0000       0.182538         4.9671 
  35   0.0000       0.182895         4.9768 
  36   0.0000       0.186815         5.0835 
  37   0.0000       0.207828         5.6553 
  38   0.0000       0.215473         5.8633 
  39   0.0000       0.222003         6.0410 
  40   0.0000       0.224692         6.1142 
  41   0.0000       0.247495         6.7347 
  42   0.0000       0.257452         7.0056 
  43   0.0000       0.258612         7.0372 
  44   0.0000       0.261992         7.1292 
  45   0.0000       0.283902         7.7254 
  46   0.0000       0.298217         8.1149 
  47   0.0000       0.298704         8.1281 
  48   0.0000       0.327694         8.9170 
  49   0.0000       0.329749         8.9729 
  50   0.0000       0.346219         9.4211 
  51   0.0000       0.362889         9.8747 
  52   0.0000       0.366745         9.9796 
  53   0.0000       0.385244        10.4830 
  54   0.0000       0.388220        10.5640 
  55   0.0000       0.388284        10.5658 
  56   0.0000       0.399612        10.8740 
  57   0.0000       0.404585        11.0093 
  58   0.0000       0.408157        11.1065 
  59   0.0000       0.419363        11.4114 
  60   0.0000       0.421936        11.4815 
  61   0.0000       0.424896        11.5620 
  62   0.0000       0.433829        11.8051 
  63   0.0000       0.436269        11.8715 
  64   0.0000       0.437967        11.9177 
  65   0.0000       0.453698        12.3458 
  66   0.0000       0.456865        12.4319 
  67   0.0000       0.459821        12.5124 
  68   0.0000       0.486078        13.2268 
  69   0.0000       0.512112        13.9353 
  70   0.0000       0.515490        14.0272 
  71   0.0000       0.522081        14.2065 
  72   0.0000       0.527068        14.3422 
  73   0.0000       0.545770        14.8512 
  74   0.0000       0.546232        14.8637 
  75   0.0000       0.580419        15.7940 
  76   0.0000       0.581902        15.8344 
  77   0.0000       0.594051        16.1650 
  78   0.0000       0.611043        16.6273 
  79   0.0000       0.620208        16.8767 
  80   0.0000       0.629568        17.1314 
  81   0.0000       0.651815        17.7368 
  82   0.0000       0.662183        18.0189 
  83   0.0000       0.671875        18.2826 
  84   0.0000       0.673912        18.3381 
  85   0.0000       0.679070        18.4784 
  86   0.0000       0.684506        18.6263 
  87   0.0000       0.717387        19.5211 
  88   0.0000       0.718217        19.5437 
  89   0.0000       0.724685        19.7197 
  90   0.0000       0.732127        19.9222 
  91   0.0000       0.735371        20.0105 
  92   0.0000       0.738248        20.0887 
  93   0.0000       0.751298        20.4438 
  94   0.0000       0.773332        21.0434 
  95   0.0000       0.779012        21.1980 
  96   0.0000       0.780850        21.2480 
  97   0.0000       0.785915        21.3858 
  98   0.0000       0.795176        21.6378 
  99   0.0000       0.818133        22.2625 
 100   0.0000       0.838028        22.8039 
 101   0.0000       0.844277        22.9739 
 102   0.0000       0.847985        23.0748 
 103   0.0000       0.851565        23.1723 
 104   0.0000       0.856618        23.3097 
 105   0.0000       0.869383        23.6571 
 106   0.0000       0.875519        23.8241 
 107   0.0000       0.880965        23.9723 
 108   0.0000       0.886628        24.1264 
 109   0.0000       0.899856        24.4863 
 110   0.0000       0.911879        24.8135 
 111   0.0000       0.923952        25.1420 
 112   0.0000       0.925184        25.1755 
 113   0.0000       0.929286        25.2872 
 114   0.0000       0.932356        25.3707 
 115   0.0000       0.937963        25.5233 
 116   0.0000       0.951569        25.8935 
 117   0.0000       0.955468        25.9996 
 118   0.0000       0.957487        26.0546 
 119   0.0000       0.972072        26.4514 
 120   0.0000       0.996989        27.1294 
 121   0.0000       1.003716        27.3125 
 122   0.0000       1.006338        27.3839 
 123   0.0000       1.008622        27.4460 
 124   0.0000       1.013154        27.5693 
 125   0.0000       1.044980        28.4354 
 126   0.0000       1.051171        28.6038 
 127   0.0000       1.060892        28.8683 
 128   0.0000       1.067893        29.0588 
 129   0.0000       1.078874        29.3577 
 130   0.0000       1.080755        29.4088 
 131   0.0000       1.101757        29.9803 
 132   0.0000       1.105615        30.0853 
 133   0.0000       1.167908        31.7804 
 134   0.0000       1.172737        31.9118 
 135   0.0000       1.198678        32.6177 
 136   0.0000       1.201547        32.6958 
 137   0.0000       1.211989        32.9799 
 138   0.0000       1.215256        33.0688 
 139   0.0000       1.223112        33.2826 
 140   0.0000       1.232645        33.5420 
 141   0.0000       1.243052        33.8252 
 142   0.0000       1.249571        34.0026 
 143   0.0000       1.267999        34.5040 
 144   0.0000       1.272726        34.6326 
 145   0.0000       1.279721        34.8230 
 146   0.0000       1.286277        35.0014 
 147   0.0000       1.289613        35.0921 
 148   0.0000       1.291340        35.1391 
 149   0.0000       1.317498        35.8510 
 150   0.0000       1.331540        36.2331 
 151   0.0000       1.333120        36.2760 
 152   0.0000       1.354332        36.8532 
 153   0.0000       1.364874        37.1401 
 154   0.0000       1.383861        37.6568 
 155   0.0000       1.397103        38.0171 
 156   0.0000       1.410162        38.3725 
 157   0.0000       1.462010        39.7833 
 158   0.0000       1.485610        40.4255 
 159   0.0000       1.570642        42.7393 
 160   0.0000       1.683510        45.8106 
 161   0.0000       1.684247        45.8307 
 162   0.0000       1.688790        45.9543 
 163   0.0000       1.695442        46.1353 
 164   0.0000       1.752482        47.6875 
 165   0.0000       1.770814        48.1863 
 166   0.0000       1.792096        48.7654 
 167   0.0000       1.803173        49.0668 
 168   0.0000       1.841042        50.0973 
 169   0.0000       1.879776        51.1513 
 170   0.0000       1.895928        51.5908 
 171   0.0000       1.910194        51.9790 
 172   0.0000       1.915149        52.1139 
 173   0.0000       1.947258        52.9876 
 174   0.0000       1.997850        54.3643 
 175   0.0000       2.001901        54.4745 
 176   0.0000       2.046754        55.6950 
 177   0.0000       2.057419        55.9852 
 178   0.0000       2.067054        56.2474 
 179   0.0000       2.158563        58.7375 
 180   0.0000       2.158647        58.7398 
 181   0.0000       2.185978        59.4835 
 182   0.0000       2.223430        60.5026 
 183   0.0000       2.238998        60.9262 
 184   0.0000       2.247192        61.1492 
 185   0.0000       2.269362        61.7525 
 186   0.0000       2.282323        62.1052 
 187   0.0000       2.299455        62.5714 
 188   0.0000       2.311951        62.9114 
 189   0.0000       2.367756        64.4299 
 190   0.0000       2.403715        65.4084 
 191   0.0000       2.447201        66.5917 
 192   0.0000       2.449298        66.6488 
 193   0.0000       2.470422        67.2236 
 194   0.0000       2.528526        68.8047 
 195   0.0000       2.610782        71.0430 
 196   0.0000       2.803353        76.2831 
 197   0.0000       2.830254        77.0151 
 198   0.0000       2.831494        77.0489 
 199   0.0000       3.036593        82.6299 
 200   0.0000       3.069720        83.5313 
 201   0.0000       3.132236        85.2325 
 202   0.0000       3.193198        86.8913 
 203   0.0000       3.205952        87.2384 
 204   0.0000       3.243096        88.2491 
 205   0.0000       3.243785        88.2679 
 206   0.0000       3.429209        93.3135 
 207   0.0000       3.835172       104.3603 
 208   0.0000       3.848551       104.7244 
 209   0.0000       3.860155       105.0402 
 210   0.0000       3.936081       107.1062 
 211   0.0000       4.062998       110.5598 
 212   0.0000       4.068178       110.7008 
 213   0.0000       4.087239       111.2194 
 214   0.0000       4.157863       113.1412 
 215   0.0000       4.190655       114.0335 
 216   0.0000       4.216752       114.7436 
 217   0.0000       4.224479       114.9539 
 218   0.0000       4.253319       115.7387 
 219   0.0000       4.289739       116.7297 
 220   0.0000       4.321281       117.5880 
 221   0.0000       4.382973       119.2668 
 222   0.0000       4.386258       119.3561 
 223   0.0000       4.433621       120.6450 
 224   0.0000       4.466895       121.5504 
 225   0.0000       4.495221       122.3212 
 226   0.0000       4.552162       123.8706 
 227   0.0000       4.585609       124.7808 
 228   0.0000       4.587499       124.8322 
 229   0.0000       4.697619       127.8287 
 230   0.0000       4.838756       131.6693 
 231   0.0000       4.910843       133.6308 
 232   0.0000       4.929232       134.1312 
 233   0.0000       5.002675       136.1297 
 234   0.0000       5.024712       136.7294 
 235   0.0000       5.076063       138.1267 
 236   0.0000       5.079517       138.2207 
 237   0.0000       5.181684       141.0008 
 238   0.0000       5.193569       141.3242 
 239   0.0000       5.258699       143.0965 
 240   0.0000       5.287576       143.8823 
 241   0.0000       5.332741       145.1112 
 242   0.0000       5.345936       145.4703 
 243   0.0000       5.367466       146.0562 
 244   0.0000       5.469986       148.8459 
 245   0.0000       5.486692       149.3005 
 246   0.0000       5.532197       150.5387 
 247   0.0000       5.680725       154.5804 
 248   0.0000       5.688710       154.7977 
 249   0.0000       5.766017       156.9013 
 250   0.0000       5.830823       158.6648 
 251   0.0000       5.854283       159.3031 
 252   0.0000       5.925800       161.2492 
 253   0.0000       5.939787       161.6298 
 254   0.0000       5.955198       162.0492 
 255   0.0000       5.966403       162.3541 
 256   0.0000       5.998415       163.2252 
 257   0.0000       6.123207       166.6209 
 258   0.0000       6.173423       167.9874 
 259   0.0000       6.185038       168.3035 
 260   0.0000       6.241915       169.8512 
 261   0.0000       6.319022       171.9493 
 262   0.0000       6.404018       174.2622 
 263   0.0000       6.459862       175.7818 
 264   0.0000       6.811555       185.3518 
 265   0.0000       6.948817       189.0869 
 266   0.0000       7.008991       190.7243 
 267   0.0000       7.078535       192.6167 
 268   0.0000       7.129797       194.0117 
 269   0.0000       7.177914       195.3210 
 270   0.0000       7.333312       199.5496 
 271   0.0000       7.619183       207.3285 
 272   0.0000       7.650338       208.1763 
 273   0.0000       7.831442       213.1044 
 274   0.0000       7.934863       215.9186 
 275   0.0000       8.052658       219.1240 
 276   0.0000       8.412153       228.9063 
 277   0.0000       8.437521       229.5966 
 278   0.0000       8.655342       235.5238 
 279   0.0000       8.678632       236.1576 
 280   0.0000       9.044933       246.1251 
 281   0.0000       9.073589       246.9049 
 282   0.0000       9.184966       249.9356 
 283   0.0000       9.237892       251.3758 
 284   0.0000       9.249424       251.6896 
 285   0.0000       9.347444       254.3569 
 286   0.0000       9.384089       255.3540 
 287   0.0000       9.422925       256.4108 
 288   0.0000       9.502317       258.5712 
 289   0.0000       9.507469       258.7114 
 290   0.0000       9.614316       261.6188 
 291   0.0000       9.925640       270.0904 
 292   0.0000      10.037008       273.1209 
 293   0.0000      10.173233       276.8278 
 294   0.0000      10.215297       277.9724 
 295   0.0000      10.605425       288.5883 
 296   0.0000      10.688653       290.8530 
 297   0.0000      10.818727       294.3925 
 298   0.0000      10.833977       294.8075 
 299   0.0000      10.948735       297.9302 
 300   0.0000      10.999004       299.2981 
 301   0.0000      11.061586       301.0011 
 302   0.0000      11.099098       302.0218 
 303   0.0000      11.106437       302.2215 
 304   0.0000      11.209359       305.0222 
 305   0.0000      11.221528       305.3533 
 306   0.0000      11.247633       306.0636 
 307   0.0000      11.341865       308.6278 
 308   0.0000      11.347008       308.7678 
 309   0.0000      11.348732       308.8147 
 310   0.0000      11.502287       312.9931 
 311   0.0000      11.577967       315.0525 
 312   0.0000      11.602567       315.7219 
 313   0.0000      11.627602       316.4031 
 314   0.0000      11.722600       318.9882 
 315   0.0000      11.922166       324.4186 
 316   0.0000      11.971099       325.7502 
 317   0.0000      11.979490       325.9785 
 318   0.0000      11.981739       326.0397 
 319   0.0000      11.982085       326.0491 
 320   0.0000      11.982767       326.0677 
 321   0.0000      11.995254       326.4075 
 322   0.0000      12.040871       327.6487 
 323   0.0000      12.099731       329.2504 
 324   0.0000      12.126041       329.9663 
 325   0.0000      12.394923       337.2830 
 326   0.0000      12.445603       338.6621 
 327   0.0000      12.480310       339.6065 
 328   0.0000      12.564685       341.9024 
 329   0.0000      12.603060       342.9467 
 330   0.0000      12.606591       343.0428 
 331   0.0000      12.615636       343.2889 
 332   0.0000      12.707574       345.7907 
 333   0.0000      12.717914       346.0720 
 334   0.0000      12.733828       346.5051 
 335   0.0000      12.747989       346.8904 
 336   0.0000      12.755808       347.1032 
 337   0.0000      12.764108       347.3290 
 338   0.0000      12.771600       347.5329 
 339   0.0000      12.784025       347.8710 
 340   0.0000      12.787606       347.9685 
 341   0.0000      13.056659       355.2898 
 342   0.0000      13.120314       357.0219 
 343   0.0000      13.145883       357.7177 
 344   0.0000      13.368961       363.7879 
 345   0.0000      13.427710       365.3866 
 346   0.0000      13.477367       366.7378 
 347   0.0000      13.507609       367.5607 
 348   0.0000      13.688480       372.4825 
 349   0.0000      13.894907       378.0996 
 350   0.0000      14.383242       391.3879 
 351   0.0000      14.612801       397.6345 
 352   0.0000      14.704684       400.1348 
 353   0.0000      15.102712       410.9657 
 354   0.0000      15.152649       412.3245 
 355   0.0000      15.331847       417.2008 
 356   0.0000      15.536596       422.7723 
 357   0.0000      16.772315       456.3979 
 358   0.0000      16.852328       458.5752 
 359   0.0000      16.926927       460.6051 
 360   0.0000      16.937147       460.8832 
 361   0.0000      16.937426       460.8908 
 362   0.0000      16.942036       461.0162 
 363   0.0000      17.048323       463.9085 
 364   0.0000      17.062935       464.3061 
 365   0.0000      17.085245       464.9131 
 366   0.0000      17.141815       466.4525 
 367   0.0000      17.169889       467.2164 
 368   0.0000      17.227042       468.7716 
 369   0.0000      17.229498       468.8385 
 370   0.0000      17.295177       470.6257 
 371   0.0000      17.350082       472.1197 
 372   0.0000      17.595648       478.8019 
 373   0.0000      17.790311       484.0990 
 374   0.0000      17.894406       486.9316 
 375   0.0000      17.907828       487.2968 
 376   0.0000      18.006365       489.9781 
 377   0.0000      18.259518       496.8667 
 378   0.0000      18.429090       501.4810 
 379   0.0000      18.546455       504.6747 
 380   0.0000      18.592216       505.9199 
 381   0.0000      18.610061       506.4055 
 382   0.0000      18.627215       506.8723 
 383   0.0000      18.786555       511.2081 
 384   0.0000      18.839623       512.6522 
 385   0.0000      18.876037       513.6431 
 386   0.0000      18.986872       516.6590 
 387   0.0000      19.342611       526.3392 
 388   0.0000      19.477004       529.9962 
 389   0.0000      19.632171       534.2185 
 390   0.0000      22.833702       621.3366 
 391   0.0000      22.937964       624.1737 
 392   0.0000      22.947971       624.4460 
 393   0.0000      22.953367       624.5929 
 394   0.0000      22.988316       625.5439 
 395   0.0000      23.002072       625.9182 
 396   0.0000      23.055979       627.3851 
 397   0.0000      23.913746       650.7261 
 398   0.0000      24.014252       653.4610 
 399   0.0000      24.102437       655.8607 
 400   0.0000      24.543385       667.8595 
 401   0.0000      24.809512       675.1011 
 402   0.0000      24.930833       678.4025 
 403   0.0000      27.436378       746.5818 
 404   0.0000      28.046987       763.1973 
 405   0.0000      29.676626       807.5421 
 406   0.0000      30.565487       831.7292 
 407   0.0000      31.125696       846.9732 
 408   0.0000      31.604444       860.0007 
 409   0.0000      31.849713       866.6747 
 410   0.0000      31.933181       868.9460 
 411   0.0000      31.947875       869.3459 
 412   0.0000      31.953483       869.4985 
 413   0.0000      33.139759       901.7787 
 414   0.0000      33.736140       918.0070 
 415   0.0000      34.162643       929.6128 
 416   0.0000      34.920484       950.2347 
 417   0.0000      66.379984      1806.2912 
 418   0.0000      66.457613      1808.4036 
 419   0.0000      66.466675      1808.6502 
 420   0.0000      66.486547      1809.1909 
 421   0.0000      66.508935      1809.8001 
 422   0.0000      66.538814      1810.6132 
 423   0.0000      66.573460      1811.5559 
 424   0.0000      66.976893      1822.5339 
 425   0.0000      66.989665      1822.8815 
 426   0.0000      67.000609      1823.1793 
 427   0.0000      67.196155      1828.5003 
 428   0.0000      67.521191      1837.3450 
 429   0.0000      67.576289      1838.8443 
 430   0.0000      69.568747      1893.0618 
 431   0.0000      70.074863      1906.8340 
 432   0.0000     142.450297      3876.2696 
 433   0.0000     143.350027      3900.7525 
 434   0.0000     144.085168      3920.7568 

                    ********************************
                    * MULLIKEN POPULATION ANALYSIS *
                    ********************************

--------------------------------------------
MULLIKEN ATOMIC CHARGES AND SPIN POPULATIONS
--------------------------------------------
   0 O :    0.337411    0.000000
   1 O :   -0.168705   -0.000000
   2 O :   -0.168706    0.000000
Sum of atomic charges         :    0.0000000
Sum of atomic spin populations:    0.0000000

-----------------------------------------------------
MULLIKEN REDUCED ORBITAL CHARGES AND SPIN POPULATIONS
-----------------------------------------------------
CHARGE
  0 O s       :     3.750002  s :     3.750002
      pz      :     1.408618  p :     3.687311
      px      :     1.335806
      py      :     0.942887
      dz2     :     0.043768  d :     0.202607
      dxz     :     0.007906
      dyz     :     0.056687
      dx2y2   :     0.037108
      dxy     :     0.057138
      f0      :     0.001134  f :     0.020918
      f+1     :     0.000019
      f-1     :     0.010364
      f+2     :     0.001216
      f-2     :     0.005958
      f+3     :     0.001389
      f-3     :     0.000837
      g0      :     0.000651  g :     0.001616
      g+1     :     0.000019
      g-1     :     0.000456
      g+2     :     0.000462
      g-2     :    -0.000074
      g+3     :     0.000301
      g-3     :    -0.000123
      g+4     :    -0.000039
      g-4     :    -0.000037
      h0      :     0.000163  h :     0.000136
      h+1     :     0.000003
      h-1     :    -0.000009
      h+2     :     0.000086
      h-2     :     0.000036
      h+3     :     0.000002
      h-3     :    -0.000141
      h+4     :    -0.000003
      h-4     :     0.000105
      h+5     :    -0.000028
      h-5     :    -0.000079
  1 O s       :     3.995132  s :     3.995132
      pz      :     1.654623  p :     4.118979
      px      :     1.278450
      py      :     1.185906
      dz2     :     0.007298  d :     0.048023
      dxz     :     0.003942
      dyz     :     0.013960
      dx2y2   :     0.010888
      dxy     :     0.011935
      f0      :     0.000483  f :     0.007232
      f+1     :    -0.000123
      f-1     :     0.001844
      f+2     :     0.002202
      f-2     :     0.001658
      f+3     :     0.000475
      f-3     :     0.000693
      g0      :    -0.000075  g :    -0.000353
      g+1     :     0.000029
      g-1     :    -0.000201
      g+2     :    -0.000149
      g-2     :    -0.000166
      g+3     :     0.000236
      g-3     :     0.000533
      g+4     :    -0.000026
      g-4     :    -0.000534
      h0      :    -0.000073  h :    -0.000308
      h+1     :    -0.000001
      h-1     :    -0.000046
      h+2     :    -0.000028
      h-2     :     0.000007
      h+3     :    -0.000049
      h-3     :    -0.000048
      h+4     :     0.000075
      h-4     :     0.000021
      h+5     :    -0.000151
      h-5     :    -0.000014
  2 O s       :     3.995132  s :     3.995132
      pz      :     1.654623  p :     4.118980
      px      :     1.278450
      py      :     1.185906
      dz2     :     0.007298  d :     0.048023
      dxz     :     0.003942
      dyz     :     0.013960
      dx2y2   :     0.010888
      dxy     :     0.011935
      f0      :     0.000483  f :     0.007232
      f+1     :    -0.000123
      f-1     :     0.001844
      f+2     :     0.002202
      f-2     :     0.001658
      f+3     :     0.000475
      f-3     :     0.000693
      g0      :    -0.000075  g :    -0.000353
      g+1     :     0.000029
      g-1     :    -0.000201
      g+2     :    -0.000148
      g-2     :    -0.000166
      g+3     :     0.000236
      g-3     :     0.000533
      g+4     :    -0.000026
      g-4     :    -0.000534
      h0      :    -0.000073  h :    -0.000308
      h+1     :    -0.000001
      h-1     :    -0.000046
      h+2     :    -0.000028
      h-2     :     0.000007
      h+3     :    -0.000049
      h-3     :    -0.000048
      h+4     :     0.000075
      h-4     :     0.000021
      h+5     :    -0.000151
      h-5     :    -0.000014

SPIN
  0 O s       :    -0.000000  s :    -0.000000
      pz      :    -0.000000  p :     0.000000
      px      :     0.000000
      py      :     0.000000
      dz2     :     0.000000  d :     0.000000
      dxz     :     0.000000
      dyz     :     0.000000
      dx2y2   :     0.000000
      dxy     :    -0.000000
      f0      :    -0.000000  f :     0.000000
      f+1     :    -0.000000
      f-1     :     0.000000
      f+2     :    -0.000000
      f-2     :    -0.000000
      f+3     :     0.000000
      f-3     :     0.000000
      g0      :     0.000000  g :     0.000000
      g+1     :     0.000000
      g-1     :     0.000000
      g+2     :     0.000000
      g-2     :    -0.000000
      g+3     :     0.000000
      g-3     :     0.000000
      g+4     :    -0.000000
      g-4     :    -0.000000
      h0      :     0.000000  h :     0.000000
      h+1     :     0.000000
      h-1     :     0.000000
      h+2     :     0.000000
      h-2     :    -0.000000
      h+3     :     0.000000
      h-3     :     0.000000
      h+4     :     0.000000
      h-4     :    -0.000000
      h+5     :     0.000000
      h-5     :     0.000000
  1 O s       :    -0.000000  s :    -0.000000
      pz      :    -0.000000  p :    -0.000000
      px      :     0.000000
      py      :    -0.000000
      dz2     :     0.000000  d :    -0.000000
      dxz     :     0.000000
      dyz     :    -0.000000
      dx2y2   :    -0.000000
      dxy     :     0.000000
      f0      :    -0.000000  f :     0.000000
      f+1     :     0.000000
      f-1     :     0.000000
      f+2     :    -0.000000
      f-2     :    -0.000000
      f+3     :     0.000000
      f-3     :     0.000000
      g0      :     0.000000  g :    -0.000000
      g+1     :    -0.000000
      g-1     :    -0.000000
      g+2     :     0.000000
      g-2     :     0.000000
      g+3     :     0.000000
      g-3     :    -0.000000
      g+4     :     0.000000
      g-4     :     0.000000
      h0      :    -0.000000  h :    -0.000000
      h+1     :    -0.000000
      h-1     :    -0.000000
      h+2     :    -0.000000
      h-2     :     0.000000
      h+3     :     0.000000
      h-3     :    -0.000000
      h+4     :    -0.000000
      h-4     :     0.000000
      h+5     :     0.000000
      h-5     :     0.000000
  2 O s       :     0.000000  s :     0.000000
      pz      :    -0.000000  p :     0.000000
      px      :    -0.000000
      py      :     0.000000
      dz2     :    -0.000000  d :    -0.000000
      dxz     :    -0.000000
      dyz     :     0.000000
      dx2y2   :    -0.000000
      dxy     :    -0.000000
      f0      :    -0.000000  f :    -0.000000
      f+1     :     0.000000
      f-1     :    -0.000000
      f+2     :     0.000000
      f-2     :     0.000000
      f+3     :    -0.000000
      f-3     :    -0.000000
      g0      :    -0.000000  g :    -0.000000
      g+1     :     0.000000
      g-1     :    -0.000000
      g+2     :    -0.000000
      g-2     :     0.000000
      g+3     :    -0.000000
      g-3     :    -0.000000
      g+4     :    -0.000000
      g-4     :    -0.000000
      h0      :    -0.000000  h :    -0.000000
      h+1     :    -0.000000
      h-1     :    -0.000000
      h+2     :    -0.000000
      h-2     :    -0.000000
      h+3     :     0.000000
      h-3     :    -0.000000
      h+4     :    -0.000000
      h-4     :    -0.000000
      h+5     :    -0.000000
      h-5     :    -0.000000


                     *******************************
                     * LOEWDIN POPULATION ANALYSIS *
                     *******************************

-------------------------------------------
LOEWDIN ATOMIC CHARGES AND SPIN POPULATIONS
-------------------------------------------
   0 O :   -0.178168    0.000000
   1 O :    0.089084   -0.000000
   2 O :    0.089084    0.000000

----------------------------------------------------
LOEWDIN REDUCED ORBITAL CHARGES AND SPIN POPULATIONS
----------------------------------------------------
CHARGE
  0 O s       :     3.132327  s :     3.132327
      pz      :     1.340155  p :     3.590510
      px      :     1.078633
      py      :     1.171722
      dz2     :     0.162987  d :     0.935732
      dxz     :     0.013469
      dyz     :     0.322276
      dx2y2   :     0.226201
      dxy     :     0.210799
      f0      :     0.033978  f :     0.383053
      f+1     :     0.000152
      f-1     :     0.145883
      f+2     :     0.068545
      f-2     :     0.076863
      f+3     :     0.010779
      f-3     :     0.046854
      g0      :     0.009655  g :     0.097728
      g+1     :     0.000207
      g-1     :     0.019816
      g+2     :     0.020936
      g-2     :     0.003004
      g+3     :     0.004629
      g-3     :     0.017079
      g+4     :     0.009299
      g-4     :     0.013104
      h0      :     0.003376  h :     0.038816
      h+1     :     0.000111
      h-1     :     0.003354
      h+2     :     0.005511
      h-2     :     0.000206
      h+3     :     0.000813
      h-3     :     0.004976
      h+4     :     0.005915
      h-4     :     0.008978
      h+5     :     0.001823
      h-5     :     0.003755
  1 O s       :     3.284965  s :     3.284965
      pz      :     1.426628  p :     3.745374
      px      :     1.071733
      py      :     1.247012
      dz2     :     0.052191  d :     0.386973
      dxz     :     0.015009
      dyz     :     0.140509
      dx2y2   :     0.107916
      dxy     :     0.071348
      f0      :     0.021308  f :     0.246385
      f+1     :     0.001182
      f-1     :     0.065062
      f+2     :     0.048836
      f-2     :     0.018178
      f+3     :     0.046067
      f-3     :     0.045753
      g0      :     0.012283  g :     0.145690
      g+1     :     0.000353
      g-1     :     0.025428
      g+2     :     0.024684
      g-2     :     0.002725
      g+3     :     0.006156
      g-3     :     0.020412
      g+4     :     0.024670
      g-4     :     0.028979
      h0      :     0.009289  h :     0.101530
      h+1     :     0.000276
      h-1     :     0.010077
      h+2     :     0.017306
      h-2     :     0.000062
      h+3     :     0.003535
      h-3     :     0.012723
      h+4     :     0.011330
      h-4     :     0.002725
      h+5     :     0.019888
      h-5     :     0.014320
  2 O s       :     3.284965  s :     3.284965
      pz      :     1.426628  p :     3.745374
      px      :     1.071734
      py      :     1.247013
      dz2     :     0.052191  d :     0.386973
      dxz     :     0.015009
      dyz     :     0.140509
      dx2y2   :     0.107916
      dxy     :     0.071348
      f0      :     0.021308  f :     0.246385
      f+1     :     0.001182
      f-1     :     0.065062
      f+2     :     0.048836
      f-2     :     0.018178
      f+3     :     0.046067
      f-3     :     0.045753
      g0      :     0.012283  g :     0.145690
      g+1     :     0.000353
      g-1     :     0.025428
      g+2     :     0.024684
      g-2     :     0.002725
      g+3     :     0.006156
      g-3     :     0.020412
      g+4     :     0.024670
      g-4     :     0.028979
      h0      :     0.009289  h :     0.101530
      h+1     :     0.000276
      h-1     :     0.010077
      h+2     :     0.017306
      h-2     :     0.000062
      h+3     :     0.003535
      h-3     :     0.012723
      h+4     :     0.011330
      h-4     :     0.002725
      h+5     :     0.019888
      h-5     :     0.014320

SPIN
  0 O s       :    -0.000000  s :    -0.000000
      pz      :     0.000000  p :     0.000000
      px      :     0.000000
      py      :     0.000000
      dz2     :     0.000000  d :     0.000000
      dxz     :     0.000000
      dyz     :     0.000000
      dx2y2   :     0.000000
      dxy     :     0.000000
      f0      :    -0.000000  f :    -0.000000
      f+1     :     0.000000
      f-1     :    -0.000000
      f+2     :     0.000000
      f-2     :    -0.000000
      f+3     :     0.000000
      f-3     :    -0.000000
      g0      :     0.000000  g :    -0.000000
      g+1     :    -0.000000
      g-1     :     0.000000
      g+2     :     0.000000
      g-2     :    -0.000000
      g+3     :     0.000000
      g-3     :    -0.000000
      g+4     :    -0.000000
      g-4     :    -0.000000
      h0      :     0.000000  h :    -0.000000
      h+1     :     0.000000
      h-1     :     0.000000
      h+2     :    -0.000000
      h-2     :    -0.000000
      h+3     :     0.000000
      h-3     :     0.000000
      h+4     :    -0.000000
      h-4     :    -0.000000
      h+5     :     0.000000
      h-5     :    -0.000000
  1 O s       :    -0.000000  s :    -0.000000
      pz      :    -0.000000  p :     0.000000
      px      :     0.000000
      py      :    -0.000000
      dz2     :     0.000000  d :     0.000000
      dxz     :    -0.000000
      dyz     :    -0.000000
      dx2y2   :     0.000000
      dxy     :     0.000000
      f0      :     0.000000  f :     0.000000
      f+1     :    -0.000000
      f-1     :     0.000000
      f+2     :     0.000000
      f-2     :    -0.000000
      f+3     :    -0.000000
      f-3     :    -0.000000
      g0      :    -0.000000  g :    -0.000000
      g+1     :     0.000000
      g-1     :     0.000000
      g+2     :     0.000000
      g-2     :    -0.000000
      g+3     :     0.000000
      g-3     :     0.000000
      g+4     :    -0.000000
      g-4     :     0.000000
      h0      :    -0.000000  h :    -0.000000
      h+1     :     0.000000
      h-1     :     0.000000
      h+2     :    -0.000000
      h-2     :    -0.000000
      h+3     :    -0.000000
      h-3     :    -0.000000
      h+4     :     0.000000
      h-4     :    -0.000000
      h+5     :    -0.000000
      h-5     :    -0.000000
  2 O s       :     0.000000  s :     0.000000
      pz      :    -0.000000  p :    -0.000000
      px      :    -0.000000
      py      :    -0.000000
      dz2     :    -0.000000  d :    -0.000000
      dxz     :    -0.000000
      dyz     :    -0.000000
      dx2y2   :    -0.000000
      dxy     :    -0.000000
      f0      :    -0.000000  f :     0.000000
      f+1     :     0.000000
      f-1     :     0.000000
      f+2     :     0.000000
      f-2     :    -0.000000
      f+3     :    -0.000000
      f-3     :     0.000000
      g0      :     0.000000  g :    -0.000000
      g+1     :     0.000000
      g-1     :    -0.000000
      g+2     :    -0.000000
      g-2     :     0.000000
      g+3     :    -0.000000
      g-3     :    -0.000000
      g+4     :    -0.000000
      g-4     :    -0.000000
      h0      :    -0.000000  h :     0.000000
      h+1     :     0.000000
      h-1     :    -0.000000
      h+2     :     0.000000
      h-2     :     0.000000
      h+3     :     0.000000
      h-3     :     0.000000
      h+4     :    -0.000000
      h-4     :     0.000000
      h+5     :     0.000000
      h-5     :     0.000000


                      *****************************
                      * MAYER POPULATION ANALYSIS *
                      *****************************

  NA   - Mulliken gross atomic population
  ZA   - Total nuclear charge
  QA   - Mulliken gross atomic charge
  VA   - Mayer's total valence
  BVA  - Mayer's bonded valence
  FA   - Mayer's free valence

  ATOM       NA         ZA         QA         VA         BVA        FA
  0 O      7.6626     8.0000     0.3374     2.8207     2.8207     0.0000
  1 O      8.1687     8.0000    -0.1687     1.9986     1.9986     0.0000
  2 O      8.1687     8.0000    -0.1687     1.9986     1.9986     0.0000

  Mayer bond orders larger than 0.1
B(  0-O ,  1-O ) :   1.4104 B(  0-O ,  2-O ) :   1.4104 B(  1-O ,  2-O ) :   0.5883 


-------
TIMINGS
-------

Total SCF time: 0 days 0 hours 23 min 48 sec 

Total time                  ....    1428.190 sec
Sum of individual times     ....    1427.002 sec  ( 99.9%)

Fock matrix formation       ....    1422.425 sec  ( 99.6%)
  XC integration            ....      19.849 sec  (  1.4% of F)
    Basis function eval.    ....       1.182 sec  (  6.0% of XC)
    Density eval.           ....       4.476 sec  ( 22.6% of XC)
    XC-Functional eval.     ....       0.168 sec  (  0.8% of XC)
    XC-Potential eval.      ....      12.805 sec  ( 64.5% of XC)
Diagonalization             ....       1.984 sec  (  0.1%)
Density matrix formation    ....       0.031 sec  (  0.0%)
Population analysis         ....       0.196 sec  (  0.0%)
Initial guess               ....       0.883 sec  (  0.1%)
Orbital Transformation      ....       0.000 sec  (  0.0%)
Orbital Orthonormalization  ....       0.000 sec  (  0.0%)
DIIS solution               ....       1.064 sec  (  0.1%)
Grid generation             ....       0.420 sec  (  0.0%)

-------------------------   --------------------
FINAL SINGLE POINT ENERGY      -225.340608363427
-------------------------   --------------------


                            ***************************************
                            *     ORCA property calculations      *
                            ***************************************

                                    ---------------------
                                    Active property flags
                                    ---------------------
   (+) Dipole Moment
   (+) Polarizability


------------------------------------------------------------------------------
                       ORCA ELECTRIC PROPERTIES CALCULATION
------------------------------------------------------------------------------

Dipole Moment Calculation                       ... on
Quadrupole Moment Calculation                   ... off
Polarizability Calculation                      ... Analytic (CP-SCF)
GBWName                                         ... o3_pbe.gbw
Electron density file                           ... o3_pbe.scfp.tmp
The origin for moment calculation is the CENTER OF MASS  = ( 0.000000,  0.000000  0.843700)

-------------
DIPOLE MOMENT
-------------
                                X             Y             Z
Electronic contribution:      0.00000       0.00000      -0.25084
Nuclear contribution   :      0.00000       0.00000      -0.00000
                        -----------------------------------------
Total Dipole Moment    :      0.00000       0.00000      -0.25084
                        -----------------------------------------
Magnitude (a.u.)       :      0.25084
Magnitude (Debye)      :      0.63760



--------------------
Rotational spectrum 
--------------------
 
Rotational constants in cm-1:     3.523990     0.444649     0.394830 
Rotational constants in MHz : 105646.576140 13330.237990 11836.709641 

 Dipole components along the rotational axes: 
x,y,z [a.u.] :     0.000001    -0.250844     0.000000 
x,y,z [Debye]:     0.000002    -0.637596     0.000000 

 
Transforming and storing MO dipole integrals   ... done

                ... starting polarizability calculation

Opening the Dipole integral file               ... (o3_pbe.dmo.tmp) done
Reading Dipole-MO integrals                    ... done
Solving CP-SCF equations                       ... 

           ************************************************************
           *        Program running with 4 parallel MPI-processes     *
           *              working on a common directory               *
           ************************************************************

------------------------------------------------------------------------------
                           ORCA CP-SCF CALCULATION
------------------------------------------------------------------------------

Input orbitals are from        ... o3_pbe.gbw
Input Perturbation             ... o3_pbe.cpv.tmp
Wavefunction output            ... o3_pbe.cpu.tmp
Perturbation mode              ... Real perturbation (singlet)
Solver                         ... POPLE
Max. number of iterations      ... 200
Convergence tolerance          ... 1.000e-06
Integral handling              ... Direct
Number of perturbations        ... 3
Number of operators            ... 2
Orbital ranges used for CP-SCF:
 Operator 0:  Orbitals   0... 11  to  12...434
 Operator 1:  Orbitals   0... 11  to  12...434
DFT calculation                         ... on
Exchange functional (SCF)               ... PBE
Exchange functional (CP-SCF)            ... PBE
   PBE kappa parameter  XKappa (SCF)    ...  0.804000
   PBE kappa parameter  XKappa (CP-SCF) ...  0.804000
   PBE mue parameter   XMuePBE (SCF)    ...  0.219520
   PBE mue parameter   XMuePBE (CP-SCF) ...  0.219520
Correlation functional (SCF)            ... PBE
Correlation functional (CP-SCF)         ... PBE
   PBE beta parameter CBetaPBE (SCF)    ...  0.066725
   PBE beta parameter CBetaPBE (CP-SCF) ...  0.066725
 LDA part of GGA corr.  LDAOpt (SCF)    ... PW91-LDA
 LDA part of GGA corr.  LDAOpt (CP-SCF) ... PW91-LDA
Variables per vector in CP-SCF ... 10152
Number of vectors sought       ... 3
Recalculating density on grid  ... done
Calculating the xc-kernel      ... done
     CP-SCF ITERATION   0: 
     CP-SCF ITERATION   1:      0.244803107097
     CP-SCF ITERATION   2:      0.002947729831
     CP-SCF ITERATION   3:      0.000175294156
     CP-SCF ITERATION   4:      0.000005244295
     CP-SCF ITERATION   5:      0.000005109441
     CP-SCF ITERATION   6:      0.000029210600
     CP-SCF ITERATION   7:      0.000036119094
     CP-SCF ITERATION   8:      0.000013355160
     CP-SCF ITERATION   9:      0.000000068117
done
Reading CP-SCF coefficients                    ... done
Doing the polarizability tensor   ... done
Cleaning up                                    ... done

-------------------------
THE POLARIZABILITY TENSOR
-------------------------

The raw cartesian tensor (atomic units):
   12.33796      0.00000     -0.00000  
    0.00000     31.39178     -0.00002  
   -0.00000     -0.00002     15.05781  
diagonalized tensor: 
   12.33796     15.05781     31.39178  

    1.00000      0.00000      0.00000  
   -0.00000     -0.00000      1.00000  
    0.00000     -1.00000     -0.00000  

Isotropic polarizability :  19.59585


Timings for individual modules:

Sum of individual times         ...     3216.477 sec (=  53.608 min)
GTO integral calculation        ...        2.300 sec (=   0.038 min)   0.1 %
SCF iterations                  ...     1428.476 sec (=  23.808 min)  44.4 %
Solution of CP-SCF eqns.        ...     1785.701 sec (=  29.762 min)  55.5 %
                             ****ORCA TERMINATED NORMALLY****
TOTAL RUN TIME: 0 days 0 hours 53 minutes 37 seconds 492 msec
