
                                 *****************
                                 * O   R   C   A *
                                 *****************

           --- An Ab Initio, DFT and Semiempirical electronic structure package ---

                  #######################################################
                  #                        -***-                        #
                  #          Department of theory and spectroscopy      #
                  #               Directorship: Frank Neese             #
                  #        Max Planck Institute fuer Kohlenforschung    #
                  #                Kaiser Wilhelm Platz 1               #
                  #                 D-45470 Muelheim/Ruhr               #
                  #                      Germany                        #
                  #                                                     #
                  #                  All rights reserved                #
                  #                        -***-                        #
                  #######################################################


                         Program Version 4.1.2  - RELEASE  -


 With contributions from (in alphabetic order):
   Daniel Aravena         : Magnetic Properties
   Michael Atanasov       : Ab Initio Ligand Field Theory
   Alexander A. Auer      : GIAO ZORA
   Ute Becker             : Parallelization
   Giovanni Bistoni       : ED, Open-shell LED
   Martin Brehm           : Molecular dynamics
   Dmytro Bykov           : SCF Hessian
   Vijay G. Chilkuri      : MRCI spin determinant printing
   Dipayan Datta          : RHF DLPNO-CCSD density
   Achintya Kumar Dutta   : EOM-CC, STEOM-CC
   Dmitry Ganyushin       : Spin-Orbit,Spin-Spin,Magnetic field MRCI
   Miquel Garcia          : C-PCM Hessian
   Yang Guo               : DLPNO-NEVPT2, CIM, IAO-localization
   Andreas Hansen         : Spin unrestricted coupled pair/coupled cluster methods
   Benjamin Helmich-Paris : CASSCF linear response (MC-RPA)
   Lee Huntington         : MR-EOM, pCC
   Robert Izsak           : Overlap fitted RIJCOSX, COSX-SCS-MP3, EOM
   Christian Kollmar      : KDIIS, OOCD, Brueckner-CCSD(T), CCSD density
   Simone Kossmann        : Meta GGA functionals, TD-DFT gradient, OOMP2, MP2 Hessian
   Martin Krupicka        : AUTO-CI
   Lucas Lang             : DCDCAS
   Dagmar Lenk            : GEPOL surface, SMD
   Dimitrios Liakos       : Extrapolation schemes; parallel MDCI
   Dimitrios Manganas     : ROCIS; embedding schemes
   Dimitrios Pantazis     : SARC Basis sets
   Taras Petrenko         : DFT Hessian,TD-DFT gradient, ASA, ECA, R-Raman, ABS, FL, XAS/XES, NRVS
   Peter Pinski           : DLPNO-MP2, DLPNO-MP2 Gradient
   Christoph Reimann      : Effective Core Potentials
   Marius Retegan         : Local ZFS, SOC
   Christoph Riplinger    : Optimizer, TS searches, QM/MM, DLPNO-CCSD(T), (RO)-DLPNO pert. Triples
   Tobias Risthaus        : Range-separated hybrids, TD-DFT gradient, RPA, STAB
   Michael Roemelt        : Restricted open shell CIS
   Masaaki Saitow         : Open-shell DLPNO
   Barbara Sandhoefer     : DKH picture change effects
   Avijit Sen             : IP-ROCIS
   Kantharuban Sivalingam : CASSCF convergence, NEVPT2, FIC-MRCI
   Bernardo de Souza      : ESD, SOC TD-DFT
   Georgi Stoychev        : AutoAux, RI-MP2 NMR
   Willem Van den Heuvel  : Paramagnetic NMR
   Boris Wezisla          : Elementary symmetry handling
   Frank Wennmohs         : Technical directorship


 We gratefully acknowledge several colleagues who have allowed us to
 interface, adapt or use parts of their codes:
   Stefan Grimme, W. Hujo, H. Kruse,             : VdW corrections, initial TS optimization,
                  C. Bannwarth                     DFT functionals, gCP, sTDA/sTD-DF
   Ed Valeev                                     : LibInt (2-el integral package), F12 methods
   Garnet Chan, S. Sharma, J. Yang, R. Olivares  : DMRG
   Ulf Ekstrom                                   : XCFun DFT Library
   Mihaly Kallay                                 : mrcc  (arbitrary order and MRCC methods)
   Andreas Klamt, Michael Diedenhofen            : otool_cosmo (COSMO solvation model)
   Jiri Pittner, Ondrej Demel                    : Mk-CCSD
   Frank Weinhold                                : gennbo (NPA and NBO analysis)
   Christopher J. Cramer and Donald G. Truhlar   : smd solvation model
   Lars Goerigk                                  : TD-DFT with DH, B97 family of functionals
   V. Asgeirsson, H. Jonsson                     : NEB implementation
   FAccTs GmbH                                   : IRC, NEB, NEB-TS, Multilevel


 Your calculation uses the libint2 library for the computation of 2-el integrals
 For citations please refer to: http://libint.valeyev.net

 This ORCA versions uses:
   CBLAS   interface :  Fast vector & matrix operations
   LAPACKE interface :  Fast linear algebra routines
   SCALAPACK package :  Parallel linear algebra routines


----- Orbital basis set information -----
Your calculation utilizes the basis: aug-pc-4
   H, C-F              : F. Jensen, J. Chem. Phys. 115, 9113 (2001).
                         F. Jensen, J. Chem. Phys. 116, 7372 (2002).
                         F. Jensen, J. Chem. Phys. 117, 9234 (2002).
   Si-Cl               : F. Jensen, T. Helgaker, J. Chem. Phys. 121, 3463 (2004).
   He-B, Ne-Mg, Al, Ar : F. Jensen, J. Phys. Chem. A 111, 11198 (2007).
   K, Ca, Ga-Kr        : F. Jensen, J. Chem. Phys. 136, 094110 (2012).
   Sc-Zn               : F. Jensen, J. Chem. Phys. 138, 014107 (2013).

================================================================================
                                        WARNINGS
                       Please study these warnings very carefully!
================================================================================


INFO   : the flag for use of LIBINT has been found!

================================================================================
                                       INPUT FILE
================================================================================
NAME = ocl2_pbe.inp
|  1> !uks pbe nori aug-pc-4 grid5 nofinalgrid verytightscf
|  2> 
|  3> %maxcore 1500
|  4> 
|  5> %pal nprocs 4 end
|  6> 
|  7> %scf
|  8> 	maxiter 200
|  9> end
| 10> %elprop
| 11> 	dipole true
| 12> 	 polar 1
| 13> 	 maxiter 200
| 14> end
| 15> 
| 16> * xyz 0 1
| 17> O 0.0000 0.0000 0.7788
| 18> Cl 0.0000 1.3966 -0.1832
| 19> Cl 0.0000 -1.3966 -0.1832
| 20> *
| 21> 
| 22>                          ****END OF INPUT****
================================================================================

                       ****************************
                       * Single Point Calculation *
                       ****************************

---------------------------------
CARTESIAN COORDINATES (ANGSTROEM)
---------------------------------
  O      0.000000    0.000000    0.778800
  Cl     0.000000    1.396600   -0.183200
  Cl     0.000000   -1.396600   -0.183200

----------------------------
CARTESIAN COORDINATES (A.U.)
----------------------------
  NO LB      ZA    FRAG     MASS         X           Y           Z
   0 O     8.0000    0    15.999    0.000000    0.000000    1.471719
   1 Cl   17.0000    0    35.453    0.000000    2.639192   -0.346198
   2 Cl   17.0000    0    35.453    0.000000   -2.639192   -0.346198

--------------------------------
INTERNAL COORDINATES (ANGSTROEM)
--------------------------------
 O      0   0   0     0.000000000000     0.00000000     0.00000000
 Cl     1   0   0     1.695858354934     0.00000000     0.00000000
 Cl     1   2   0     1.695858354934   110.88063892     0.00000000

---------------------------
INTERNAL COORDINATES (A.U.)
---------------------------
 O      0   0   0     0.000000000000     0.00000000     0.00000000
 Cl     1   0   0     3.204707852748     0.00000000     0.00000000
 Cl     1   2   0     3.204707852748   110.88063892     0.00000000

---------------------
BASIS SET INFORMATION
---------------------
There are 2 groups of distinct atoms

 Group   1 Type O   : 27s12p7d4f3g2h contracted to 9s8p7d4f3g2h pattern {1191111111/51111111/1111111/1111/111/11}
 Group   2 Type Cl  : 44s27p7d4f3g2h contracted to 8s7p7d4f3g2h pattern {15121211111/111111111/1111111/1111/111/11}

Atom   0O    basis set group =>   1
Atom   1Cl   basis set group =>   2
Atom   2Cl   basis set group =>   2


           ************************************************************
           *        Program running with 4 parallel MPI-processes     *
           *              working on a common directory               *
           ************************************************************
------------------------------------------------------------------------------
                           ORCA GTO INTEGRAL CALCULATION
------------------------------------------------------------------------------

                         BASIS SET STATISTICS AND STARTUP INFO

 # of primitive gaussian shells          ...  229
 # of primitive gaussian functions       ...  649
 # of contracted shells                  ...   95
 # of contracted basis functions         ...  427
 Highest angular momentum                ...    5
 Maximum contraction depth               ...   15
 Integral package used                   ... LIBINT
 Integral threshhold            Thresh   ...  1.000e-12
 Primitive cut-off              TCut     ...  1.000e-14


------------------------------ INTEGRAL EVALUATION ----------------------------


 * One electron integrals 
 Pre-screening matrix                    ... done
 Shell pair data                         ... done (   0.002 sec)



           ************************************************************
           *        Program running with 4 parallel MPI-processes     *
           *              working on a common directory               *
           ************************************************************
-------------------------------------------------------------------------------
                                 ORCA SCF
-------------------------------------------------------------------------------

------------
SCF SETTINGS
------------
Hamiltonian:
 Density Functional     Method          .... DFT(GTOs)
 Exchange Functional    Exchange        .... PBE
   PBE kappa parameter   XKappa         ....  0.804000
   PBE mue parameter    XMuePBE         ....  0.219520
 Correlation Functional Correlation     .... PBE
   PBE beta parameter  CBetaPBE         ....  0.066725
 LDA part of GGA corr.  LDAOpt          .... PW91-LDA
 Gradients option       PostSCFGGA      .... off
   Density functional embedding theory  .... OFF
   NL short-range parameter             ....  6.400000


General Settings:
 Integral files         IntName         .... ocl2_pbe
 Hartree-Fock type      HFTyp           .... UHF
 Total Charge           Charge          ....    0
 Multiplicity           Mult            ....    1
 Number of Electrons    NEL             ....   42
 Basis Dimension        Dim             ....  427
 Nuclear Repulsion      ENuc            ....    139.6267471493 Eh

Convergence Acceleration:
 DIIS                   CNVDIIS         .... on
   Start iteration      DIISMaxIt       ....    12
   Startup error        DIISStart       ....  0.200000
   # of expansion vecs  DIISMaxEq       ....     5
   Bias factor          DIISBfac        ....   1.050
   Max. coefficient     DIISMaxC        ....  10.000
 Newton-Raphson         CNVNR           .... off
 SOSCF                  CNVSOSCF        .... off
 Level Shifting         CNVShift        .... on
   Level shift para.    LevelShift      ....    0.2500
   Turn off err/grad.   ShiftErr        ....    0.0010
 Zerner damping         CNVZerner       .... off
 Static damping         CNVDamp         .... on
   Fraction old density DampFac         ....    0.7000
   Max. Damping (<1)    DampMax         ....    0.9800
   Min. Damping (>=0)   DampMin         ....    0.0000
   Turn off err/grad.   DampErr         ....    0.1000
 Fernandez-Rico         CNVRico         .... off

SCF Procedure:
 Maximum # iterations   MaxIter         ....   200
 SCF integral mode      SCFMode         .... Direct
   Integral package                     .... LIBINT
 Reset frequency        DirectResetFreq ....    20
 Integral Threshold     Thresh          ....  1.000e-12 Eh
 Primitive CutOff       TCut            ....  1.000e-14 Eh

Convergence Tolerance:
 Convergence Check Mode ConvCheckMode   .... Total+1el-Energy
 Convergence forced     ConvForced      .... 0
 Energy Change          TolE            ....  1.000e-09 Eh
 1-El. energy change                    ....  1.000e-06 Eh
 DIIS Error             TolErr          ....  1.000e-08


Diagonalization of the overlap matrix:
Smallest eigenvalue                        ... 5.503e-06
Time for diagonalization                   ...    0.038 sec
Threshold for overlap eigenvalues          ... 1.000e-08
Number of eigenvalues below threshold      ... 0
Time for construction of square roots      ...    0.035 sec
Total time needed                          ...    0.074 sec

-------------------
DFT GRID GENERATION
-------------------

General Integration Accuracy     IntAcc      ...  5.010
Radial Grid Type                 RadialGrid  ... Gauss-Chebyshev
Angular Grid (max. acc.)         AngularGrid ... Lebedev-434
Angular grid pruning method      GridPruning ... 3 (G Style)
Weight generation scheme         WeightScheme... Becke
Basis function cutoff            BFCut       ...    1.0000e-12
Integration weight cutoff        WCut        ...    1.0000e-14
Grids for H and He will be reduced by one unit

# of grid points (after initial pruning)     ...  34610 (   0.0 sec)
# of grid points (after weights+screening)   ...  34420 (   0.0 sec)
nearest neighbour list constructed           ...    0.0 sec
Grid point re-assignment to atoms done       ...    0.0 sec
Grid point division into batches done        ...    0.3 sec
Reduced shell lists constructed in    0.4 sec

Total number of grid points                  ...    34420
Total number of batches                      ...      538
Average number of points per batch           ...       63
Average number of grid points per atom       ...    11473
Average number of shells per batch           ...    72.01 (75.80%)
Average number of basis functions per batch  ...   333.62 (78.13%)
Average number of large shells per batch     ...    64.46 (89.50%)
Average number of large basis fcns per batch ...   303.03 (90.83%)
Maximum spatial batch extension              ...  14.40, 14.10, 10.84 au
Average spatial batch extension              ...   0.75,  0.71,  0.68 au

Time for grid setup =    0.486 sec

------------------------------
INITIAL GUESS: MODEL POTENTIAL
------------------------------
Loading Hartree-Fock densities                     ... done
Calculating cut-offs                               ... done
Setting up the integral package                    ... done
Initializing the effective Hamiltonian             ... done
Starting the Coulomb interaction                   ... done (   0.1 sec)
Reading the grid                                   ... done
Mapping shells                                     ... done
Starting the XC term evaluation                    ... done (   0.7 sec)
  promolecular density results
     # of electrons  =     41.999999256
     EX              =    -62.877459932
     EC              =     -1.606918548
     EX+EC           =    -64.484378481
Transforming the Hamiltonian                       ... done (   0.0 sec)
Diagonalizing the Hamiltonian                      ... done (   0.0 sec)
Back transforming the eigenvectors                 ... done (   0.0 sec)
Now organizing SCF variables                       ... done
                      ------------------
                      INITIAL GUESS DONE (   1.7 sec)
                      ------------------
--------------
SCF ITERATIONS
--------------
ITER       Energy         Delta-E        Max-DP      RMS-DP      [F,P]     Damp
               ***  Starting incremental Fock matrix formation  ***
  0   -995.1387472657   0.000000000000 0.00741790  0.00008305  0.0850831 0.7000
  1   -995.1463924608  -0.007645195086 0.00566525  0.00005991  0.0435263 0.7000
                               ***Turning on DIIS***
  2   -995.1487826350  -0.002390174195 0.01310937  0.00012650  0.0209593 0.0000
  3   -995.1545919352  -0.005809300296 0.00244577  0.00002927  0.0156080 0.0000
  4   -995.1549337123  -0.000341777003 0.00099251  0.00000903  0.0072193 0.0000
  5   -995.1549998317  -0.000066119412 0.00022067  0.00000321  0.0020936 0.0000
  6   -995.1550060041  -0.000006172464 0.00019511  0.00000183  0.0004241 0.0000
  7   -995.1550063462  -0.000000342109 0.00004197  0.00000048  0.0001930 0.0000
  8   -995.1550064369  -0.000000090693 0.00001244  0.00000015  0.0000636 0.0000
  9   -995.1550064517  -0.000000014752 0.00000304  0.00000004  0.0000158 0.0000
 10   -995.1550064530  -0.000000001315 0.00000167  0.00000002  0.0000038 0.0000
 11   -995.1550064531  -0.000000000065 0.00000276  0.00000002  0.0000010 0.0000
 12   -995.1550064530   0.000000000010 0.00000379  0.00000003  0.0000002 0.0000
 13   -995.1550064531  -0.000000000027 0.00000313  0.00000002  0.0000001 0.0000
 14   -995.1550064530   0.000000000031 0.00000462  0.00000004  0.0000000 0.0000
                 **** Energy Check signals convergence ****

               *****************************************************
               *                     SUCCESS                       *
               *           SCF CONVERGED AFTER  15 CYCLES          *
               *****************************************************


----------------
TOTAL SCF ENERGY
----------------

Total Energy       :         -995.15500645 Eh          -27079.54442 eV

Components:
Nuclear Repulsion  :          139.62674715 Eh            3799.43695 eV
Electronic Energy  :        -1134.78175360 Eh          -30878.98137 eV
One Electron Energy:        -1651.60777276 Eh          -44942.53233 eV
Two Electron Energy:          516.82601916 Eh           14063.55096 eV

Virial components:
Potential Energy   :        -1989.35875324 Eh          -54133.20375 eV
Kinetic Energy     :          994.20374679 Eh           27053.65933 eV
Virial Ratio       :            2.00095681


DFT components:
N(Alpha)           :       21.000000356164 electrons
N(Beta)            :       21.000000356164 electrons
N(Total)           :       42.000000712328 electrons
E(X)               :      -62.940016045097 Eh       
E(C)               :       -1.600286728126 Eh       
E(XC)              :      -64.540302773223 Eh       
DFET-embed. en.    :        0.000000000000 Eh       

---------------
SCF CONVERGENCE
---------------

  Last Energy change         ...   -1.6144e-11  Tolerance :   1.0000e-09
  Last MAX-Density change    ...    3.1013e-06  Tolerance :   1.0000e-08
  Last RMS-Density change    ...    1.8415e-08  Tolerance :   1.0000e-09
  Last DIIS Error            ...    1.4561e-08  Tolerance :   1.0000e-08

             **** THE GBW FILE WAS UPDATED (ocl2_pbe.gbw) ****
             **** DENSITY FILE WAS UPDATED (ocl2_pbe.scfp.tmp) ****
             **** ENERGY FILE WAS UPDATED (ocl2_pbe.en.tmp) ****
----------------------
UHF SPIN CONTAMINATION
----------------------

Warning: in a DFT calculation there is little theoretical justification to 
         calculate <S**2> as in Hartree-Fock theory. We will do it anyways
         but you should keep in mind that the values have only limited relevance

Expectation value of <S**2>     :     0.000000
Ideal value S*(S+1) for S=0.0   :     0.000000
Deviation                       :     0.000000

----------------
ORBITAL ENERGIES
----------------
                 SPIN UP ORBITALS
  NO   OCC          E(Eh)            E(eV) 
   0   1.0000    -100.713307     -2740.5484 
   1   1.0000    -100.713307     -2740.5484 
   2   1.0000     -18.886434      -513.9260 
   3   1.0000      -9.233341      -251.2520 
   4   1.0000      -9.233341      -251.2520 
   5   1.0000      -7.061168      -192.1442 
   6   1.0000      -7.061168      -192.1441 
   7   1.0000      -7.044321      -191.6857 
   8   1.0000      -7.044321      -191.6857 
   9   1.0000      -7.043400      -191.6607 
  10   1.0000      -7.043400      -191.6607 
  11   1.0000      -1.029155       -28.0047 
  12   1.0000      -0.800725       -21.7888 
  13   1.0000      -0.701190       -19.0803 
  14   1.0000      -0.496220       -13.5028 
  15   1.0000      -0.447190       -12.1687 
  16   1.0000      -0.414693       -11.2844 
  17   1.0000      -0.311197        -8.4681 
  18   1.0000      -0.310956        -8.4616 
  19   1.0000      -0.296984        -8.0813 
  20   1.0000      -0.247722        -6.7408 
  21   0.0000      -0.169431        -4.6105 
  22   0.0000      -0.105411        -2.8684 
  23   0.0000      -0.008417        -0.2290 
  24   0.0000       0.011458         0.3118 
  25   0.0000       0.019024         0.5177 
  26   0.0000       0.020245         0.5509 
  27   0.0000       0.041764         1.1365 
  28   0.0000       0.042405         1.1539 
  29   0.0000       0.043940         1.1957 
  30   0.0000       0.053663         1.4602 
  31   0.0000       0.055822         1.5190 
  32   0.0000       0.069488         1.8909 
  33   0.0000       0.092781         2.5247 
  34   0.0000       0.097869         2.6631 
  35   0.0000       0.099859         2.7173 
  36   0.0000       0.108133         2.9425 
  37   0.0000       0.126642         3.4461 
  38   0.0000       0.127606         3.4723 
  39   0.0000       0.131522         3.5789 
  40   0.0000       0.134245         3.6530 
  41   0.0000       0.141912         3.8616 
  42   0.0000       0.148649         4.0450 
  43   0.0000       0.148663         4.0453 
  44   0.0000       0.155181         4.2227 
  45   0.0000       0.165567         4.5053 
  46   0.0000       0.168782         4.5928 
  47   0.0000       0.182556         4.9676 
  48   0.0000       0.190389         5.1807 
  49   0.0000       0.198417         5.3992 
  50   0.0000       0.201564         5.4848 
  51   0.0000       0.202439         5.5086 
  52   0.0000       0.233287         6.3481 
  53   0.0000       0.235493         6.4081 
  54   0.0000       0.237705         6.4683 
  55   0.0000       0.254398         6.9225 
  56   0.0000       0.254762         6.9324 
  57   0.0000       0.259693         7.0666 
  58   0.0000       0.260360         7.0848 
  59   0.0000       0.273879         7.4526 
  60   0.0000       0.284912         7.7529 
  61   0.0000       0.287326         7.8185 
  62   0.0000       0.294443         8.0122 
  63   0.0000       0.320426         8.7192 
  64   0.0000       0.326474         8.8838 
  65   0.0000       0.329236         8.9590 
  66   0.0000       0.331331         9.0160 
  67   0.0000       0.333008         9.0616 
  68   0.0000       0.340670         9.2701 
  69   0.0000       0.341374         9.2892 
  70   0.0000       0.352016         9.5788 
  71   0.0000       0.360324         9.8049 
  72   0.0000       0.375757        10.2249 
  73   0.0000       0.379055        10.3146 
  74   0.0000       0.392062        10.6686 
  75   0.0000       0.398631        10.8473 
  76   0.0000       0.417400        11.3580 
  77   0.0000       0.420493        11.4422 
  78   0.0000       0.430448        11.7131 
  79   0.0000       0.436287        11.8720 
  80   0.0000       0.441456        12.0126 
  81   0.0000       0.458096        12.4654 
  82   0.0000       0.459088        12.4924 
  83   0.0000       0.471828        12.8391 
  84   0.0000       0.475026        12.9261 
  85   0.0000       0.496432        13.5086 
  86   0.0000       0.504776        13.7357 
  87   0.0000       0.506974        13.7955 
  88   0.0000       0.509500        13.8642 
  89   0.0000       0.524915        14.2837 
  90   0.0000       0.531502        14.4629 
  91   0.0000       0.533721        14.5233 
  92   0.0000       0.557311        15.1652 
  93   0.0000       0.560786        15.2598 
  94   0.0000       0.565568        15.3899 
  95   0.0000       0.572873        15.5887 
  96   0.0000       0.586640        15.9633 
  97   0.0000       0.592131        16.1127 
  98   0.0000       0.596871        16.2417 
  99   0.0000       0.605239        16.4694 
 100   0.0000       0.606473        16.5030 
 101   0.0000       0.612996        16.6805 
 102   0.0000       0.616049        16.7635 
 103   0.0000       0.617258        16.7964 
 104   0.0000       0.631161        17.1748 
 105   0.0000       0.631549        17.1853 
 106   0.0000       0.635180        17.2841 
 107   0.0000       0.674532        18.3550 
 108   0.0000       0.695217        18.9178 
 109   0.0000       0.696357        18.9488 
 110   0.0000       0.702671        19.1206 
 111   0.0000       0.712395        19.3853 
 112   0.0000       0.712514        19.3885 
 113   0.0000       0.720292        19.6001 
 114   0.0000       0.720758        19.6128 
 115   0.0000       0.727563        19.7980 
 116   0.0000       0.740209        20.1421 
 117   0.0000       0.746863        20.3232 
 118   0.0000       0.752249        20.4697 
 119   0.0000       0.754386        20.5279 
 120   0.0000       0.783044        21.3077 
 121   0.0000       0.800408        21.7802 
 122   0.0000       0.801088        21.7987 
 123   0.0000       0.816598        22.2208 
 124   0.0000       0.819420        22.2975 
 125   0.0000       0.834386        22.7048 
 126   0.0000       0.851626        23.1739 
 127   0.0000       0.861333        23.4381 
 128   0.0000       0.870251        23.6807 
 129   0.0000       0.871659        23.7191 
 130   0.0000       0.884030        24.0557 
 131   0.0000       0.885326        24.0909 
 132   0.0000       0.890874        24.2419 
 133   0.0000       0.892038        24.2736 
 134   0.0000       0.902957        24.5707 
 135   0.0000       0.908265        24.7152 
 136   0.0000       0.930178        25.3114 
 137   0.0000       0.936568        25.4853 
 138   0.0000       0.937520        25.5112 
 139   0.0000       0.953163        25.9369 
 140   0.0000       0.962153        26.1815 
 141   0.0000       0.977082        26.5877 
 142   0.0000       0.977543        26.6003 
 143   0.0000       0.989572        26.9276 
 144   0.0000       0.997982        27.1565 
 145   0.0000       0.999066        27.1860 
 146   0.0000       1.021111        27.7859 
 147   0.0000       1.028705        27.9925 
 148   0.0000       1.029392        28.0112 
 149   0.0000       1.032468        28.0949 
 150   0.0000       1.038715        28.2649 
 151   0.0000       1.061183        28.8762 
 152   0.0000       1.076639        29.2968 
 153   0.0000       1.076671        29.2977 
 154   0.0000       1.079868        29.3847 
 155   0.0000       1.086933        29.5770 
 156   0.0000       1.093096        29.7447 
 157   0.0000       1.097418        29.8623 
 158   0.0000       1.100689        29.9513 
 159   0.0000       1.119842        30.4725 
 160   0.0000       1.139018        30.9943 
 161   0.0000       1.143686        31.1213 
 162   0.0000       1.153862        31.3982 
 163   0.0000       1.161227        31.5986 
 164   0.0000       1.180783        32.1307 
 165   0.0000       1.187421        32.3114 
 166   0.0000       1.197264        32.5792 
 167   0.0000       1.222890        33.2765 
 168   0.0000       1.229236        33.4492 
 169   0.0000       1.243305        33.8320 
 170   0.0000       1.254145        34.1270 
 171   0.0000       1.264370        34.4053 
 172   0.0000       1.264825        34.4176 
 173   0.0000       1.278384        34.7866 
 174   0.0000       1.293332        35.1934 
 175   0.0000       1.306408        35.5492 
 176   0.0000       1.373500        37.3748 
 177   0.0000       1.375938        37.4412 
 178   0.0000       1.502344        40.8809 
 179   0.0000       1.517264        41.2868 
 180   0.0000       1.561674        42.4953 
 181   0.0000       1.582700        43.0675 
 182   0.0000       1.588475        43.2246 
 183   0.0000       1.588877        43.2356 
 184   0.0000       1.615114        43.9495 
 185   0.0000       1.639352        44.6090 
 186   0.0000       1.656935        45.0875 
 187   0.0000       1.681080        45.7445 
 188   0.0000       1.689011        45.9603 
 189   0.0000       1.740094        47.3504 
 190   0.0000       1.741606        47.3915 
 191   0.0000       1.768969        48.1361 
 192   0.0000       1.786083        48.6018 
 193   0.0000       1.852198        50.4009 
 194   0.0000       1.866565        50.7918 
 195   0.0000       1.882701        51.2309 
 196   0.0000       1.884712        51.2856 
 197   0.0000       1.896417        51.6041 
 198   0.0000       1.909593        51.9627 
 199   0.0000       1.927244        52.4430 
 200   0.0000       1.976834        53.7924 
 201   0.0000       1.982614        53.9497 
 202   0.0000       1.983982        53.9869 
 203   0.0000       2.025027        55.1038 
 204   0.0000       2.062595        56.1261 
 205   0.0000       2.063904        56.1617 
 206   0.0000       2.150221        58.5105 
 207   0.0000       2.151612        58.5483 
 208   0.0000       2.217804        60.3495 
 209   0.0000       2.228693        60.6458 
 210   0.0000       2.257935        61.4415 
 211   0.0000       2.264082        61.6088 
 212   0.0000       2.302472        62.6535 
 213   0.0000       2.326031        63.2945 
 214   0.0000       2.346443        63.8500 
 215   0.0000       2.350180        63.9516 
 216   0.0000       2.366327        64.3910 
 217   0.0000       2.532378        68.9095 
 218   0.0000       2.544906        69.2504 
 219   0.0000       2.548651        69.3523 
 220   0.0000       2.639979        71.8375 
 221   0.0000       2.646985        72.0281 
 222   0.0000       2.723523        74.1108 
 223   0.0000       2.849470        77.5380 
 224   0.0000       2.862095        77.8816 
 225   0.0000       2.867412        78.0263 
 226   0.0000       2.899652        78.9035 
 227   0.0000       2.911724        79.2320 
 228   0.0000       2.913492        79.2801 
 229   0.0000       2.922867        79.5352 
 230   0.0000       2.933147        79.8150 
 231   0.0000       2.975186        80.9589 
 232   0.0000       2.989578        81.3506 
 233   0.0000       3.043537        82.8188 
 234   0.0000       3.134800        85.3022 
 235   0.0000       3.214108        87.4603 
 236   0.0000       3.337907        90.8291 
 237   0.0000       3.483431        94.7890 
 238   0.0000       3.538425        96.2854 
 239   0.0000       3.608661        98.1967 
 240   0.0000       3.681988       100.1920 
 241   0.0000       3.693252       100.4985 
 242   0.0000       3.699706       100.6741 
 243   0.0000       3.723666       101.3261 
 244   0.0000       3.739159       101.7477 
 245   0.0000       3.755929       102.2040 
 246   0.0000       3.768454       102.5448 
 247   0.0000       3.831497       104.2603 
 248   0.0000       3.861171       105.0678 
 249   0.0000       3.903568       106.2215 
 250   0.0000       3.905672       106.2787 
 251   0.0000       3.967439       107.9595 
 252   0.0000       3.972982       108.1103 
 253   0.0000       3.981709       108.3478 
 254   0.0000       3.987729       108.5116 
 255   0.0000       4.025269       109.5331 
 256   0.0000       4.056756       110.3899 
 257   0.0000       4.140877       112.6790 
 258   0.0000       4.162085       113.2561 
 259   0.0000       4.217743       114.7706 
 260   0.0000       4.230191       115.1094 
 261   0.0000       4.259670       115.9115 
 262   0.0000       4.307886       117.2235 
 263   0.0000       4.327041       117.7448 
 264   0.0000       4.558428       124.0411 
 265   0.0000       4.584943       124.7627 
 266   0.0000       4.757848       129.4676 
 267   0.0000       4.761228       129.5596 
 268   0.0000       4.813857       130.9917 
 269   0.0000       4.828161       131.3809 
 270   0.0000       4.927588       134.0865 
 271   0.0000       4.967047       135.1602 
 272   0.0000       4.968800       135.2079 
 273   0.0000       5.028446       136.8310 
 274   0.0000       5.064697       137.8174 
 275   0.0000       5.120860       139.3457 
 276   0.0000       5.122722       139.3963 
 277   0.0000       5.154142       140.2513 
 278   0.0000       5.169744       140.6759 
 279   0.0000       5.315396       144.6393 
 280   0.0000       5.499923       149.6605 
 281   0.0000       5.505154       149.8029 
 282   0.0000       5.642377       153.5369 
 283   0.0000       5.643205       153.5594 
 284   0.0000       5.644241       153.5876 
 285   0.0000       5.650595       153.7605 
 286   0.0000       5.654716       153.8727 
 287   0.0000       5.655417       153.8917 
 288   0.0000       5.655910       153.9051 
 289   0.0000       5.656036       153.9086 
 290   0.0000       5.678887       154.5304 
 291   0.0000       5.682912       154.6399 
 292   0.0000       5.692168       154.8918 
 293   0.0000       5.750246       156.4722 
 294   0.0000       5.776343       157.1823 
 295   0.0000       5.813813       158.2019 
 296   0.0000       5.847896       159.1294 
 297   0.0000       5.855159       159.3270 
 298   0.0000       5.855293       159.3306 
 299   0.0000       5.858561       159.4195 
 300   0.0000       5.906372       160.7206 
 301   0.0000       5.910996       160.8464 
 302   0.0000       5.911548       160.8614 
 303   0.0000       6.047783       164.5685 
 304   0.0000       6.069101       165.1486 
 305   0.0000       6.167735       167.8326 
 306   0.0000       6.232311       169.5898 
 307   0.0000       6.245952       169.9610 
 308   0.0000       6.266657       170.5244 
 309   0.0000       6.293721       171.2609 
 310   0.0000       6.560169       178.5113 
 311   0.0000       6.624444       180.2603 
 312   0.0000       6.792372       184.8298 
 313   0.0000       7.048135       191.7895 
 314   0.0000       7.049223       191.8191 
 315   0.0000       7.109592       193.4618 
 316   0.0000       7.390101       201.0949 
 317   0.0000       7.519542       204.6171 
 318   0.0000       7.633820       207.7268 
 319   0.0000       7.709581       209.7884 
 320   0.0000       8.022674       218.3080 
 321   0.0000       8.058388       219.2799 
 322   0.0000       9.088737       247.3171 
 323   0.0000       9.088941       247.3227 
 324   0.0000       9.089936       247.3497 
 325   0.0000       9.095368       247.4975 
 326   0.0000       9.097058       247.5435 
 327   0.0000       9.097674       247.5603 
 328   0.0000       9.102322       247.6868 
 329   0.0000       9.117575       248.1018 
 330   0.0000       9.233156       251.2470 
 331   0.0000       9.269285       252.2301 
 332   0.0000       9.296361       252.9668 
 333   0.0000       9.299625       253.0557 
 334   0.0000       9.407400       255.9884 
 335   0.0000       9.497246       258.4332 
 336   0.0000       9.505704       258.6633 
 337   0.0000       9.803703       266.7723 
 338   0.0000       9.811917       266.9958 
 339   0.0000       9.836924       267.6763 
 340   0.0000       9.847998       267.9777 
 341   0.0000       9.907282       269.5908 
 342   0.0000       9.995854       272.0010 
 343   0.0000      10.203500       277.6513 
 344   0.0000      10.282898       279.8119 
 345   0.0000      10.651446       289.8406 
 346   0.0000      10.903387       296.6963 
 347   0.0000      11.512137       313.2612 
 348   0.0000      11.724251       319.0331 
 349   0.0000      11.970541       325.7350 
 350   0.0000      11.973882       325.8259 
 351   0.0000      12.048382       327.8532 
 352   0.0000      12.072333       328.5049 
 353   0.0000      12.124043       329.9120 
 354   0.0000      12.157504       330.8225 
 355   0.0000      12.167522       331.0951 
 356   0.0000      12.197086       331.8996 
 357   0.0000      12.235574       332.9469 
 358   0.0000      12.403271       337.5101 
 359   0.0000      12.409088       337.6684 
 360   0.0000      12.698296       345.5382 
 361   0.0000      12.756650       347.1261 
 362   0.0000      12.767366       347.4177 
 363   0.0000      12.792619       348.1049 
 364   0.0000      12.822810       348.9264 
 365   0.0000      12.851183       349.6985 
 366   0.0000      12.894210       350.8693 
 367   0.0000      12.908666       351.2627 
 368   0.0000      12.914900       351.4323 
 369   0.0000      12.916491       351.4756 
 370   0.0000      12.943084       352.1992 
 371   0.0000      12.963891       352.7654 
 372   0.0000      12.966380       352.8331 
 373   0.0000      12.972160       352.9904 
 374   0.0000      13.098779       356.4359 
 375   0.0000      13.280647       361.3848 
 376   0.0000      13.296200       361.8080 
 377   0.0000      13.333622       362.8263 
 378   0.0000      13.370710       363.8355 
 379   0.0000      14.040560       382.0631 
 380   0.0000      14.260891       388.0586 
 381   0.0000      17.044824       463.8132 
 382   0.0000      17.095370       465.1887 
 383   0.0000      17.311372       471.0664 
 384   0.0000      17.499123       476.1753 
 385   0.0000      17.573999       478.2128 
 386   0.0000      17.604331       479.0382 
 387   0.0000      17.606706       479.1028 
 388   0.0000      17.622007       479.5192 
 389   0.0000      17.653038       480.3636 
 390   0.0000      17.667569       480.7590 
 391   0.0000      17.682553       481.1667 
 392   0.0000      17.722013       482.2405 
 393   0.0000      17.809273       484.6150 
 394   0.0000      17.815109       484.7738 
 395   0.0000      17.892601       486.8824 
 396   0.0000      17.940536       488.1868 
 397   0.0000      17.944522       488.2953 
 398   0.0000      18.688875       508.5501 
 399   0.0000      18.728240       509.6213 
 400   0.0000      22.938611       624.1913 
 401   0.0000      23.001916       625.9140 
 402   0.0000      23.016642       626.3147 
 403   0.0000      23.448219       638.0585 
 404   0.0000      23.671517       644.1347 
 405   0.0000      29.649616       806.8071 
 406   0.0000      31.688311       862.2828 
 407   0.0000      32.221760       876.7987 
 408   0.0000      32.443046       882.8202 
 409   0.0000      39.714987      1080.6998 
 410   0.0000      40.506531      1102.2387 
 411   0.0000      65.766227      1789.5900 
 412   0.0000      65.783242      1790.0530 
 413   0.0000      65.796172      1790.4049 
 414   0.0000      65.809898      1790.7784 
 415   0.0000      65.814161      1790.8944 
 416   0.0000      65.822705      1791.1269 
 417   0.0000      65.839954      1791.5962 
 418   0.0000      65.879211      1792.6645 
 419   0.0000      66.091061      1798.4292 
 420   0.0000      66.098774      1798.6391 
 421   0.0000      66.498604      1809.5190 
 422   0.0000      66.551287      1810.9526 
 423   0.0000      66.551841      1810.9677 
 424   0.0000      66.871446      1819.6646 
 425   0.0000      67.035126      1824.1185 
 426   0.0000     142.402233      3874.9618 

                 SPIN DOWN ORBITALS
  NO   OCC          E(Eh)            E(eV) 
   0   1.0000    -100.713307     -2740.5484 
   1   1.0000    -100.713307     -2740.5484 
   2   1.0000     -18.886434      -513.9260 
   3   1.0000      -9.233341      -251.2520 
   4   1.0000      -9.233341      -251.2520 
   5   1.0000      -7.061168      -192.1442 
   6   1.0000      -7.061168      -192.1441 
   7   1.0000      -7.044321      -191.6857 
   8   1.0000      -7.044321      -191.6857 
   9   1.0000      -7.043400      -191.6607 
  10   1.0000      -7.043400      -191.6607 
  11   1.0000      -1.029155       -28.0047 
  12   1.0000      -0.800725       -21.7888 
  13   1.0000      -0.701190       -19.0803 
  14   1.0000      -0.496220       -13.5028 
  15   1.0000      -0.447190       -12.1687 
  16   1.0000      -0.414693       -11.2844 
  17   1.0000      -0.311197        -8.4681 
  18   1.0000      -0.310956        -8.4616 
  19   1.0000      -0.296984        -8.0813 
  20   1.0000      -0.247722        -6.7408 
  21   0.0000      -0.169431        -4.6105 
  22   0.0000      -0.105411        -2.8684 
  23   0.0000      -0.008417        -0.2290 
  24   0.0000       0.011458         0.3118 
  25   0.0000       0.019024         0.5177 
  26   0.0000       0.020245         0.5509 
  27   0.0000       0.041764         1.1365 
  28   0.0000       0.042405         1.1539 
  29   0.0000       0.043940         1.1957 
  30   0.0000       0.053663         1.4602 
  31   0.0000       0.055822         1.5190 
  32   0.0000       0.069488         1.8909 
  33   0.0000       0.092781         2.5247 
  34   0.0000       0.097869         2.6631 
  35   0.0000       0.099859         2.7173 
  36   0.0000       0.108133         2.9425 
  37   0.0000       0.126642         3.4461 
  38   0.0000       0.127606         3.4723 
  39   0.0000       0.131522         3.5789 
  40   0.0000       0.134245         3.6530 
  41   0.0000       0.141912         3.8616 
  42   0.0000       0.148649         4.0450 
  43   0.0000       0.148663         4.0453 
  44   0.0000       0.155181         4.2227 
  45   0.0000       0.165567         4.5053 
  46   0.0000       0.168782         4.5928 
  47   0.0000       0.182556         4.9676 
  48   0.0000       0.190389         5.1807 
  49   0.0000       0.198417         5.3992 
  50   0.0000       0.201564         5.4848 
  51   0.0000       0.202439         5.5086 
  52   0.0000       0.233287         6.3481 
  53   0.0000       0.235493         6.4081 
  54   0.0000       0.237705         6.4683 
  55   0.0000       0.254398         6.9225 
  56   0.0000       0.254762         6.9324 
  57   0.0000       0.259693         7.0666 
  58   0.0000       0.260360         7.0848 
  59   0.0000       0.273879         7.4526 
  60   0.0000       0.284912         7.7529 
  61   0.0000       0.287326         7.8185 
  62   0.0000       0.294443         8.0122 
  63   0.0000       0.320426         8.7192 
  64   0.0000       0.326474         8.8838 
  65   0.0000       0.329236         8.9590 
  66   0.0000       0.331331         9.0160 
  67   0.0000       0.333008         9.0616 
  68   0.0000       0.340670         9.2701 
  69   0.0000       0.341374         9.2892 
  70   0.0000       0.352016         9.5788 
  71   0.0000       0.360324         9.8049 
  72   0.0000       0.375757        10.2249 
  73   0.0000       0.379055        10.3146 
  74   0.0000       0.392062        10.6686 
  75   0.0000       0.398631        10.8473 
  76   0.0000       0.417400        11.3580 
  77   0.0000       0.420493        11.4422 
  78   0.0000       0.430448        11.7131 
  79   0.0000       0.436287        11.8720 
  80   0.0000       0.441456        12.0126 
  81   0.0000       0.458096        12.4654 
  82   0.0000       0.459088        12.4924 
  83   0.0000       0.471828        12.8391 
  84   0.0000       0.475026        12.9261 
  85   0.0000       0.496432        13.5086 
  86   0.0000       0.504776        13.7357 
  87   0.0000       0.506974        13.7955 
  88   0.0000       0.509500        13.8642 
  89   0.0000       0.524915        14.2837 
  90   0.0000       0.531502        14.4629 
  91   0.0000       0.533721        14.5233 
  92   0.0000       0.557311        15.1652 
  93   0.0000       0.560786        15.2598 
  94   0.0000       0.565568        15.3899 
  95   0.0000       0.572873        15.5887 
  96   0.0000       0.586640        15.9633 
  97   0.0000       0.592131        16.1127 
  98   0.0000       0.596871        16.2417 
  99   0.0000       0.605239        16.4694 
 100   0.0000       0.606473        16.5030 
 101   0.0000       0.612996        16.6805 
 102   0.0000       0.616049        16.7635 
 103   0.0000       0.617258        16.7964 
 104   0.0000       0.631161        17.1748 
 105   0.0000       0.631549        17.1853 
 106   0.0000       0.635180        17.2841 
 107   0.0000       0.674532        18.3550 
 108   0.0000       0.695217        18.9178 
 109   0.0000       0.696357        18.9488 
 110   0.0000       0.702671        19.1206 
 111   0.0000       0.712395        19.3853 
 112   0.0000       0.712514        19.3885 
 113   0.0000       0.720292        19.6001 
 114   0.0000       0.720758        19.6128 
 115   0.0000       0.727563        19.7980 
 116   0.0000       0.740209        20.1421 
 117   0.0000       0.746863        20.3232 
 118   0.0000       0.752249        20.4697 
 119   0.0000       0.754386        20.5279 
 120   0.0000       0.783044        21.3077 
 121   0.0000       0.800408        21.7802 
 122   0.0000       0.801088        21.7987 
 123   0.0000       0.816598        22.2208 
 124   0.0000       0.819420        22.2975 
 125   0.0000       0.834386        22.7048 
 126   0.0000       0.851626        23.1739 
 127   0.0000       0.861333        23.4381 
 128   0.0000       0.870251        23.6807 
 129   0.0000       0.871659        23.7191 
 130   0.0000       0.884030        24.0557 
 131   0.0000       0.885326        24.0909 
 132   0.0000       0.890874        24.2419 
 133   0.0000       0.892038        24.2736 
 134   0.0000       0.902957        24.5707 
 135   0.0000       0.908265        24.7152 
 136   0.0000       0.930178        25.3114 
 137   0.0000       0.936568        25.4853 
 138   0.0000       0.937520        25.5112 
 139   0.0000       0.953163        25.9369 
 140   0.0000       0.962153        26.1815 
 141   0.0000       0.977082        26.5877 
 142   0.0000       0.977543        26.6003 
 143   0.0000       0.989572        26.9276 
 144   0.0000       0.997982        27.1565 
 145   0.0000       0.999066        27.1860 
 146   0.0000       1.021111        27.7859 
 147   0.0000       1.028705        27.9925 
 148   0.0000       1.029392        28.0112 
 149   0.0000       1.032468        28.0949 
 150   0.0000       1.038715        28.2649 
 151   0.0000       1.061183        28.8762 
 152   0.0000       1.076639        29.2968 
 153   0.0000       1.076671        29.2977 
 154   0.0000       1.079868        29.3847 
 155   0.0000       1.086933        29.5770 
 156   0.0000       1.093096        29.7447 
 157   0.0000       1.097418        29.8623 
 158   0.0000       1.100689        29.9513 
 159   0.0000       1.119842        30.4725 
 160   0.0000       1.139018        30.9943 
 161   0.0000       1.143686        31.1213 
 162   0.0000       1.153862        31.3982 
 163   0.0000       1.161227        31.5986 
 164   0.0000       1.180783        32.1307 
 165   0.0000       1.187421        32.3114 
 166   0.0000       1.197264        32.5792 
 167   0.0000       1.222890        33.2765 
 168   0.0000       1.229236        33.4492 
 169   0.0000       1.243305        33.8320 
 170   0.0000       1.254145        34.1270 
 171   0.0000       1.264370        34.4053 
 172   0.0000       1.264825        34.4176 
 173   0.0000       1.278384        34.7866 
 174   0.0000       1.293332        35.1934 
 175   0.0000       1.306408        35.5492 
 176   0.0000       1.373500        37.3748 
 177   0.0000       1.375938        37.4412 
 178   0.0000       1.502344        40.8809 
 179   0.0000       1.517264        41.2868 
 180   0.0000       1.561674        42.4953 
 181   0.0000       1.582700        43.0675 
 182   0.0000       1.588475        43.2246 
 183   0.0000       1.588877        43.2356 
 184   0.0000       1.615114        43.9495 
 185   0.0000       1.639352        44.6090 
 186   0.0000       1.656935        45.0875 
 187   0.0000       1.681080        45.7445 
 188   0.0000       1.689011        45.9603 
 189   0.0000       1.740094        47.3504 
 190   0.0000       1.741606        47.3915 
 191   0.0000       1.768969        48.1361 
 192   0.0000       1.786083        48.6018 
 193   0.0000       1.852198        50.4009 
 194   0.0000       1.866565        50.7918 
 195   0.0000       1.882701        51.2309 
 196   0.0000       1.884712        51.2856 
 197   0.0000       1.896417        51.6041 
 198   0.0000       1.909593        51.9627 
 199   0.0000       1.927244        52.4430 
 200   0.0000       1.976834        53.7924 
 201   0.0000       1.982614        53.9497 
 202   0.0000       1.983982        53.9869 
 203   0.0000       2.025027        55.1038 
 204   0.0000       2.062595        56.1261 
 205   0.0000       2.063904        56.1617 
 206   0.0000       2.150221        58.5105 
 207   0.0000       2.151612        58.5483 
 208   0.0000       2.217804        60.3495 
 209   0.0000       2.228693        60.6458 
 210   0.0000       2.257935        61.4415 
 211   0.0000       2.264082        61.6088 
 212   0.0000       2.302472        62.6535 
 213   0.0000       2.326031        63.2945 
 214   0.0000       2.346443        63.8500 
 215   0.0000       2.350180        63.9516 
 216   0.0000       2.366327        64.3910 
 217   0.0000       2.532378        68.9095 
 218   0.0000       2.544906        69.2504 
 219   0.0000       2.548651        69.3523 
 220   0.0000       2.639979        71.8375 
 221   0.0000       2.646985        72.0281 
 222   0.0000       2.723523        74.1108 
 223   0.0000       2.849470        77.5380 
 224   0.0000       2.862095        77.8816 
 225   0.0000       2.867412        78.0263 
 226   0.0000       2.899652        78.9035 
 227   0.0000       2.911724        79.2320 
 228   0.0000       2.913492        79.2801 
 229   0.0000       2.922867        79.5352 
 230   0.0000       2.933147        79.8150 
 231   0.0000       2.975186        80.9589 
 232   0.0000       2.989578        81.3506 
 233   0.0000       3.043537        82.8188 
 234   0.0000       3.134800        85.3022 
 235   0.0000       3.214108        87.4603 
 236   0.0000       3.337907        90.8291 
 237   0.0000       3.483431        94.7890 
 238   0.0000       3.538425        96.2854 
 239   0.0000       3.608661        98.1967 
 240   0.0000       3.681988       100.1920 
 241   0.0000       3.693252       100.4985 
 242   0.0000       3.699706       100.6741 
 243   0.0000       3.723666       101.3261 
 244   0.0000       3.739159       101.7477 
 245   0.0000       3.755929       102.2040 
 246   0.0000       3.768454       102.5448 
 247   0.0000       3.831497       104.2603 
 248   0.0000       3.861171       105.0678 
 249   0.0000       3.903568       106.2215 
 250   0.0000       3.905672       106.2787 
 251   0.0000       3.967439       107.9595 
 252   0.0000       3.972982       108.1103 
 253   0.0000       3.981709       108.3478 
 254   0.0000       3.987729       108.5116 
 255   0.0000       4.025269       109.5331 
 256   0.0000       4.056756       110.3899 
 257   0.0000       4.140877       112.6790 
 258   0.0000       4.162085       113.2561 
 259   0.0000       4.217743       114.7706 
 260   0.0000       4.230191       115.1094 
 261   0.0000       4.259670       115.9115 
 262   0.0000       4.307886       117.2235 
 263   0.0000       4.327041       117.7448 
 264   0.0000       4.558428       124.0411 
 265   0.0000       4.584943       124.7627 
 266   0.0000       4.757848       129.4676 
 267   0.0000       4.761228       129.5596 
 268   0.0000       4.813857       130.9917 
 269   0.0000       4.828161       131.3809 
 270   0.0000       4.927588       134.0865 
 271   0.0000       4.967047       135.1602 
 272   0.0000       4.968800       135.2079 
 273   0.0000       5.028446       136.8310 
 274   0.0000       5.064697       137.8174 
 275   0.0000       5.120860       139.3457 
 276   0.0000       5.122722       139.3963 
 277   0.0000       5.154142       140.2513 
 278   0.0000       5.169744       140.6759 
 279   0.0000       5.315396       144.6393 
 280   0.0000       5.499923       149.6605 
 281   0.0000       5.505154       149.8029 
 282   0.0000       5.642377       153.5369 
 283   0.0000       5.643205       153.5594 
 284   0.0000       5.644241       153.5876 
 285   0.0000       5.650595       153.7605 
 286   0.0000       5.654716       153.8727 
 287   0.0000       5.655417       153.8917 
 288   0.0000       5.655910       153.9051 
 289   0.0000       5.656036       153.9086 
 290   0.0000       5.678887       154.5304 
 291   0.0000       5.682912       154.6399 
 292   0.0000       5.692168       154.8918 
 293   0.0000       5.750246       156.4722 
 294   0.0000       5.776343       157.1823 
 295   0.0000       5.813813       158.2019 
 296   0.0000       5.847896       159.1294 
 297   0.0000       5.855159       159.3270 
 298   0.0000       5.855293       159.3306 
 299   0.0000       5.858561       159.4195 
 300   0.0000       5.906372       160.7206 
 301   0.0000       5.910996       160.8464 
 302   0.0000       5.911548       160.8614 
 303   0.0000       6.047783       164.5685 
 304   0.0000       6.069101       165.1486 
 305   0.0000       6.167735       167.8326 
 306   0.0000       6.232311       169.5898 
 307   0.0000       6.245952       169.9610 
 308   0.0000       6.266657       170.5244 
 309   0.0000       6.293721       171.2609 
 310   0.0000       6.560169       178.5113 
 311   0.0000       6.624444       180.2603 
 312   0.0000       6.792372       184.8298 
 313   0.0000       7.048135       191.7895 
 314   0.0000       7.049223       191.8191 
 315   0.0000       7.109592       193.4618 
 316   0.0000       7.390101       201.0949 
 317   0.0000       7.519542       204.6171 
 318   0.0000       7.633820       207.7268 
 319   0.0000       7.709581       209.7884 
 320   0.0000       8.022674       218.3080 
 321   0.0000       8.058388       219.2799 
 322   0.0000       9.088737       247.3171 
 323   0.0000       9.088941       247.3227 
 324   0.0000       9.089936       247.3497 
 325   0.0000       9.095368       247.4975 
 326   0.0000       9.097058       247.5435 
 327   0.0000       9.097674       247.5603 
 328   0.0000       9.102322       247.6868 
 329   0.0000       9.117575       248.1018 
 330   0.0000       9.233156       251.2470 
 331   0.0000       9.269285       252.2301 
 332   0.0000       9.296361       252.9668 
 333   0.0000       9.299625       253.0557 
 334   0.0000       9.407400       255.9884 
 335   0.0000       9.497246       258.4332 
 336   0.0000       9.505704       258.6633 
 337   0.0000       9.803703       266.7723 
 338   0.0000       9.811917       266.9958 
 339   0.0000       9.836924       267.6763 
 340   0.0000       9.847998       267.9777 
 341   0.0000       9.907282       269.5908 
 342   0.0000       9.995854       272.0010 
 343   0.0000      10.203500       277.6513 
 344   0.0000      10.282898       279.8119 
 345   0.0000      10.651446       289.8406 
 346   0.0000      10.903387       296.6963 
 347   0.0000      11.512137       313.2612 
 348   0.0000      11.724251       319.0331 
 349   0.0000      11.970541       325.7350 
 350   0.0000      11.973882       325.8259 
 351   0.0000      12.048382       327.8532 
 352   0.0000      12.072333       328.5049 
 353   0.0000      12.124043       329.9120 
 354   0.0000      12.157504       330.8225 
 355   0.0000      12.167522       331.0951 
 356   0.0000      12.197086       331.8996 
 357   0.0000      12.235574       332.9469 
 358   0.0000      12.403271       337.5101 
 359   0.0000      12.409088       337.6684 
 360   0.0000      12.698296       345.5382 
 361   0.0000      12.756650       347.1261 
 362   0.0000      12.767366       347.4177 
 363   0.0000      12.792619       348.1049 
 364   0.0000      12.822810       348.9264 
 365   0.0000      12.851183       349.6985 
 366   0.0000      12.894210       350.8693 
 367   0.0000      12.908666       351.2627 
 368   0.0000      12.914900       351.4323 
 369   0.0000      12.916491       351.4756 
 370   0.0000      12.943084       352.1992 
 371   0.0000      12.963891       352.7654 
 372   0.0000      12.966380       352.8331 
 373   0.0000      12.972160       352.9904 
 374   0.0000      13.098779       356.4359 
 375   0.0000      13.280647       361.3848 
 376   0.0000      13.296200       361.8080 
 377   0.0000      13.333622       362.8263 
 378   0.0000      13.370710       363.8355 
 379   0.0000      14.040560       382.0631 
 380   0.0000      14.260891       388.0586 
 381   0.0000      17.044824       463.8132 
 382   0.0000      17.095370       465.1887 
 383   0.0000      17.311372       471.0664 
 384   0.0000      17.499123       476.1753 
 385   0.0000      17.573999       478.2128 
 386   0.0000      17.604331       479.0382 
 387   0.0000      17.606706       479.1028 
 388   0.0000      17.622007       479.5192 
 389   0.0000      17.653038       480.3636 
 390   0.0000      17.667569       480.7590 
 391   0.0000      17.682553       481.1667 
 392   0.0000      17.722013       482.2405 
 393   0.0000      17.809273       484.6150 
 394   0.0000      17.815109       484.7738 
 395   0.0000      17.892601       486.8824 
 396   0.0000      17.940536       488.1868 
 397   0.0000      17.944522       488.2953 
 398   0.0000      18.688875       508.5501 
 399   0.0000      18.728240       509.6213 
 400   0.0000      22.938611       624.1913 
 401   0.0000      23.001916       625.9140 
 402   0.0000      23.016642       626.3147 
 403   0.0000      23.448219       638.0585 
 404   0.0000      23.671517       644.1347 
 405   0.0000      29.649616       806.8071 
 406   0.0000      31.688311       862.2828 
 407   0.0000      32.221760       876.7987 
 408   0.0000      32.443046       882.8202 
 409   0.0000      39.714987      1080.6998 
 410   0.0000      40.506531      1102.2387 
 411   0.0000      65.766227      1789.5900 
 412   0.0000      65.783242      1790.0530 
 413   0.0000      65.796172      1790.4049 
 414   0.0000      65.809898      1790.7784 
 415   0.0000      65.814161      1790.8944 
 416   0.0000      65.822705      1791.1269 
 417   0.0000      65.839954      1791.5962 
 418   0.0000      65.879211      1792.6645 
 419   0.0000      66.091061      1798.4292 
 420   0.0000      66.098774      1798.6391 
 421   0.0000      66.498604      1809.5190 
 422   0.0000      66.551287      1810.9526 
 423   0.0000      66.551841      1810.9677 
 424   0.0000      66.871446      1819.6646 
 425   0.0000      67.035126      1824.1185 
 426   0.0000     142.402233      3874.9618 

                    ********************************
                    * MULLIKEN POPULATION ANALYSIS *
                    ********************************

--------------------------------------------
MULLIKEN ATOMIC CHARGES AND SPIN POPULATIONS
--------------------------------------------
   0 O :    0.196145   -0.000000
   1 Cl:   -0.098073    0.000000
   2 Cl:   -0.098072   -0.000000
Sum of atomic charges         :    0.0000000
Sum of atomic spin populations:   -0.0000000

-----------------------------------------------------
MULLIKEN REDUCED ORBITAL CHARGES AND SPIN POPULATIONS
-----------------------------------------------------
CHARGE
  0 O s       :     3.702333  s :     3.702333
      pz      :     1.230546  p :     4.019802
      px      :     1.873652
      py      :     0.915604
      dz2     :     0.020356  d :     0.072032
      dxz     :     0.011725
      dyz     :     0.009639
      dx2y2   :     0.010209
      dxy     :     0.020104
      f0      :     0.000775  f :     0.010627
      f+1     :     0.000632
      f-1     :     0.001297
      f+2     :     0.001346
      f-2     :     0.000854
      f+3     :     0.001974
      f-3     :     0.003749
      g0      :    -0.000363  g :    -0.000442
      g+1     :    -0.000140
      g-1     :    -0.000191
      g+2     :     0.000079
      g-2     :    -0.000559
      g+3     :     0.000542
      g-3     :     0.000387
      g+4     :    -0.000072
      g-4     :    -0.000127
      h0      :    -0.000177  h :    -0.000496
      h+1     :    -0.000052
      h-1     :    -0.000144
      h+2     :     0.000046
      h-2     :     0.000005
      h+3     :     0.000150
      h-3     :    -0.000254
      h+4     :    -0.000006
      h-4     :    -0.000097
      h+5     :    -0.000028
      h-5     :     0.000061
  1 Cls       :     6.049685  s :     6.049685
      pz      :     3.672353  p :    10.875751
      px      :     3.973380
      py      :     3.230018
      dz2     :     0.017188  d :     0.134512
      dxz     :     0.018422
      dyz     :     0.035315
      dx2y2   :     0.026658
      dxy     :     0.036928
      f0      :     0.002134  f :     0.030201
      f+1     :     0.000630
      f-1     :     0.006555
      f+2     :     0.005209
      f-2     :     0.005628
      f+3     :     0.006795
      f-3     :     0.003250
      g0      :     0.000209  g :     0.007009
      g+1     :     0.000077
      g-1     :     0.001299
      g+2     :     0.000592
      g-2     :     0.000653
      g+3     :     0.001003
      g-3     :     0.001245
      g+4     :     0.000266
      g-4     :     0.001665
      h0      :     0.000156  h :     0.000915
      h+1     :     0.000033
      h-1     :    -0.000050
      h+2     :     0.000138
      h-2     :     0.000012
      h+3     :     0.000144
      h-3     :    -0.000024
      h+4     :     0.000229
      h-4     :     0.000038
      h+5     :     0.000276
      h-5     :    -0.000035
  2 Cls       :     6.049686  s :     6.049686
      pz      :     3.672353  p :    10.875750
      px      :     3.973380
      py      :     3.230017
      dz2     :     0.017188  d :     0.134512
      dxz     :     0.018422
      dyz     :     0.035315
      dx2y2   :     0.026658
      dxy     :     0.036928
      f0      :     0.002134  f :     0.030201
      f+1     :     0.000630
      f-1     :     0.006555
      f+2     :     0.005209
      f-2     :     0.005628
      f+3     :     0.006795
      f-3     :     0.003250
      g0      :     0.000209  g :     0.007009
      g+1     :     0.000077
      g-1     :     0.001299
      g+2     :     0.000592
      g-2     :     0.000653
      g+3     :     0.001003
      g-3     :     0.001245
      g+4     :     0.000266
      g-4     :     0.001665
      h0      :     0.000156  h :     0.000915
      h+1     :     0.000033
      h-1     :    -0.000050
      h+2     :     0.000138
      h-2     :     0.000012
      h+3     :     0.000144
      h-3     :    -0.000024
      h+4     :     0.000229
      h-4     :     0.000038
      h+5     :     0.000276
      h-5     :    -0.000035

SPIN
  0 O s       :     0.000000  s :     0.000000
      pz      :    -0.000000  p :    -0.000000
      px      :     0.000000
      py      :    -0.000000
      dz2     :     0.000000  d :    -0.000000
      dxz     :     0.000000
      dyz     :    -0.000000
      dx2y2   :    -0.000000
      dxy     :    -0.000000
      f0      :    -0.000000  f :    -0.000000
      f+1     :    -0.000000
      f-1     :    -0.000000
      f+2     :    -0.000000
      f-2     :    -0.000000
      f+3     :    -0.000000
      f-3     :     0.000000
      g0      :    -0.000000  g :    -0.000000
      g+1     :     0.000000
      g-1     :    -0.000000
      g+2     :    -0.000000
      g-2     :     0.000000
      g+3     :    -0.000000
      g-3     :     0.000000
      g+4     :     0.000000
      g-4     :    -0.000000
      h0      :     0.000000  h :     0.000000
      h+1     :    -0.000000
      h-1     :     0.000000
      h+2     :     0.000000
      h-2     :    -0.000000
      h+3     :    -0.000000
      h-3     :     0.000000
      h+4     :     0.000000
      h-4     :    -0.000000
      h+5     :    -0.000000
      h-5     :    -0.000000
  1 Cls       :     0.000000  s :     0.000000
      pz      :    -0.000000  p :    -0.000000
      px      :    -0.000000
      py      :    -0.000000
      dz2     :    -0.000000  d :    -0.000000
      dxz     :    -0.000000
      dyz     :    -0.000000
      dx2y2   :    -0.000000
      dxy     :    -0.000000
      f0      :    -0.000000  f :    -0.000000
      f+1     :    -0.000000
      f-1     :    -0.000000
      f+2     :     0.000000
      f-2     :    -0.000000
      f+3     :    -0.000000
      f-3     :    -0.000000
      g0      :    -0.000000  g :    -0.000000
      g+1     :    -0.000000
      g-1     :    -0.000000
      g+2     :    -0.000000
      g-2     :    -0.000000
      g+3     :    -0.000000
      g-3     :     0.000000
      g+4     :    -0.000000
      g-4     :     0.000000
      h0      :    -0.000000  h :    -0.000000
      h+1     :    -0.000000
      h-1     :     0.000000
      h+2     :    -0.000000
      h-2     :    -0.000000
      h+3     :    -0.000000
      h-3     :    -0.000000
      h+4     :     0.000000
      h-4     :    -0.000000
      h+5     :     0.000000
      h-5     :    -0.000000
  2 Cls       :     0.000000  s :     0.000000
      pz      :    -0.000000  p :    -0.000000
      px      :     0.000000
      py      :    -0.000000
      dz2     :     0.000000  d :    -0.000000
      dxz     :    -0.000000
      dyz     :     0.000000
      dx2y2   :    -0.000000
      dxy     :    -0.000000
      f0      :    -0.000000  f :    -0.000000
      f+1     :    -0.000000
      f-1     :     0.000000
      f+2     :    -0.000000
      f-2     :    -0.000000
      f+3     :     0.000000
      f-3     :    -0.000000
      g0      :     0.000000  g :     0.000000
      g+1     :    -0.000000
      g-1     :     0.000000
      g+2     :     0.000000
      g-2     :    -0.000000
      g+3     :    -0.000000
      g-3     :    -0.000000
      g+4     :    -0.000000
      g-4     :     0.000000
      h0      :     0.000000  h :     0.000000
      h+1     :     0.000000
      h-1     :     0.000000
      h+2     :     0.000000
      h-2     :    -0.000000
      h+3     :    -0.000000
      h-3     :     0.000000
      h+4     :     0.000000
      h-4     :    -0.000000
      h+5     :     0.000000
      h-5     :    -0.000000


                     *******************************
                     * LOEWDIN POPULATION ANALYSIS *
                     *******************************

-------------------------------------------
LOEWDIN ATOMIC CHARGES AND SPIN POPULATIONS
-------------------------------------------
   0 O :   -1.632266   -0.000000
   1 Cl:    0.816133   -0.000000
   2 Cl:    0.816133    0.000000

----------------------------------------------------
LOEWDIN REDUCED ORBITAL CHARGES AND SPIN POPULATIONS
----------------------------------------------------
CHARGE
  0 O s       :     3.355949  s :     3.355949
      pz      :     1.290667  p :     4.180846
      px      :     1.656700
      py      :     1.233479
      dz2     :     0.164545  d :     0.942906
      dxz     :     0.084750
      dyz     :     0.301869
      dx2y2   :     0.200339
      dxy     :     0.191403
      f0      :     0.048297  f :     0.608934
      f+1     :     0.004083
      f-1     :     0.188601
      f+2     :     0.101535
      f-2     :     0.108193
      f+3     :     0.086487
      f-3     :     0.071738
      g0      :     0.025431  g :     0.365852
      g+1     :     0.002164
      g-1     :     0.072346
      g+2     :     0.064338
      g-2     :     0.013691
      g+3     :     0.077928
      g-3     :     0.046426
      g+4     :     0.021818
      g-4     :     0.041708
      h0      :     0.018178  h :     0.177778
      h+1     :     0.002069
      h-1     :     0.012605
      h+2     :     0.030682
      h-2     :     0.000128
      h+3     :     0.018779
      h-3     :     0.019082
      h+4     :     0.015100
      h-4     :     0.038986
      h+5     :     0.014793
      h-5     :     0.007376
  1 Cls       :     5.254662  s :     5.254662
      pz      :     3.276242  p :     9.849469
      px      :     3.484789
      py      :     3.088438
      dz2     :     0.050102  d :     0.410185
      dxz     :     0.033124
      dyz     :     0.131025
      dx2y2   :     0.107024
      dxy     :     0.088910
      f0      :     0.025219  f :     0.290532
      f+1     :     0.003495
      f-1     :     0.063529
      f+2     :     0.060624
      f-2     :     0.031984
      f+3     :     0.054899
      f-3     :     0.050782
      g0      :     0.017237  g :     0.225355
      g+1     :     0.000598
      g-1     :     0.035808
      g+2     :     0.038240
      g-2     :     0.010082
      g+3     :     0.023737
      g-3     :     0.030201
      g+4     :     0.027419
      g-4     :     0.042034
      h0      :     0.013029  h :     0.153664
      h+1     :     0.000979
      h-1     :     0.012729
      h+2     :     0.024072
      h-2     :     0.000163
      h+3     :     0.013379
      h-3     :     0.018939
      h+4     :     0.015711
      h-4     :     0.012011
      h+5     :     0.028886
      h-5     :     0.013766
  2 Cls       :     5.254662  s :     5.254662
      pz      :     3.276242  p :     9.849469
      px      :     3.484789
      py      :     3.088438
      dz2     :     0.050102  d :     0.410185
      dxz     :     0.033124
      dyz     :     0.131025
      dx2y2   :     0.107024
      dxy     :     0.088910
      f0      :     0.025219  f :     0.290532
      f+1     :     0.003495
      f-1     :     0.063529
      f+2     :     0.060624
      f-2     :     0.031984
      f+3     :     0.054899
      f-3     :     0.050782
      g0      :     0.017237  g :     0.225355
      g+1     :     0.000598
      g-1     :     0.035808
      g+2     :     0.038240
      g-2     :     0.010082
      g+3     :     0.023737
      g-3     :     0.030201
      g+4     :     0.027419
      g-4     :     0.042034
      h0      :     0.013029  h :     0.153664
      h+1     :     0.000979
      h-1     :     0.012729
      h+2     :     0.024072
      h-2     :     0.000163
      h+3     :     0.013379
      h-3     :     0.018939
      h+4     :     0.015711
      h-4     :     0.012011
      h+5     :     0.028886
      h-5     :     0.013766

SPIN
  0 O s       :    -0.000000  s :    -0.000000
      pz      :    -0.000000  p :    -0.000000
      px      :    -0.000000
      py      :    -0.000000
      dz2     :     0.000000  d :    -0.000000
      dxz     :     0.000000
      dyz     :    -0.000000
      dx2y2   :    -0.000000
      dxy     :     0.000000
      f0      :    -0.000000  f :    -0.000000
      f+1     :    -0.000000
      f-1     :     0.000000
      f+2     :    -0.000000
      f-2     :    -0.000000
      f+3     :    -0.000000
      f-3     :    -0.000000
      g0      :    -0.000000  g :    -0.000000
      g+1     :     0.000000
      g-1     :     0.000000
      g+2     :     0.000000
      g-2     :    -0.000000
      g+3     :     0.000000
      g-3     :    -0.000000
      g+4     :    -0.000000
      g-4     :     0.000000
      h0      :     0.000000  h :     0.000000
      h+1     :    -0.000000
      h-1     :     0.000000
      h+2     :    -0.000000
      h-2     :    -0.000000
      h+3     :     0.000000
      h-3     :    -0.000000
      h+4     :     0.000000
      h-4     :     0.000000
      h+5     :     0.000000
      h-5     :    -0.000000
  1 Cls       :     0.000000  s :     0.000000
      pz      :    -0.000000  p :    -0.000000
      px      :     0.000000
      py      :    -0.000000
      dz2     :     0.000000  d :    -0.000000
      dxz     :    -0.000000
      dyz     :    -0.000000
      dx2y2   :    -0.000000
      dxy     :    -0.000000
      f0      :     0.000000  f :    -0.000000
      f+1     :    -0.000000
      f-1     :    -0.000000
      f+2     :     0.000000
      f-2     :     0.000000
      f+3     :     0.000000
      f-3     :    -0.000000
      g0      :    -0.000000  g :    -0.000000
      g+1     :     0.000000
      g-1     :    -0.000000
      g+2     :    -0.000000
      g-2     :     0.000000
      g+3     :    -0.000000
      g-3     :     0.000000
      g+4     :    -0.000000
      g-4     :    -0.000000
      h0      :    -0.000000  h :     0.000000
      h+1     :    -0.000000
      h-1     :     0.000000
      h+2     :    -0.000000
      h-2     :    -0.000000
      h+3     :    -0.000000
      h-3     :     0.000000
      h+4     :     0.000000
      h-4     :    -0.000000
      h+5     :     0.000000
      h-5     :    -0.000000
  2 Cls       :     0.000000  s :     0.000000
      pz      :    -0.000000  p :    -0.000000
      px      :    -0.000000
      py      :     0.000000
      dz2     :     0.000000  d :     0.000000
      dxz     :     0.000000
      dyz     :    -0.000000
      dx2y2   :    -0.000000
      dxy     :    -0.000000
      f0      :     0.000000  f :     0.000000
      f+1     :     0.000000
      f-1     :    -0.000000
      f+2     :    -0.000000
      f-2     :     0.000000
      f+3     :     0.000000
      f-3     :     0.000000
      g0      :     0.000000  g :     0.000000
      g+1     :     0.000000
      g-1     :     0.000000
      g+2     :     0.000000
      g-2     :    -0.000000
      g+3     :    -0.000000
      g-3     :     0.000000
      g+4     :     0.000000
      g-4     :    -0.000000
      h0      :     0.000000  h :     0.000000
      h+1     :    -0.000000
      h-1     :    -0.000000
      h+2     :    -0.000000
      h-2     :     0.000000
      h+3     :     0.000000
      h-3     :     0.000000
      h+4     :     0.000000
      h-4     :    -0.000000
      h+5     :     0.000000
      h-5     :    -0.000000


                      *****************************
                      * MAYER POPULATION ANALYSIS *
                      *****************************

  NA   - Mulliken gross atomic population
  ZA   - Total nuclear charge
  QA   - Mulliken gross atomic charge
  VA   - Mayer's total valence
  BVA  - Mayer's bonded valence
  FA   - Mayer's free valence

  ATOM       NA         ZA         QA         VA         BVA        FA
  0 O      7.8039     8.0000     0.1961     2.1718     2.1718     0.0000
  1 Cl    17.0981    17.0000    -0.0981     1.3016     1.3016     0.0000
  2 Cl    17.0981    17.0000    -0.0981     1.3016     1.3016     0.0000

  Mayer bond orders larger than 0.1
B(  0-O ,  1-Cl) :   1.0859 B(  0-O ,  2-Cl) :   1.0859 B(  1-Cl,  2-Cl) :   0.2157 


-------
TIMINGS
-------

Total SCF time: 0 days 0 hours 32 min 11 sec 

Total time                  ....    1931.685 sec
Sum of individual times     ....    1930.254 sec  ( 99.9%)

Fock matrix formation       ....    1924.948 sec  ( 99.7%)
  XC integration            ....      19.135 sec  (  1.0% of F)
    Basis function eval.    ....       1.412 sec  (  7.4% of XC)
    Density eval.           ....       4.344 sec  ( 22.7% of XC)
    XC-Functional eval.     ....       0.198 sec  (  1.0% of XC)
    XC-Potential eval.      ....      12.057 sec  ( 63.0% of XC)
Diagonalization             ....       2.135 sec  (  0.1%)
Density matrix formation    ....       0.043 sec  (  0.0%)
Population analysis         ....       0.200 sec  (  0.0%)
Initial guess               ....       1.256 sec  (  0.1%)
Orbital Transformation      ....       0.000 sec  (  0.0%)
Orbital Orthonormalization  ....       0.000 sec  (  0.0%)
DIIS solution               ....       1.184 sec  (  0.1%)
Grid generation             ....       0.486 sec  (  0.0%)

-------------------------   --------------------
FINAL SINGLE POINT ENERGY      -995.155006453061
-------------------------   --------------------


                            ***************************************
                            *     ORCA property calculations      *
                            ***************************************

                                    ---------------------
                                    Active property flags
                                    ---------------------
   (+) Dipole Moment
   (+) Polarizability


------------------------------------------------------------------------------
                       ORCA ELECTRIC PROPERTIES CALCULATION
------------------------------------------------------------------------------

Dipole Moment Calculation                       ... on
Quadrupole Moment Calculation                   ... off
Polarizability Calculation                      ... Analytic (CP-SCF)
GBWName                                         ... ocl2_pbe.gbw
Electron density file                           ... ocl2_pbe.scfp.tmp
The origin for moment calculation is the CENTER OF MASS  = ( 0.000000,  0.000000 -0.011524)

-------------
DIPOLE MOMENT
-------------
                                X             Y             Z
Electronic contribution:     -0.00000       0.00000      -0.67015
Nuclear contribution   :      0.00000       0.00000       0.48702
                        -----------------------------------------
Total Dipole Moment    :     -0.00000       0.00000      -0.18312
                        -----------------------------------------
Magnitude (a.u.)       :      0.18312
Magnitude (Debye)      :      0.46547



--------------------
Rotational spectrum 
--------------------
 
Rotational constants in cm-1:     1.395455     0.121890     0.112099 
Rotational constants in MHz : 41834.674961  3654.185098  3360.639190 

 Dipole components along the rotational axes: 
x,y,z [a.u.] :     0.000000    -0.183125    -0.000000 
x,y,z [Debye]:     0.000000    -0.465466    -0.000000 

 
Transforming and storing MO dipole integrals   ... done

                ... starting polarizability calculation

Opening the Dipole integral file               ... (ocl2_pbe.dmo.tmp) done
Reading Dipole-MO integrals                    ... done
Solving CP-SCF equations                       ... 

           ************************************************************
           *        Program running with 4 parallel MPI-processes     *
           *              working on a common directory               *
           ************************************************************

------------------------------------------------------------------------------
                           ORCA CP-SCF CALCULATION
------------------------------------------------------------------------------

Input orbitals are from        ... ocl2_pbe.gbw
Input Perturbation             ... ocl2_pbe.cpv.tmp
Wavefunction output            ... ocl2_pbe.cpu.tmp
Perturbation mode              ... Real perturbation (singlet)
Solver                         ... POPLE
Max. number of iterations      ... 200
Convergence tolerance          ... 1.000e-06
Integral handling              ... Direct
Number of perturbations        ... 3
Number of operators            ... 2
Orbital ranges used for CP-SCF:
 Operator 0:  Orbitals   0... 20  to  21...426
 Operator 1:  Orbitals   0... 20  to  21...426
DFT calculation                         ... on
Exchange functional (SCF)               ... PBE
Exchange functional (CP-SCF)            ... PBE
   PBE kappa parameter  XKappa (SCF)    ...  0.804000
   PBE kappa parameter  XKappa (CP-SCF) ...  0.804000
   PBE mue parameter   XMuePBE (SCF)    ...  0.219520
   PBE mue parameter   XMuePBE (CP-SCF) ...  0.219520
Correlation functional (SCF)            ... PBE
Correlation functional (CP-SCF)         ... PBE
   PBE beta parameter CBetaPBE (SCF)    ...  0.066725
   PBE beta parameter CBetaPBE (CP-SCF) ...  0.066725
 LDA part of GGA corr.  LDAOpt (SCF)    ... PW91-LDA
 LDA part of GGA corr.  LDAOpt (CP-SCF) ... PW91-LDA
Variables per vector in CP-SCF ... 17052
Number of vectors sought       ... 3
Recalculating density on grid  ... done
Calculating the xc-kernel      ... done
     CP-SCF ITERATION   0: 
     CP-SCF ITERATION   1:      2.175998738304
     CP-SCF ITERATION   2:      0.030371849648
     CP-SCF ITERATION   3:      0.003005425640
     CP-SCF ITERATION   4:      0.000086548178
     CP-SCF ITERATION   5:      0.000002051221
     CP-SCF ITERATION   6:      0.000000942188
done
Reading CP-SCF coefficients                    ... done
Doing the polarizability tensor   ... done
Cleaning up                                    ... done

-------------------------
THE POLARIZABILITY TENSOR
-------------------------

The raw cartesian tensor (atomic units):
   30.57730      0.00000      0.00000  
    0.00000     57.28690     -0.00000  
    0.00000     -0.00000     32.81438  
diagonalized tensor: 
   30.57730     32.81438     57.28690  

    1.00000     -0.00000      0.00000  
   -0.00000     -0.00000      1.00000  
   -0.00000     -1.00000     -0.00000  

Isotropic polarizability :  40.22619


Timings for individual modules:

Sum of individual times         ...     3249.055 sec (=  54.151 min)
GTO integral calculation        ...        3.272 sec (=   0.055 min)   0.1 %
SCF iterations                  ...     1931.976 sec (=  32.200 min)  59.5 %
Solution of CP-SCF eqns.        ...     1313.808 sec (=  21.897 min)  40.4 %
                             ****ORCA TERMINATED NORMALLY****
TOTAL RUN TIME: 0 days 0 hours 54 minutes 9 seconds 987 msec
