
                                 *****************
                                 * O   R   C   A *
                                 *****************

           --- An Ab Initio, DFT and Semiempirical electronic structure package ---

                  #######################################################
                  #                        -***-                        #
                  #          Department of theory and spectroscopy      #
                  #               Directorship: Frank Neese             #
                  #        Max Planck Institute fuer Kohlenforschung    #
                  #                Kaiser Wilhelm Platz 1               #
                  #                 D-45470 Muelheim/Ruhr               #
                  #                      Germany                        #
                  #                                                     #
                  #                  All rights reserved                #
                  #                        -***-                        #
                  #######################################################


                         Program Version 4.1.2  - RELEASE  -


 With contributions from (in alphabetic order):
   Daniel Aravena         : Magnetic Properties
   Michael Atanasov       : Ab Initio Ligand Field Theory
   Alexander A. Auer      : GIAO ZORA
   Ute Becker             : Parallelization
   Giovanni Bistoni       : ED, Open-shell LED
   Martin Brehm           : Molecular dynamics
   Dmytro Bykov           : SCF Hessian
   Vijay G. Chilkuri      : MRCI spin determinant printing
   Dipayan Datta          : RHF DLPNO-CCSD density
   Achintya Kumar Dutta   : EOM-CC, STEOM-CC
   Dmitry Ganyushin       : Spin-Orbit,Spin-Spin,Magnetic field MRCI
   Miquel Garcia          : C-PCM Hessian
   Yang Guo               : DLPNO-NEVPT2, CIM, IAO-localization
   Andreas Hansen         : Spin unrestricted coupled pair/coupled cluster methods
   Benjamin Helmich-Paris : CASSCF linear response (MC-RPA)
   Lee Huntington         : MR-EOM, pCC
   Robert Izsak           : Overlap fitted RIJCOSX, COSX-SCS-MP3, EOM
   Christian Kollmar      : KDIIS, OOCD, Brueckner-CCSD(T), CCSD density
   Simone Kossmann        : Meta GGA functionals, TD-DFT gradient, OOMP2, MP2 Hessian
   Martin Krupicka        : AUTO-CI
   Lucas Lang             : DCDCAS
   Dagmar Lenk            : GEPOL surface, SMD
   Dimitrios Liakos       : Extrapolation schemes; parallel MDCI
   Dimitrios Manganas     : ROCIS; embedding schemes
   Dimitrios Pantazis     : SARC Basis sets
   Taras Petrenko         : DFT Hessian,TD-DFT gradient, ASA, ECA, R-Raman, ABS, FL, XAS/XES, NRVS
   Peter Pinski           : DLPNO-MP2, DLPNO-MP2 Gradient
   Christoph Reimann      : Effective Core Potentials
   Marius Retegan         : Local ZFS, SOC
   Christoph Riplinger    : Optimizer, TS searches, QM/MM, DLPNO-CCSD(T), (RO)-DLPNO pert. Triples
   Tobias Risthaus        : Range-separated hybrids, TD-DFT gradient, RPA, STAB
   Michael Roemelt        : Restricted open shell CIS
   Masaaki Saitow         : Open-shell DLPNO
   Barbara Sandhoefer     : DKH picture change effects
   Avijit Sen             : IP-ROCIS
   Kantharuban Sivalingam : CASSCF convergence, NEVPT2, FIC-MRCI
   Bernardo de Souza      : ESD, SOC TD-DFT
   Georgi Stoychev        : AutoAux, RI-MP2 NMR
   Willem Van den Heuvel  : Paramagnetic NMR
   Boris Wezisla          : Elementary symmetry handling
   Frank Wennmohs         : Technical directorship


 We gratefully acknowledge several colleagues who have allowed us to
 interface, adapt or use parts of their codes:
   Stefan Grimme, W. Hujo, H. Kruse,             : VdW corrections, initial TS optimization,
                  C. Bannwarth                     DFT functionals, gCP, sTDA/sTD-DF
   Ed Valeev                                     : LibInt (2-el integral package), F12 methods
   Garnet Chan, S. Sharma, J. Yang, R. Olivares  : DMRG
   Ulf Ekstrom                                   : XCFun DFT Library
   Mihaly Kallay                                 : mrcc  (arbitrary order and MRCC methods)
   Andreas Klamt, Michael Diedenhofen            : otool_cosmo (COSMO solvation model)
   Jiri Pittner, Ondrej Demel                    : Mk-CCSD
   Frank Weinhold                                : gennbo (NPA and NBO analysis)
   Christopher J. Cramer and Donald G. Truhlar   : smd solvation model
   Lars Goerigk                                  : TD-DFT with DH, B97 family of functionals
   V. Asgeirsson, H. Jonsson                     : NEB implementation
   FAccTs GmbH                                   : IRC, NEB, NEB-TS, Multilevel


 Your calculation uses the libint2 library for the computation of 2-el integrals
 For citations please refer to: http://libint.valeyev.net

 This ORCA versions uses:
   CBLAS   interface :  Fast vector & matrix operations
   LAPACKE interface :  Fast linear algebra routines
   SCALAPACK package :  Parallel linear algebra routines


----- Orbital basis set information -----
Your calculation utilizes the basis: aug-pc-4
   H, C-F              : F. Jensen, J. Chem. Phys. 115, 9113 (2001).
                         F. Jensen, J. Chem. Phys. 116, 7372 (2002).
                         F. Jensen, J. Chem. Phys. 117, 9234 (2002).
   Si-Cl               : F. Jensen, T. Helgaker, J. Chem. Phys. 121, 3463 (2004).
   He-B, Ne-Mg, Al, Ar : F. Jensen, J. Phys. Chem. A 111, 11198 (2007).
   K, Ca, Ga-Kr        : F. Jensen, J. Chem. Phys. 136, 094110 (2012).
   Sc-Zn               : F. Jensen, J. Chem. Phys. 138, 014107 (2013).

================================================================================
                                        WARNINGS
                       Please study these warnings very carefully!
================================================================================


INFO   : the flag for use of LIBINT has been found!

================================================================================
                                       INPUT FILE
================================================================================
NAME = of2_pbe.inp
|  1> !uks pbe nori aug-pc-4 grid5 nofinalgrid verytightscf
|  2> 
|  3> %maxcore 1500
|  4> 
|  5> %pal nprocs 4 end
|  6> 
|  7> %scf
|  8> 	maxiter 200
|  9> end
| 10> %elprop
| 11> 	dipole true
| 12> 	 polar 1
| 13> 	 maxiter 200
| 14> end
| 15> 
| 16> * xyz 0 1
| 17> O 0.0000 0.0000 0.6049
| 18> F 0.0000 1.1003 -0.2688
| 19> F 0.0000 -1.1003 -0.2688
| 20> *
| 21> 
| 22>                          ****END OF INPUT****
================================================================================

                       ****************************
                       * Single Point Calculation *
                       ****************************

---------------------------------
CARTESIAN COORDINATES (ANGSTROEM)
---------------------------------
  O      0.000000    0.000000    0.604900
  F      0.000000    1.100300   -0.268800
  F      0.000000   -1.100300   -0.268800

----------------------------
CARTESIAN COORDINATES (A.U.)
----------------------------
  NO LB      ZA    FRAG     MASS         X           Y           Z
   0 O     8.0000    0    15.999    0.000000    0.000000    1.143095
   1 F     9.0000    0    18.998    0.000000    2.079266   -0.507958
   2 F     9.0000    0    18.998    0.000000   -2.079266   -0.507958

--------------------------------
INTERNAL COORDINATES (ANGSTROEM)
--------------------------------
 O      0   0   0     0.000000000000     0.00000000     0.00000000
 F      1   0   0     1.404995295366     0.00000000     0.00000000
 F      1   2   0     1.404995295366   103.09690222     0.00000000

---------------------------
INTERNAL COORDINATES (A.U.)
---------------------------
 O      0   0   0     0.000000000000     0.00000000     0.00000000
 F      1   0   0     2.655056327689     0.00000000     0.00000000
 F      1   2   0     2.655056327689   103.09690222     0.00000000

---------------------
BASIS SET INFORMATION
---------------------
There are 2 groups of distinct atoms

 Group   1 Type O   : 27s12p7d4f3g2h contracted to 9s8p7d4f3g2h pattern {1191111111/51111111/1111111/1111/111/11}
 Group   2 Type F   : 27s12p7d4f3g2h contracted to 9s8p7d4f3g2h pattern {1191111111/51111111/1111111/1111/111/11}

Atom   0O    basis set group =>   1
Atom   1F    basis set group =>   2
Atom   2F    basis set group =>   2


           ************************************************************
           *        Program running with 4 parallel MPI-processes     *
           *              working on a common directory               *
           ************************************************************
------------------------------------------------------------------------------
                           ORCA GTO INTEGRAL CALCULATION
------------------------------------------------------------------------------

                         BASIS SET STATISTICS AND STARTUP INFO

 # of primitive gaussian shells          ...  165
 # of primitive gaussian functions       ...  525
 # of contracted shells                  ...   99
 # of contracted basis functions         ...  435
 Highest angular momentum                ...    5
 Maximum contraction depth               ...   11
 Integral package used                   ... LIBINT
 Integral threshhold            Thresh   ...  1.000e-12
 Primitive cut-off              TCut     ...  1.000e-14


------------------------------ INTEGRAL EVALUATION ----------------------------


 * One electron integrals 
 Pre-screening matrix                    ... done
 Shell pair data                         ... done (   0.002 sec)



           ************************************************************
           *        Program running with 4 parallel MPI-processes     *
           *              working on a common directory               *
           ************************************************************
-------------------------------------------------------------------------------
                                 ORCA SCF
-------------------------------------------------------------------------------

------------
SCF SETTINGS
------------
Hamiltonian:
 Density Functional     Method          .... DFT(GTOs)
 Exchange Functional    Exchange        .... PBE
   PBE kappa parameter   XKappa         ....  0.804000
   PBE mue parameter    XMuePBE         ....  0.219520
 Correlation Functional Correlation     .... PBE
   PBE beta parameter  CBetaPBE         ....  0.066725
 LDA part of GGA corr.  LDAOpt          .... PW91-LDA
 Gradients option       PostSCFGGA      .... off
   Density functional embedding theory  .... OFF
   NL short-range parameter             ....  6.400000


General Settings:
 Integral files         IntName         .... of2_pbe
 Hartree-Fock type      HFTyp           .... UHF
 Total Charge           Charge          ....    0
 Multiplicity           Mult            ....    1
 Number of Electrons    NEL             ....   26
 Basis Dimension        Dim             ....  435
 Nuclear Repulsion      ENuc            ....     73.7141679570 Eh

Convergence Acceleration:
 DIIS                   CNVDIIS         .... on
   Start iteration      DIISMaxIt       ....    12
   Startup error        DIISStart       ....  0.200000
   # of expansion vecs  DIISMaxEq       ....     5
   Bias factor          DIISBfac        ....   1.050
   Max. coefficient     DIISMaxC        ....  10.000
 Newton-Raphson         CNVNR           .... off
 SOSCF                  CNVSOSCF        .... off
 Level Shifting         CNVShift        .... on
   Level shift para.    LevelShift      ....    0.2500
   Turn off err/grad.   ShiftErr        ....    0.0010
 Zerner damping         CNVZerner       .... off
 Static damping         CNVDamp         .... on
   Fraction old density DampFac         ....    0.7000
   Max. Damping (<1)    DampMax         ....    0.9800
   Min. Damping (>=0)   DampMin         ....    0.0000
   Turn off err/grad.   DampErr         ....    0.1000
 Fernandez-Rico         CNVRico         .... off

SCF Procedure:
 Maximum # iterations   MaxIter         ....   200
 SCF integral mode      SCFMode         .... Direct
   Integral package                     .... LIBINT
 Reset frequency        DirectResetFreq ....    20
 Integral Threshold     Thresh          ....  1.000e-12 Eh
 Primitive CutOff       TCut            ....  1.000e-14 Eh

Convergence Tolerance:
 Convergence Check Mode ConvCheckMode   .... Total+1el-Energy
 Convergence forced     ConvForced      .... 0
 Energy Change          TolE            ....  1.000e-09 Eh
 1-El. energy change                    ....  1.000e-06 Eh
 DIIS Error             TolErr          ....  1.000e-08


Diagonalization of the overlap matrix:
Smallest eigenvalue                        ... 3.683e-06
Time for diagonalization                   ...    0.467 sec
Threshold for overlap eigenvalues          ... 1.000e-08
Number of eigenvalues below threshold      ... 0
Time for construction of square roots      ...    0.034 sec
Total time needed                          ...    0.503 sec

-------------------
DFT GRID GENERATION
-------------------

General Integration Accuracy     IntAcc      ...  5.010
Radial Grid Type                 RadialGrid  ... Gauss-Chebyshev
Angular Grid (max. acc.)         AngularGrid ... Lebedev-434
Angular grid pruning method      GridPruning ... 3 (G Style)
Weight generation scheme         WeightScheme... Becke
Basis function cutoff            BFCut       ...    1.0000e-12
Integration weight cutoff        WCut        ...    1.0000e-14
Grids for H and He will be reduced by one unit

# of grid points (after initial pruning)     ...  32478 (   0.0 sec)
# of grid points (after weights+screening)   ...  32240 (   0.0 sec)
nearest neighbour list constructed           ...    0.0 sec
Grid point re-assignment to atoms done       ...    0.0 sec
Grid point division into batches done        ...    0.3 sec
Reduced shell lists constructed in    0.4 sec

Total number of grid points                  ...    32240
Total number of batches                      ...      505
Average number of points per batch           ...       63
Average number of grid points per atom       ...    10747
Average number of shells per batch           ...    70.03 (70.74%)
Average number of basis functions per batch  ...   325.69 (74.87%)
Average number of large shells per batch     ...    61.91 (88.40%)
Average number of large basis fcns per batch ...   290.33 (89.14%)
Maximum spatial batch extension              ...  13.83, 13.18, 12.64 au
Average spatial batch extension              ...   0.72,  0.69,  0.64 au

Time for grid setup =    0.458 sec

------------------------------
INITIAL GUESS: MODEL POTENTIAL
------------------------------
Loading Hartree-Fock densities                     ... done
Calculating cut-offs                               ... done
Setting up the integral package                    ... done
Initializing the effective Hamiltonian             ... done
Starting the Coulomb interaction                   ... done (   0.0 sec)
Reading the grid                                   ... done
Mapping shells                                     ... done
Starting the XC term evaluation                    ... done (   0.7 sec)
  promolecular density results
     # of electrons  =     25.999999491
     EX              =    -28.032110335
     EC              =     -0.895043598
     EX+EC           =    -28.927153933
Transforming the Hamiltonian                       ... done (   0.0 sec)
Diagonalizing the Hamiltonian                      ... done (   0.0 sec)
Back transforming the eigenvectors                 ... done (   0.0 sec)
Now organizing SCF variables                       ... done
                      ------------------
                      INITIAL GUESS DONE (   1.4 sec)
                      ------------------
--------------
SCF ITERATIONS
--------------
ITER       Energy         Delta-E        Max-DP      RMS-DP      [F,P]     Damp
               ***  Starting incremental Fock matrix formation  ***
  0   -274.5320531136   0.000000000000 0.00812482  0.00006579  0.1023339 0.7000
  1   -274.5476501305  -0.015597016824 0.00429280  0.00003089  0.0552008 0.7000
                               ***Turning on DIIS***
  2   -274.5518512875  -0.004201157045 0.00544332  0.00006229  0.0297765 0.0000
  3   -274.5635171594  -0.011665871914 0.00193279  0.00001957  0.0224423 0.0000
  4   -274.5645393590  -0.001022199601 0.00041724  0.00000515  0.0036189 0.0000
  5   -274.5645591184  -0.000019759341 0.00010178  0.00000130  0.0013424 0.0000
  6   -274.5645611577  -0.000002039342 0.00006712  0.00000068  0.0002716 0.0000
  7   -274.5645610507   0.000000106995 0.00002546  0.00000027  0.0004437 0.0000
  8   -274.5645613305  -0.000000279745 0.00000201  0.00000003  0.0000190 0.0000
  9   -274.5645613309  -0.000000000436 0.00000065  0.00000001  0.0000093 0.0000
 10   -274.5645613311  -0.000000000160 0.00000036  0.00000000  0.0000020 0.0000
 11   -274.5645613311  -0.000000000033 0.00000049  0.00000001  0.0000006 0.0000
 12   -274.5645613311   0.000000000017 0.00000170  0.00000001  0.0000002 0.0000
                 **** Energy Check signals convergence ****

               *****************************************************
               *                     SUCCESS                       *
               *           SCF CONVERGED AFTER  13 CYCLES          *
               *****************************************************


----------------
TOTAL SCF ENERGY
----------------

Total Energy       :         -274.56456133 Eh           -7471.28155 eV

Components:
Nuclear Repulsion  :           73.71416796 Eh            2005.86449 eV
Electronic Energy  :         -348.27872929 Eh           -9477.14603 eV
One Electron Energy:         -527.94075384 Eh          -14365.99827 eV
Two Electron Energy:          179.66202455 Eh            4888.85223 eV

Virial components:
Potential Energy   :         -548.41805891 Eh          -14923.21406 eV
Kinetic Energy     :          273.85349758 Eh            7451.93252 eV
Virial Ratio       :            2.00259651


DFT components:
N(Alpha)           :       12.999999179210 electrons
N(Beta)            :       12.999999179210 electrons
N(Total)           :       25.999998358421 electrons
E(X)               :      -28.127923721733 Eh       
E(C)               :       -0.888866490088 Eh       
E(XC)              :      -29.016790211821 Eh       
DFET-embed. en.    :        0.000000000000 Eh       

---------------
SCF CONVERGENCE
---------------

  Last Energy change         ...    1.1937e-12  Tolerance :   1.0000e-09
  Last MAX-Density change    ...    9.2926e-07  Tolerance :   1.0000e-08
  Last RMS-Density change    ...    9.8219e-09  Tolerance :   1.0000e-09
  Last DIIS Error            ...    1.5110e-07  Tolerance :   1.0000e-08

             **** THE GBW FILE WAS UPDATED (of2_pbe.gbw) ****
             **** DENSITY FILE WAS UPDATED (of2_pbe.scfp.tmp) ****
             **** ENERGY FILE WAS UPDATED (of2_pbe.en.tmp) ****
----------------------
UHF SPIN CONTAMINATION
----------------------

Warning: in a DFT calculation there is little theoretical justification to 
         calculate <S**2> as in Hartree-Fock theory. We will do it anyways
         but you should keep in mind that the values have only limited relevance

Expectation value of <S**2>     :    -0.000000
Ideal value S*(S+1) for S=0.0   :     0.000000
Deviation                       :    -0.000000

----------------
ORBITAL ENERGIES
----------------
                 SPIN UP ORBITALS
  NO   OCC          E(Eh)            E(eV) 
   0   1.0000     -24.340942      -662.3507 
   1   1.0000     -24.340942      -662.3507 
   2   1.0000     -18.967506      -516.1321 
   3   1.0000      -1.244326       -33.8598 
   4   1.0000      -1.136934       -30.9376 
   5   1.0000      -0.867607       -23.6088 
   6   1.0000      -0.579625       -15.7724 
   7   1.0000      -0.525073       -14.2880 
   8   1.0000      -0.484193       -13.1756 
   9   1.0000      -0.401735       -10.9318 
  10   1.0000      -0.399705       -10.8765 
  11   1.0000      -0.388135       -10.5617 
  12   1.0000      -0.281026        -7.6471 
  13   0.0000      -0.151811        -4.1310 
  14   0.0000      -0.123694        -3.3659 
  15   0.0000      -0.000359        -0.0098 
  16   0.0000       0.025800         0.7021 
  17   0.0000       0.028954         0.7879 
  18   0.0000       0.029217         0.7950 
  19   0.0000       0.062210         1.6928 
  20   0.0000       0.069086         1.8799 
  21   0.0000       0.073247         1.9932 
  22   0.0000       0.074539         2.0283 
  23   0.0000       0.075922         2.0660 
  24   0.0000       0.103981         2.8295 
  25   0.0000       0.128646         3.5006 
  26   0.0000       0.135276         3.6810 
  27   0.0000       0.138709         3.7745 
  28   0.0000       0.148027         4.0280 
  29   0.0000       0.171136         4.6568 
  30   0.0000       0.181162         4.9297 
  31   0.0000       0.189346         5.1524 
  32   0.0000       0.200545         5.4571 
  33   0.0000       0.210769         5.7353 
  34   0.0000       0.211796         5.7633 
  35   0.0000       0.224745         6.1156 
  36   0.0000       0.238470         6.4891 
  37   0.0000       0.241407         6.5690 
  38   0.0000       0.243164         6.6168 
  39   0.0000       0.256078         6.9682 
  40   0.0000       0.273935         7.4541 
  41   0.0000       0.299082         8.1384 
  42   0.0000       0.302127         8.2213 
  43   0.0000       0.321450         8.7471 
  44   0.0000       0.324475         8.8294 
  45   0.0000       0.338131         9.2010 
  46   0.0000       0.342366         9.3162 
  47   0.0000       0.360320         9.8048 
  48   0.0000       0.365267         9.9394 
  49   0.0000       0.393966        10.7204 
  50   0.0000       0.394128        10.7248 
  51   0.0000       0.397549        10.8179 
  52   0.0000       0.417957        11.3732 
  53   0.0000       0.430070        11.7028 
  54   0.0000       0.435601        11.8533 
  55   0.0000       0.441846        12.0233 
  56   0.0000       0.464662        12.6441 
  57   0.0000       0.485535        13.2121 
  58   0.0000       0.493806        13.4371 
  59   0.0000       0.503294        13.6953 
  60   0.0000       0.510551        13.8928 
  61   0.0000       0.530045        14.4233 
  62   0.0000       0.536393        14.5960 
  63   0.0000       0.559325        15.2200 
  64   0.0000       0.576064        15.6755 
  65   0.0000       0.588610        16.0169 
  66   0.0000       0.597186        16.2503 
  67   0.0000       0.603956        16.4345 
  68   0.0000       0.612970        16.6797 
  69   0.0000       0.619436        16.8557 
  70   0.0000       0.625263        17.0143 
  71   0.0000       0.625649        17.0248 
  72   0.0000       0.631845        17.1934 
  73   0.0000       0.634342        17.2613 
  74   0.0000       0.647253        17.6127 
  75   0.0000       0.666355        18.1324 
  76   0.0000       0.666815        18.1450 
  77   0.0000       0.674545        18.3553 
  78   0.0000       0.675876        18.3915 
  79   0.0000       0.687337        18.7034 
  80   0.0000       0.712166        19.3790 
  81   0.0000       0.713315        19.4103 
  82   0.0000       0.725424        19.7398 
  83   0.0000       0.750890        20.4327 
  84   0.0000       0.755740        20.5647 
  85   0.0000       0.776934        21.1414 
  86   0.0000       0.785176        21.3657 
  87   0.0000       0.810651        22.0589 
  88   0.0000       0.810896        22.0656 
  89   0.0000       0.815058        22.1788 
  90   0.0000       0.878441        23.9036 
  91   0.0000       0.883553        24.0427 
  92   0.0000       0.891185        24.2504 
  93   0.0000       0.891856        24.2686 
  94   0.0000       0.899141        24.4669 
  95   0.0000       0.927767        25.2458 
  96   0.0000       0.930242        25.3132 
  97   0.0000       0.937643        25.5146 
  98   0.0000       0.943391        25.6710 
  99   0.0000       0.952195        25.9105 
 100   0.0000       0.970213        26.4008 
 101   0.0000       0.971552        26.4373 
 102   0.0000       0.985395        26.8140 
 103   0.0000       1.001019        27.2391 
 104   0.0000       1.011539        27.5254 
 105   0.0000       1.040645        28.3174 
 106   0.0000       1.054175        28.6855 
 107   0.0000       1.058779        28.8108 
 108   0.0000       1.059205        28.8224 
 109   0.0000       1.067081        29.0368 
 110   0.0000       1.071834        29.1661 
 111   0.0000       1.097939        29.8764 
 112   0.0000       1.109539        30.1921 
 113   0.0000       1.112356        30.2687 
 114   0.0000       1.134725        30.8774 
 115   0.0000       1.140572        31.0366 
 116   0.0000       1.155505        31.4429 
 117   0.0000       1.158970        31.5372 
 118   0.0000       1.179406        32.0933 
 119   0.0000       1.180561        32.1247 
 120   0.0000       1.193673        32.4815 
 121   0.0000       1.197869        32.5957 
 122   0.0000       1.200372        32.6638 
 123   0.0000       1.240971        33.7685 
 124   0.0000       1.251940        34.0670 
 125   0.0000       1.264405        34.4062 
 126   0.0000       1.271343        34.5950 
 127   0.0000       1.272613        34.6296 
 128   0.0000       1.293997        35.2114 
 129   0.0000       1.297105        35.2960 
 130   0.0000       1.302340        35.4385 
 131   0.0000       1.313778        35.7497 
 132   0.0000       1.321488        35.9595 
 133   0.0000       1.330147        36.1952 
 134   0.0000       1.343151        36.5490 
 135   0.0000       1.356724        36.9183 
 136   0.0000       1.369736        37.2724 
 137   0.0000       1.382774        37.6272 
 138   0.0000       1.387701        37.7613 
 139   0.0000       1.404537        38.2194 
 140   0.0000       1.406162        38.2636 
 141   0.0000       1.414860        38.5003 
 142   0.0000       1.428534        38.8724 
 143   0.0000       1.436322        39.0843 
 144   0.0000       1.438045        39.1312 
 145   0.0000       1.473425        40.0939 
 146   0.0000       1.486561        40.4514 
 147   0.0000       1.506850        41.0035 
 148   0.0000       1.535671        41.7877 
 149   0.0000       1.539745        41.8986 
 150   0.0000       1.552134        42.2357 
 151   0.0000       1.582845        43.0714 
 152   0.0000       1.586818        43.1795 
 153   0.0000       1.608257        43.7629 
 154   0.0000       1.639268        44.6067 
 155   0.0000       1.683302        45.8050 
 156   0.0000       1.699433        46.2439 
 157   0.0000       1.701545        46.3014 
 158   0.0000       1.748301        47.5737 
 159   0.0000       1.774881        48.2970 
 160   0.0000       1.822346        49.5886 
 161   0.0000       1.850563        50.3564 
 162   0.0000       1.860135        50.6168 
 163   0.0000       1.894600        51.5547 
 164   0.0000       1.947747        53.0009 
 165   0.0000       1.948424        53.0193 
 166   0.0000       2.081460        56.6394 
 167   0.0000       2.156277        58.6753 
 168   0.0000       2.169584        59.0374 
 169   0.0000       2.179734        59.3136 
 170   0.0000       2.210802        60.1590 
 171   0.0000       2.243974        61.0616 
 172   0.0000       2.256023        61.3895 
 173   0.0000       2.259642        61.4880 
 174   0.0000       2.313440        62.9519 
 175   0.0000       2.333953        63.5101 
 176   0.0000       2.352686        64.0199 
 177   0.0000       2.353144        64.0323 
 178   0.0000       2.383600        64.8610 
 179   0.0000       2.456947        66.8569 
 180   0.0000       2.468566        67.1731 
 181   0.0000       2.478430        67.4415 
 182   0.0000       2.483675        67.5842 
 183   0.0000       2.506265        68.1989 
 184   0.0000       2.522788        68.6486 
 185   0.0000       2.605729        70.9055 
 186   0.0000       2.639587        71.8268 
 187   0.0000       2.643482        71.9328 
 188   0.0000       2.655634        72.2635 
 189   0.0000       2.691932        73.2512 
 190   0.0000       2.756522        75.0088 
 191   0.0000       2.767293        75.3019 
 192   0.0000       2.768357        75.3308 
 193   0.0000       2.840591        77.2964 
 194   0.0000       2.859323        77.8061 
 195   0.0000       2.936706        79.9118 
 196   0.0000       3.050738        83.0148 
 197   0.0000       3.081170        83.8429 
 198   0.0000       3.192856        86.8820 
 199   0.0000       3.264020        88.8185 
 200   0.0000       3.297703        89.7351 
 201   0.0000       3.356208        91.3271 
 202   0.0000       3.386856        92.1611 
 203   0.0000       3.440024        93.6078 
 204   0.0000       3.496207        95.1366 
 205   0.0000       3.663112        99.6784 
 206   0.0000       3.809031       103.6490 
 207   0.0000       4.123527       112.2069 
 208   0.0000       4.149414       112.9113 
 209   0.0000       4.183665       113.8433 
 210   0.0000       4.280010       116.4650 
 211   0.0000       4.387301       119.3845 
 212   0.0000       4.392102       119.5152 
 213   0.0000       4.411154       120.0336 
 214   0.0000       4.803087       130.6986 
 215   0.0000       4.822198       131.2187 
 216   0.0000       5.163453       140.5047 
 217   0.0000       5.196651       141.4081 
 218   0.0000       5.210444       141.7834 
 219   0.0000       5.272470       143.4712 
 220   0.0000       5.297163       144.1431 
 221   0.0000       5.297542       144.1535 
 222   0.0000       5.322048       144.8203 
 223   0.0000       5.331679       145.0823 
 224   0.0000       5.367923       146.0686 
 225   0.0000       5.392999       146.7510 
 226   0.0000       5.412116       147.2712 
 227   0.0000       5.414444       147.3345 
 228   0.0000       5.436611       147.9377 
 229   0.0000       5.519161       150.1840 
 230   0.0000       5.528524       150.4388 
 231   0.0000       5.636603       153.3798 
 232   0.0000       5.709043       155.3510 
 233   0.0000       5.729627       155.9111 
 234   0.0000       5.767219       156.9340 
 235   0.0000       5.790160       157.5583 
 236   0.0000       5.821130       158.4010 
 237   0.0000       5.838660       158.8780 
 238   0.0000       5.909152       160.7962 
 239   0.0000       5.962938       162.2598 
 240   0.0000       5.969966       162.4510 
 241   0.0000       6.007849       163.4819 
 242   0.0000       6.196041       168.6028 
 243   0.0000       6.227612       169.4619 
 244   0.0000       6.237137       169.7211 
 245   0.0000       6.261075       170.3725 
 246   0.0000       6.270599       170.6317 
 247   0.0000       6.312716       171.7777 
 248   0.0000       6.363151       173.1501 
 249   0.0000       6.389061       173.8552 
 250   0.0000       6.431080       174.9986 
 251   0.0000       6.436833       175.1551 
 252   0.0000       6.450004       175.5135 
 253   0.0000       6.475932       176.2191 
 254   0.0000       6.489302       176.5829 
 255   0.0000       6.552164       178.2934 
 256   0.0000       6.924509       188.4255 
 257   0.0000       6.990956       190.2336 
 258   0.0000       7.063107       192.1969 
 259   0.0000       7.063871       192.2177 
 260   0.0000       7.083300       192.7464 
 261   0.0000       7.088724       192.8940 
 262   0.0000       7.164015       194.9428 
 263   0.0000       7.169991       195.1054 
 264   0.0000       7.179605       195.3670 
 265   0.0000       7.203326       196.0125 
 266   0.0000       7.211575       196.2369 
 267   0.0000       7.233745       196.8402 
 268   0.0000       7.342348       199.7955 
 269   0.0000       7.637923       207.8385 
 270   0.0000       7.737104       210.5373 
 271   0.0000       7.948227       216.2823 
 272   0.0000       7.966355       216.7755 
 273   0.0000       8.138880       221.4702 
 274   0.0000       8.247899       224.4368 
 275   0.0000       8.485749       230.9090 
 276   0.0000       8.777300       238.8425 
 277   0.0000       8.889787       241.9034 
 278   0.0000       8.967458       244.0169 
 279   0.0000       9.211408       250.6552 
 280   0.0000       9.277287       252.4478 
 281   0.0000       9.440996       256.9026 
 282   0.0000       9.526767       259.2365 
 283   0.0000       9.648428       262.5471 
 284   0.0000       9.655089       262.7283 
 285   0.0000      10.307740       280.4879 
 286   0.0000      10.481550       285.2175 
 287   0.0000      10.774699       293.1945 
 288   0.0000      10.966503       298.4137 
 289   0.0000      11.569472       314.8213 
 290   0.0000      11.572146       314.8941 
 291   0.0000      11.616493       316.1008 
 292   0.0000      11.658988       317.2572 
 293   0.0000      11.744694       319.5894 
 294   0.0000      11.753644       319.8329 
 295   0.0000      11.753692       319.8342 
 296   0.0000      11.794730       320.9509 
 297   0.0000      11.804714       321.2226 
 298   0.0000      11.855425       322.6025 
 299   0.0000      11.912916       324.1669 
 300   0.0000      12.072686       328.5145 
 301   0.0000      12.084503       328.8360 
 302   0.0000      12.134501       330.1966 
 303   0.0000      12.275640       334.0371 
 304   0.0000      12.304288       334.8167 
 305   0.0000      12.311822       335.0217 
 306   0.0000      12.535501       341.1083 
 307   0.0000      12.539555       341.2186 
 308   0.0000      12.542546       341.3000 
 309   0.0000      12.573371       342.1388 
 310   0.0000      12.605448       343.0117 
 311   0.0000      12.627611       343.6148 
 312   0.0000      12.635865       343.8394 
 313   0.0000      12.644467       344.0734 
 314   0.0000      12.645019       344.0885 
 315   0.0000      12.645735       344.1079 
 316   0.0000      12.646320       344.1239 
 317   0.0000      12.651711       344.2705 
 318   0.0000      12.673335       344.8590 
 319   0.0000      12.716714       346.0394 
 320   0.0000      12.795481       348.1827 
 321   0.0000      12.816542       348.7558 
 322   0.0000      12.859302       349.9194 
 323   0.0000      12.901761       351.0748 
 324   0.0000      12.943164       352.2014 
 325   0.0000      12.959858       352.6557 
 326   0.0000      12.990480       353.4889 
 327   0.0000      13.014349       354.1384 
 328   0.0000      13.027073       354.4847 
 329   0.0000      13.510114       367.6289 
 330   0.0000      13.622023       370.6741 
 331   0.0000      13.763327       374.5192 
 332   0.0000      13.818540       376.0216 
 333   0.0000      13.933535       379.1508 
 334   0.0000      13.933777       379.1574 
 335   0.0000      14.028642       381.7388 
 336   0.0000      14.055403       382.4669 
 337   0.0000      14.084542       383.2599 
 338   0.0000      14.235848       387.3771 
 339   0.0000      14.278015       388.5245 
 340   0.0000      14.319371       389.6499 
 341   0.0000      14.495678       394.4474 
 342   0.0000      14.519897       395.1065 
 343   0.0000      14.556014       396.0893 
 344   0.0000      14.619483       397.8164 
 345   0.0000      14.823384       403.3648 
 346   0.0000      15.019907       408.7124 
 347   0.0000      15.029213       408.9657 
 348   0.0000      15.031589       409.0303 
 349   0.0000      15.058300       409.7572 
 350   0.0000      15.089702       410.6117 
 351   0.0000      15.190661       413.3589 
 352   0.0000      15.221120       414.1877 
 353   0.0000      15.263675       415.3457 
 354   0.0000      15.337717       417.3605 
 355   0.0000      15.568037       423.6278 
 356   0.0000      15.663127       426.2154 
 357   0.0000      16.316919       444.0059 
 358   0.0000      16.328728       444.3273 
 359   0.0000      16.347813       444.8466 
 360   0.0000      16.398180       446.2172 
 361   0.0000      17.104806       465.4454 
 362   0.0000      17.271874       469.9916 
 363   0.0000      17.379200       472.9121 
 364   0.0000      17.666742       480.7365 
 365   0.0000      17.916175       487.5239 
 366   0.0000      18.061243       491.4714 
 367   0.0000      18.133064       493.4257 
 368   0.0000      18.354500       499.4513 
 369   0.0000      18.604342       506.2499 
 370   0.0000      19.343388       526.3603 
 371   0.0000      19.883003       541.0440 
 372   0.0000      20.061180       545.8925 
 373   0.0000      20.065678       546.0149 
 374   0.0000      20.066054       546.0251 
 375   0.0000      20.070701       546.1515 
 376   0.0000      20.092572       546.7467 
 377   0.0000      20.126827       547.6788 
 378   0.0000      20.133043       547.8479 
 379   0.0000      20.145340       548.1826 
 380   0.0000      20.545149       559.0619 
 381   0.0000      20.565397       559.6129 
 382   0.0000      20.584718       560.1387 
 383   0.0000      20.714902       563.6811 
 384   0.0000      21.567523       586.8821 
 385   0.0000      21.588428       587.4510 
 386   0.0000      21.632490       588.6500 
 387   0.0000      21.931533       596.7873 
 388   0.0000      22.280728       606.2894 
 389   0.0000      22.282447       606.3362 
 390   0.0000      23.163640       630.3147 
 391   0.0000      23.309448       634.2823 
 392   0.0000      23.399272       636.7266 
 393   0.0000      24.319830       661.7762 
 394   0.0000      25.093496       682.8287 
 395   0.0000      29.953397       815.0734 
 396   0.0000      30.264244       823.5319 
 397   0.0000      30.372636       826.4814 
 398   0.0000      30.398710       827.1909 
 399   0.0000      30.415021       827.6348 
 400   0.0000      30.527550       830.6969 
 401   0.0000      30.529095       830.7389 
 402   0.0000      30.608193       832.8913 
 403   0.0000      30.657373       834.2295 
 404   0.0000      31.524476       857.8246 
 405   0.0000      31.536045       858.1394 
 406   0.0000      31.809073       865.5689 
 407   0.0000      33.241163       904.5380 
 408   0.0000      33.452996       910.3023 
 409   0.0000      41.488727      1128.9657 
 410   0.0000      41.490153      1129.0045 
 411   0.0000      41.498227      1129.2242 
 412   0.0000      41.701461      1134.7545 
 413   0.0000      41.812681      1137.7809 
 414   0.0000      42.027410      1143.6240 
 415   0.0000      43.594866      1186.2766 
 416   0.0000      43.648270      1187.7298 
 417   0.0000      66.503867      1809.6622 
 418   0.0000      66.564479      1811.3115 
 419   0.0000      66.616350      1812.7231 
 420   0.0000      67.047896      1824.4660 
 421   0.0000      67.641398      1840.6160 
 422   0.0000      91.196134      2481.5730 
 423   0.0000      91.268244      2483.5352 
 424   0.0000      91.286574      2484.0340 
 425   0.0000      91.297240      2484.3242 
 426   0.0000      91.359287      2486.0126 
 427   0.0000      91.369650      2486.2946 
 428   0.0000      91.425306      2487.8091 
 429   0.0000      91.440412      2488.2201 
 430   0.0000      92.105001      2506.3045 
 431   0.0000      92.154577      2507.6535 
 432   0.0000     143.066721      3893.0434 
 433   0.0000     201.647510      5487.1077 
 434   0.0000     201.974446      5496.0041 

                 SPIN DOWN ORBITALS
  NO   OCC          E(Eh)            E(eV) 
   0   1.0000     -24.340942      -662.3507 
   1   1.0000     -24.340942      -662.3507 
   2   1.0000     -18.967506      -516.1321 
   3   1.0000      -1.244326       -33.8598 
   4   1.0000      -1.136934       -30.9376 
   5   1.0000      -0.867607       -23.6088 
   6   1.0000      -0.579625       -15.7724 
   7   1.0000      -0.525073       -14.2880 
   8   1.0000      -0.484193       -13.1756 
   9   1.0000      -0.401735       -10.9318 
  10   1.0000      -0.399705       -10.8765 
  11   1.0000      -0.388135       -10.5617 
  12   1.0000      -0.281026        -7.6471 
  13   0.0000      -0.151811        -4.1310 
  14   0.0000      -0.123694        -3.3659 
  15   0.0000      -0.000359        -0.0098 
  16   0.0000       0.025800         0.7021 
  17   0.0000       0.028954         0.7879 
  18   0.0000       0.029217         0.7950 
  19   0.0000       0.062210         1.6928 
  20   0.0000       0.069086         1.8799 
  21   0.0000       0.073247         1.9932 
  22   0.0000       0.074539         2.0283 
  23   0.0000       0.075922         2.0660 
  24   0.0000       0.103981         2.8295 
  25   0.0000       0.128646         3.5006 
  26   0.0000       0.135276         3.6810 
  27   0.0000       0.138709         3.7745 
  28   0.0000       0.148027         4.0280 
  29   0.0000       0.171136         4.6568 
  30   0.0000       0.181162         4.9297 
  31   0.0000       0.189346         5.1524 
  32   0.0000       0.200545         5.4571 
  33   0.0000       0.210769         5.7353 
  34   0.0000       0.211796         5.7633 
  35   0.0000       0.224745         6.1156 
  36   0.0000       0.238470         6.4891 
  37   0.0000       0.241407         6.5690 
  38   0.0000       0.243164         6.6168 
  39   0.0000       0.256078         6.9682 
  40   0.0000       0.273935         7.4541 
  41   0.0000       0.299082         8.1384 
  42   0.0000       0.302127         8.2213 
  43   0.0000       0.321450         8.7471 
  44   0.0000       0.324475         8.8294 
  45   0.0000       0.338131         9.2010 
  46   0.0000       0.342366         9.3162 
  47   0.0000       0.360320         9.8048 
  48   0.0000       0.365267         9.9394 
  49   0.0000       0.393966        10.7204 
  50   0.0000       0.394128        10.7248 
  51   0.0000       0.397549        10.8179 
  52   0.0000       0.417957        11.3732 
  53   0.0000       0.430070        11.7028 
  54   0.0000       0.435601        11.8533 
  55   0.0000       0.441846        12.0233 
  56   0.0000       0.464662        12.6441 
  57   0.0000       0.485535        13.2121 
  58   0.0000       0.493806        13.4371 
  59   0.0000       0.503294        13.6953 
  60   0.0000       0.510551        13.8928 
  61   0.0000       0.530045        14.4233 
  62   0.0000       0.536393        14.5960 
  63   0.0000       0.559325        15.2200 
  64   0.0000       0.576064        15.6755 
  65   0.0000       0.588610        16.0169 
  66   0.0000       0.597186        16.2503 
  67   0.0000       0.603956        16.4345 
  68   0.0000       0.612970        16.6797 
  69   0.0000       0.619436        16.8557 
  70   0.0000       0.625263        17.0143 
  71   0.0000       0.625649        17.0248 
  72   0.0000       0.631845        17.1934 
  73   0.0000       0.634342        17.2613 
  74   0.0000       0.647253        17.6127 
  75   0.0000       0.666355        18.1324 
  76   0.0000       0.666815        18.1450 
  77   0.0000       0.674545        18.3553 
  78   0.0000       0.675876        18.3915 
  79   0.0000       0.687337        18.7034 
  80   0.0000       0.712166        19.3790 
  81   0.0000       0.713315        19.4103 
  82   0.0000       0.725424        19.7398 
  83   0.0000       0.750890        20.4327 
  84   0.0000       0.755740        20.5647 
  85   0.0000       0.776934        21.1414 
  86   0.0000       0.785176        21.3657 
  87   0.0000       0.810651        22.0589 
  88   0.0000       0.810896        22.0656 
  89   0.0000       0.815058        22.1788 
  90   0.0000       0.878441        23.9036 
  91   0.0000       0.883553        24.0427 
  92   0.0000       0.891185        24.2504 
  93   0.0000       0.891856        24.2686 
  94   0.0000       0.899141        24.4669 
  95   0.0000       0.927767        25.2458 
  96   0.0000       0.930242        25.3132 
  97   0.0000       0.937643        25.5146 
  98   0.0000       0.943391        25.6710 
  99   0.0000       0.952195        25.9105 
 100   0.0000       0.970213        26.4008 
 101   0.0000       0.971552        26.4373 
 102   0.0000       0.985395        26.8140 
 103   0.0000       1.001019        27.2391 
 104   0.0000       1.011539        27.5254 
 105   0.0000       1.040645        28.3174 
 106   0.0000       1.054175        28.6855 
 107   0.0000       1.058779        28.8108 
 108   0.0000       1.059205        28.8224 
 109   0.0000       1.067081        29.0368 
 110   0.0000       1.071834        29.1661 
 111   0.0000       1.097939        29.8764 
 112   0.0000       1.109539        30.1921 
 113   0.0000       1.112356        30.2687 
 114   0.0000       1.134725        30.8774 
 115   0.0000       1.140572        31.0366 
 116   0.0000       1.155505        31.4429 
 117   0.0000       1.158970        31.5372 
 118   0.0000       1.179406        32.0933 
 119   0.0000       1.180561        32.1247 
 120   0.0000       1.193673        32.4815 
 121   0.0000       1.197869        32.5957 
 122   0.0000       1.200372        32.6638 
 123   0.0000       1.240971        33.7685 
 124   0.0000       1.251940        34.0670 
 125   0.0000       1.264405        34.4062 
 126   0.0000       1.271343        34.5950 
 127   0.0000       1.272613        34.6296 
 128   0.0000       1.293997        35.2114 
 129   0.0000       1.297105        35.2960 
 130   0.0000       1.302340        35.4385 
 131   0.0000       1.313778        35.7497 
 132   0.0000       1.321488        35.9595 
 133   0.0000       1.330147        36.1952 
 134   0.0000       1.343151        36.5490 
 135   0.0000       1.356724        36.9183 
 136   0.0000       1.369736        37.2724 
 137   0.0000       1.382774        37.6272 
 138   0.0000       1.387701        37.7613 
 139   0.0000       1.404537        38.2194 
 140   0.0000       1.406162        38.2636 
 141   0.0000       1.414860        38.5003 
 142   0.0000       1.428534        38.8724 
 143   0.0000       1.436322        39.0843 
 144   0.0000       1.438045        39.1312 
 145   0.0000       1.473425        40.0939 
 146   0.0000       1.486561        40.4514 
 147   0.0000       1.506850        41.0035 
 148   0.0000       1.535671        41.7877 
 149   0.0000       1.539745        41.8986 
 150   0.0000       1.552134        42.2357 
 151   0.0000       1.582845        43.0714 
 152   0.0000       1.586818        43.1795 
 153   0.0000       1.608257        43.7629 
 154   0.0000       1.639268        44.6067 
 155   0.0000       1.683302        45.8050 
 156   0.0000       1.699433        46.2439 
 157   0.0000       1.701545        46.3014 
 158   0.0000       1.748301        47.5737 
 159   0.0000       1.774881        48.2970 
 160   0.0000       1.822346        49.5886 
 161   0.0000       1.850563        50.3564 
 162   0.0000       1.860135        50.6168 
 163   0.0000       1.894600        51.5547 
 164   0.0000       1.947747        53.0009 
 165   0.0000       1.948424        53.0193 
 166   0.0000       2.081460        56.6394 
 167   0.0000       2.156277        58.6753 
 168   0.0000       2.169584        59.0374 
 169   0.0000       2.179734        59.3136 
 170   0.0000       2.210802        60.1590 
 171   0.0000       2.243974        61.0616 
 172   0.0000       2.256023        61.3895 
 173   0.0000       2.259642        61.4880 
 174   0.0000       2.313440        62.9519 
 175   0.0000       2.333953        63.5101 
 176   0.0000       2.352686        64.0199 
 177   0.0000       2.353144        64.0323 
 178   0.0000       2.383600        64.8610 
 179   0.0000       2.456947        66.8569 
 180   0.0000       2.468566        67.1731 
 181   0.0000       2.478430        67.4415 
 182   0.0000       2.483675        67.5842 
 183   0.0000       2.506265        68.1989 
 184   0.0000       2.522788        68.6486 
 185   0.0000       2.605729        70.9055 
 186   0.0000       2.639587        71.8268 
 187   0.0000       2.643482        71.9328 
 188   0.0000       2.655634        72.2635 
 189   0.0000       2.691932        73.2512 
 190   0.0000       2.756522        75.0088 
 191   0.0000       2.767293        75.3019 
 192   0.0000       2.768357        75.3308 
 193   0.0000       2.840591        77.2964 
 194   0.0000       2.859323        77.8061 
 195   0.0000       2.936706        79.9118 
 196   0.0000       3.050738        83.0148 
 197   0.0000       3.081170        83.8429 
 198   0.0000       3.192856        86.8820 
 199   0.0000       3.264020        88.8185 
 200   0.0000       3.297703        89.7351 
 201   0.0000       3.356208        91.3271 
 202   0.0000       3.386856        92.1611 
 203   0.0000       3.440024        93.6078 
 204   0.0000       3.496207        95.1366 
 205   0.0000       3.663112        99.6784 
 206   0.0000       3.809031       103.6490 
 207   0.0000       4.123527       112.2069 
 208   0.0000       4.149414       112.9113 
 209   0.0000       4.183665       113.8433 
 210   0.0000       4.280010       116.4650 
 211   0.0000       4.387301       119.3845 
 212   0.0000       4.392102       119.5152 
 213   0.0000       4.411154       120.0336 
 214   0.0000       4.803087       130.6986 
 215   0.0000       4.822198       131.2187 
 216   0.0000       5.163453       140.5047 
 217   0.0000       5.196651       141.4081 
 218   0.0000       5.210444       141.7834 
 219   0.0000       5.272470       143.4712 
 220   0.0000       5.297163       144.1431 
 221   0.0000       5.297542       144.1535 
 222   0.0000       5.322048       144.8203 
 223   0.0000       5.331679       145.0823 
 224   0.0000       5.367923       146.0686 
 225   0.0000       5.392999       146.7510 
 226   0.0000       5.412116       147.2712 
 227   0.0000       5.414444       147.3345 
 228   0.0000       5.436611       147.9377 
 229   0.0000       5.519161       150.1840 
 230   0.0000       5.528524       150.4388 
 231   0.0000       5.636603       153.3798 
 232   0.0000       5.709043       155.3510 
 233   0.0000       5.729627       155.9111 
 234   0.0000       5.767219       156.9340 
 235   0.0000       5.790160       157.5583 
 236   0.0000       5.821130       158.4010 
 237   0.0000       5.838660       158.8780 
 238   0.0000       5.909152       160.7962 
 239   0.0000       5.962938       162.2598 
 240   0.0000       5.969966       162.4510 
 241   0.0000       6.007849       163.4819 
 242   0.0000       6.196041       168.6028 
 243   0.0000       6.227612       169.4619 
 244   0.0000       6.237137       169.7211 
 245   0.0000       6.261075       170.3725 
 246   0.0000       6.270599       170.6317 
 247   0.0000       6.312716       171.7777 
 248   0.0000       6.363151       173.1501 
 249   0.0000       6.389061       173.8552 
 250   0.0000       6.431080       174.9986 
 251   0.0000       6.436833       175.1551 
 252   0.0000       6.450004       175.5135 
 253   0.0000       6.475932       176.2191 
 254   0.0000       6.489302       176.5829 
 255   0.0000       6.552164       178.2934 
 256   0.0000       6.924509       188.4255 
 257   0.0000       6.990956       190.2336 
 258   0.0000       7.063107       192.1969 
 259   0.0000       7.063871       192.2177 
 260   0.0000       7.083300       192.7464 
 261   0.0000       7.088724       192.8940 
 262   0.0000       7.164015       194.9428 
 263   0.0000       7.169991       195.1054 
 264   0.0000       7.179605       195.3670 
 265   0.0000       7.203326       196.0125 
 266   0.0000       7.211575       196.2369 
 267   0.0000       7.233745       196.8402 
 268   0.0000       7.342348       199.7955 
 269   0.0000       7.637923       207.8385 
 270   0.0000       7.737104       210.5373 
 271   0.0000       7.948227       216.2823 
 272   0.0000       7.966355       216.7755 
 273   0.0000       8.138880       221.4702 
 274   0.0000       8.247899       224.4368 
 275   0.0000       8.485749       230.9090 
 276   0.0000       8.777300       238.8425 
 277   0.0000       8.889787       241.9034 
 278   0.0000       8.967458       244.0169 
 279   0.0000       9.211408       250.6552 
 280   0.0000       9.277287       252.4478 
 281   0.0000       9.440996       256.9026 
 282   0.0000       9.526767       259.2365 
 283   0.0000       9.648428       262.5471 
 284   0.0000       9.655089       262.7283 
 285   0.0000      10.307740       280.4879 
 286   0.0000      10.481550       285.2175 
 287   0.0000      10.774699       293.1945 
 288   0.0000      10.966503       298.4137 
 289   0.0000      11.569472       314.8213 
 290   0.0000      11.572146       314.8941 
 291   0.0000      11.616493       316.1008 
 292   0.0000      11.658988       317.2572 
 293   0.0000      11.744694       319.5894 
 294   0.0000      11.753644       319.8329 
 295   0.0000      11.753692       319.8342 
 296   0.0000      11.794730       320.9509 
 297   0.0000      11.804714       321.2226 
 298   0.0000      11.855425       322.6025 
 299   0.0000      11.912916       324.1669 
 300   0.0000      12.072686       328.5145 
 301   0.0000      12.084503       328.8360 
 302   0.0000      12.134501       330.1966 
 303   0.0000      12.275640       334.0371 
 304   0.0000      12.304288       334.8167 
 305   0.0000      12.311822       335.0217 
 306   0.0000      12.535501       341.1083 
 307   0.0000      12.539555       341.2186 
 308   0.0000      12.542546       341.3000 
 309   0.0000      12.573371       342.1388 
 310   0.0000      12.605448       343.0117 
 311   0.0000      12.627611       343.6148 
 312   0.0000      12.635865       343.8394 
 313   0.0000      12.644467       344.0734 
 314   0.0000      12.645019       344.0885 
 315   0.0000      12.645735       344.1079 
 316   0.0000      12.646320       344.1239 
 317   0.0000      12.651711       344.2705 
 318   0.0000      12.673335       344.8590 
 319   0.0000      12.716714       346.0394 
 320   0.0000      12.795481       348.1827 
 321   0.0000      12.816542       348.7558 
 322   0.0000      12.859302       349.9194 
 323   0.0000      12.901761       351.0748 
 324   0.0000      12.943164       352.2014 
 325   0.0000      12.959858       352.6557 
 326   0.0000      12.990480       353.4889 
 327   0.0000      13.014349       354.1384 
 328   0.0000      13.027073       354.4847 
 329   0.0000      13.510114       367.6289 
 330   0.0000      13.622023       370.6741 
 331   0.0000      13.763327       374.5192 
 332   0.0000      13.818540       376.0216 
 333   0.0000      13.933535       379.1508 
 334   0.0000      13.933777       379.1574 
 335   0.0000      14.028642       381.7388 
 336   0.0000      14.055403       382.4669 
 337   0.0000      14.084542       383.2599 
 338   0.0000      14.235848       387.3771 
 339   0.0000      14.278015       388.5245 
 340   0.0000      14.319371       389.6499 
 341   0.0000      14.495678       394.4474 
 342   0.0000      14.519897       395.1065 
 343   0.0000      14.556014       396.0893 
 344   0.0000      14.619483       397.8164 
 345   0.0000      14.823384       403.3648 
 346   0.0000      15.019907       408.7124 
 347   0.0000      15.029213       408.9657 
 348   0.0000      15.031589       409.0303 
 349   0.0000      15.058300       409.7572 
 350   0.0000      15.089702       410.6117 
 351   0.0000      15.190661       413.3589 
 352   0.0000      15.221120       414.1877 
 353   0.0000      15.263675       415.3457 
 354   0.0000      15.337717       417.3605 
 355   0.0000      15.568037       423.6278 
 356   0.0000      15.663127       426.2154 
 357   0.0000      16.316919       444.0059 
 358   0.0000      16.328728       444.3273 
 359   0.0000      16.347813       444.8466 
 360   0.0000      16.398180       446.2172 
 361   0.0000      17.104806       465.4454 
 362   0.0000      17.271874       469.9916 
 363   0.0000      17.379200       472.9121 
 364   0.0000      17.666742       480.7365 
 365   0.0000      17.916175       487.5239 
 366   0.0000      18.061243       491.4714 
 367   0.0000      18.133064       493.4257 
 368   0.0000      18.354500       499.4513 
 369   0.0000      18.604342       506.2499 
 370   0.0000      19.343388       526.3603 
 371   0.0000      19.883003       541.0440 
 372   0.0000      20.061180       545.8925 
 373   0.0000      20.065678       546.0149 
 374   0.0000      20.066054       546.0251 
 375   0.0000      20.070701       546.1515 
 376   0.0000      20.092572       546.7467 
 377   0.0000      20.126827       547.6788 
 378   0.0000      20.133043       547.8479 
 379   0.0000      20.145340       548.1826 
 380   0.0000      20.545149       559.0619 
 381   0.0000      20.565397       559.6129 
 382   0.0000      20.584718       560.1387 
 383   0.0000      20.714902       563.6811 
 384   0.0000      21.567523       586.8821 
 385   0.0000      21.588428       587.4510 
 386   0.0000      21.632490       588.6500 
 387   0.0000      21.931533       596.7873 
 388   0.0000      22.280728       606.2894 
 389   0.0000      22.282447       606.3362 
 390   0.0000      23.163640       630.3147 
 391   0.0000      23.309448       634.2823 
 392   0.0000      23.399272       636.7266 
 393   0.0000      24.319830       661.7762 
 394   0.0000      25.093496       682.8287 
 395   0.0000      29.953397       815.0734 
 396   0.0000      30.264244       823.5319 
 397   0.0000      30.372636       826.4814 
 398   0.0000      30.398710       827.1909 
 399   0.0000      30.415021       827.6348 
 400   0.0000      30.527550       830.6969 
 401   0.0000      30.529095       830.7389 
 402   0.0000      30.608193       832.8913 
 403   0.0000      30.657373       834.2295 
 404   0.0000      31.524476       857.8246 
 405   0.0000      31.536045       858.1394 
 406   0.0000      31.809073       865.5689 
 407   0.0000      33.241163       904.5380 
 408   0.0000      33.452996       910.3023 
 409   0.0000      41.488727      1128.9657 
 410   0.0000      41.490153      1129.0045 
 411   0.0000      41.498227      1129.2242 
 412   0.0000      41.701461      1134.7545 
 413   0.0000      41.812681      1137.7809 
 414   0.0000      42.027410      1143.6240 
 415   0.0000      43.594866      1186.2766 
 416   0.0000      43.648270      1187.7298 
 417   0.0000      66.503867      1809.6622 
 418   0.0000      66.564479      1811.3115 
 419   0.0000      66.616350      1812.7231 
 420   0.0000      67.047896      1824.4660 
 421   0.0000      67.641398      1840.6160 
 422   0.0000      91.196134      2481.5730 
 423   0.0000      91.268244      2483.5352 
 424   0.0000      91.286574      2484.0340 
 425   0.0000      91.297240      2484.3242 
 426   0.0000      91.359287      2486.0126 
 427   0.0000      91.369650      2486.2946 
 428   0.0000      91.425306      2487.8091 
 429   0.0000      91.440412      2488.2201 
 430   0.0000      92.105001      2506.3045 
 431   0.0000      92.154577      2507.6535 
 432   0.0000     143.066721      3893.0434 
 433   0.0000     201.647510      5487.1077 
 434   0.0000     201.974446      5496.0041 

                    ********************************
                    * MULLIKEN POPULATION ANALYSIS *
                    ********************************

--------------------------------------------
MULLIKEN ATOMIC CHARGES AND SPIN POPULATIONS
--------------------------------------------
   0 O :    0.176075    0.000000
   1 F :   -0.088038   -0.000000
   2 F :   -0.088037   -0.000000
Sum of atomic charges         :    0.0000000
Sum of atomic spin populations:    0.0000000

-----------------------------------------------------
MULLIKEN REDUCED ORBITAL CHARGES AND SPIN POPULATIONS
-----------------------------------------------------
CHARGE
  0 O s       :     3.917110  s :     3.917110
      pz      :     1.023688  p :     3.803792
      px      :     1.964158
      py      :     0.815946
      dz2     :     0.012721  d :     0.083882
      dxz     :     0.011004
      dyz     :     0.029698
      dx2y2   :     0.014296
      dxy     :     0.016164
      f0      :     0.001221  f :     0.016732
      f+1     :     0.000037
      f-1     :     0.005631
      f+2     :     0.002647
      f-2     :     0.003163
      f+3     :     0.002267
      f-3     :     0.001765
      g0      :     0.000145  g :     0.002260
      g+1     :     0.000019
      g-1     :     0.000771
      g+2     :     0.000368
      g-2     :    -0.000031
      g+3     :     0.000267
      g-3     :     0.000423
      g+4     :     0.000150
      g-4     :     0.000150
      h0      :    -0.000026  h :     0.000149
      h+1     :     0.000003
      h-1     :     0.000144
      h+2     :     0.000003
      h-2     :    -0.000012
      h+3     :    -0.000074
      h-3     :    -0.000034
      h+4     :     0.000018
      h-4     :     0.000082
      h+5     :     0.000103
      h-5     :    -0.000056
  1 F s       :     3.966201  s :     3.966201
      pz      :     1.649741  p :     5.086531
      px      :     1.982443
      py      :     1.454346
      dz2     :     0.003517  d :     0.034021
      dxz     :     0.006511
      dyz     :     0.008753
      dx2y2   :     0.005519
      dxy     :     0.009721
      f0      :    -0.000648  f :     0.003015
      f+1     :     0.000177
      f-1     :     0.000202
      f+2     :     0.000995
      f-2     :     0.001079
      f+3     :     0.001342
      f-3     :    -0.000131
      g0      :    -0.000118  g :    -0.001409
      g+1     :    -0.000000
      g-1     :    -0.000793
      g+2     :    -0.000322
      g-2     :    -0.000149
      g+3     :    -0.000034
      g-3     :     0.000162
      g+4     :    -0.000389
      g-4     :     0.000236
      h0      :    -0.000056  h :    -0.000320
      h+1     :    -0.000010
      h-1     :    -0.000047
      h+2     :    -0.000106
      h-2     :    -0.000006
      h+3     :    -0.000013
      h-3     :    -0.000057
      h+4     :     0.000031
      h-4     :     0.000003
      h+5     :     0.000052
      h-5     :    -0.000111
  2 F s       :     3.966199  s :     3.966199
      pz      :     1.649741  p :     5.086530
      px      :     1.982443
      py      :     1.454346
      dz2     :     0.003517  d :     0.034021
      dxz     :     0.006511
      dyz     :     0.008753
      dx2y2   :     0.005519
      dxy     :     0.009721
      f0      :    -0.000648  f :     0.003015
      f+1     :     0.000177
      f-1     :     0.000202
      f+2     :     0.000995
      f-2     :     0.001079
      f+3     :     0.001342
      f-3     :    -0.000131
      g0      :    -0.000118  g :    -0.001409
      g+1     :    -0.000000
      g-1     :    -0.000793
      g+2     :    -0.000322
      g-2     :    -0.000149
      g+3     :    -0.000034
      g-3     :     0.000162
      g+4     :    -0.000389
      g-4     :     0.000236
      h0      :    -0.000056  h :    -0.000320
      h+1     :    -0.000010
      h-1     :    -0.000047
      h+2     :    -0.000106
      h-2     :    -0.000006
      h+3     :    -0.000013
      h-3     :    -0.000057
      h+4     :     0.000031
      h-4     :     0.000003
      h+5     :     0.000052
      h-5     :    -0.000111

SPIN
  0 O s       :     0.000000  s :     0.000000
      pz      :    -0.000000  p :     0.000000
      px      :    -0.000000
      py      :     0.000000
      dz2     :     0.000000  d :     0.000000
      dxz     :    -0.000000
      dyz     :     0.000000
      dx2y2   :     0.000000
      dxy     :     0.000000
      f0      :     0.000000  f :     0.000000
      f+1     :    -0.000000
      f-1     :    -0.000000
      f+2     :     0.000000
      f-2     :     0.000000
      f+3     :    -0.000000
      f-3     :    -0.000000
      g0      :     0.000000  g :    -0.000000
      g+1     :    -0.000000
      g-1     :    -0.000000
      g+2     :     0.000000
      g-2     :     0.000000
      g+3     :    -0.000000
      g-3     :    -0.000000
      g+4     :    -0.000000
      g-4     :     0.000000
      h0      :    -0.000000  h :    -0.000000
      h+1     :    -0.000000
      h-1     :    -0.000000
      h+2     :    -0.000000
      h-2     :    -0.000000
      h+3     :    -0.000000
      h-3     :    -0.000000
      h+4     :    -0.000000
      h-4     :     0.000000
      h+5     :    -0.000000
      h-5     :     0.000000
  1 F s       :    -0.000000  s :    -0.000000
      pz      :    -0.000000  p :     0.000000
      px      :     0.000000
      py      :     0.000000
      dz2     :    -0.000000  d :    -0.000000
      dxz     :     0.000000
      dyz     :    -0.000000
      dx2y2   :     0.000000
      dxy     :     0.000000
      f0      :    -0.000000  f :    -0.000000
      f+1     :     0.000000
      f-1     :    -0.000000
      f+2     :    -0.000000
      f-2     :     0.000000
      f+3     :     0.000000
      f-3     :    -0.000000
      g0      :    -0.000000  g :    -0.000000
      g+1     :     0.000000
      g-1     :    -0.000000
      g+2     :    -0.000000
      g-2     :     0.000000
      g+3     :     0.000000
      g-3     :    -0.000000
      g+4     :    -0.000000
      g-4     :     0.000000
      h0      :    -0.000000  h :    -0.000000
      h+1     :     0.000000
      h-1     :    -0.000000
      h+2     :    -0.000000
      h-2     :     0.000000
      h+3     :     0.000000
      h-3     :    -0.000000
      h+4     :    -0.000000
      h-4     :     0.000000
      h+5     :     0.000000
      h-5     :    -0.000000
  2 F s       :    -0.000000  s :    -0.000000
      pz      :    -0.000000  p :    -0.000000
      px      :    -0.000000
      py      :    -0.000000
      dz2     :    -0.000000  d :    -0.000000
      dxz     :    -0.000000
      dyz     :    -0.000000
      dx2y2   :    -0.000000
      dxy     :     0.000000
      f0      :     0.000000  f :    -0.000000
      f+1     :     0.000000
      f-1     :     0.000000
      f+2     :     0.000000
      f-2     :    -0.000000
      f+3     :     0.000000
      f-3     :    -0.000000
      g0      :    -0.000000  g :    -0.000000
      g+1     :     0.000000
      g-1     :     0.000000
      g+2     :     0.000000
      g-2     :    -0.000000
      g+3     :     0.000000
      g-3     :    -0.000000
      g+4     :    -0.000000
      g-4     :     0.000000
      h0      :     0.000000  h :     0.000000
      h+1     :    -0.000000
      h-1     :    -0.000000
      h+2     :     0.000000
      h-2     :     0.000000
      h+3     :    -0.000000
      h-3     :     0.000000
      h+4     :    -0.000000
      h-4     :     0.000000
      h+5     :     0.000000
      h-5     :    -0.000000


                     *******************************
                     * LOEWDIN POPULATION ANALYSIS *
                     *******************************

-------------------------------------------
LOEWDIN ATOMIC CHARGES AND SPIN POPULATIONS
-------------------------------------------
   0 O :    0.092939   -0.000000
   1 F :   -0.046470   -0.000000
   2 F :   -0.046470    0.000000

----------------------------------------------------
LOEWDIN REDUCED ORBITAL CHARGES AND SPIN POPULATIONS
----------------------------------------------------
CHARGE
  0 O s       :     3.220002  s :     3.220002
      pz      :     0.994799  p :     3.442371
      px      :     1.583664
      py      :     0.863908
      dz2     :     0.103254  d :     0.650831
      dxz     :     0.064764
      dyz     :     0.242104
      dx2y2   :     0.137877
      dxy     :     0.102832
      f0      :     0.041968  f :     0.387761
      f+1     :     0.005830
      f-1     :     0.117082
      f+2     :     0.084761
      f-2     :     0.064016
      f+3     :     0.038983
      f-3     :     0.035122
      g0      :     0.009952  g :     0.136026
      g+1     :     0.000234
      g-1     :     0.029232
      g+2     :     0.023965
      g-2     :     0.008103
      g+3     :     0.024629
      g-3     :     0.022854
      g+4     :     0.007661
      g-4     :     0.009395
      h0      :     0.005902  h :     0.070070
      h+1     :     0.000688
      h-1     :     0.008405
      h+2     :     0.010987
      h-2     :     0.000194
      h+3     :     0.007932
      h-3     :     0.009004
      h+4     :     0.008144
      h-4     :     0.011599
      h+5     :     0.004381
      h-5     :     0.002833
  1 F s       :     3.459424  s :     3.459424
      pz      :     1.495764  p :     4.674221
      px      :     1.738975
      py      :     1.439483
      dz2     :     0.041404  d :     0.335229
      dxz     :     0.035970
      dyz     :     0.117168
      dx2y2   :     0.074250
      dxy     :     0.066436
      f0      :     0.018929  f :     0.250168
      f+1     :     0.005391
      f-1     :     0.060919
      f+2     :     0.048258
      f-2     :     0.039369
      f+3     :     0.039758
      f-3     :     0.037543
      g0      :     0.015108  g :     0.187561
      g+1     :     0.000119
      g-1     :     0.030361
      g+2     :     0.034308
      g-2     :     0.012389
      g+3     :     0.021537
      g-3     :     0.021739
      g+4     :     0.024031
      g-4     :     0.027967
      h0      :     0.011356  h :     0.139867
      h+1     :     0.000785
      h-1     :     0.012039
      h+2     :     0.021952
      h-2     :     0.000142
      h+3     :     0.014851
      h-3     :     0.018123
      h+4     :     0.012588
      h-4     :     0.010018
      h+5     :     0.022671
      h-5     :     0.015343
  2 F s       :     3.459424  s :     3.459424
      pz      :     1.495764  p :     4.674221
      px      :     1.738975
      py      :     1.439483
      dz2     :     0.041404  d :     0.335229
      dxz     :     0.035970
      dyz     :     0.117168
      dx2y2   :     0.074250
      dxy     :     0.066436
      f0      :     0.018929  f :     0.250168
      f+1     :     0.005391
      f-1     :     0.060919
      f+2     :     0.048258
      f-2     :     0.039369
      f+3     :     0.039758
      f-3     :     0.037543
      g0      :     0.015108  g :     0.187561
      g+1     :     0.000119
      g-1     :     0.030361
      g+2     :     0.034308
      g-2     :     0.012389
      g+3     :     0.021537
      g-3     :     0.021739
      g+4     :     0.024031
      g-4     :     0.027967
      h0      :     0.011356  h :     0.139867
      h+1     :     0.000785
      h-1     :     0.012039
      h+2     :     0.021952
      h-2     :     0.000142
      h+3     :     0.014851
      h-3     :     0.018123
      h+4     :     0.012588
      h-4     :     0.010018
      h+5     :     0.022671
      h-5     :     0.015343

SPIN
  0 O s       :    -0.000000  s :    -0.000000
      pz      :    -0.000000  p :    -0.000000
      px      :    -0.000000
      py      :     0.000000
      dz2     :    -0.000000  d :     0.000000
      dxz     :    -0.000000
      dyz     :     0.000000
      dx2y2   :     0.000000
      dxy     :    -0.000000
      f0      :     0.000000  f :     0.000000
      f+1     :    -0.000000
      f-1     :    -0.000000
      f+2     :     0.000000
      f-2     :     0.000000
      f+3     :    -0.000000
      f-3     :    -0.000000
      g0      :     0.000000  g :     0.000000
      g+1     :    -0.000000
      g-1     :    -0.000000
      g+2     :     0.000000
      g-2     :     0.000000
      g+3     :     0.000000
      g-3     :    -0.000000
      g+4     :    -0.000000
      g-4     :     0.000000
      h0      :    -0.000000  h :    -0.000000
      h+1     :     0.000000
      h-1     :    -0.000000
      h+2     :     0.000000
      h-2     :     0.000000
      h+3     :    -0.000000
      h-3     :    -0.000000
      h+4     :    -0.000000
      h-4     :    -0.000000
      h+5     :     0.000000
      h-5     :    -0.000000
  1 F s       :    -0.000000  s :    -0.000000
      pz      :     0.000000  p :     0.000000
      px      :     0.000000
      py      :     0.000000
      dz2     :    -0.000000  d :    -0.000000
      dxz     :    -0.000000
      dyz     :    -0.000000
      dx2y2   :    -0.000000
      dxy     :    -0.000000
      f0      :     0.000000  f :    -0.000000
      f+1     :    -0.000000
      f-1     :     0.000000
      f+2     :     0.000000
      f-2     :     0.000000
      f+3     :    -0.000000
      f-3     :    -0.000000
      g0      :    -0.000000  g :    -0.000000
      g+1     :    -0.000000
      g-1     :    -0.000000
      g+2     :     0.000000
      g-2     :    -0.000000
      g+3     :     0.000000
      g-3     :    -0.000000
      g+4     :    -0.000000
      g-4     :    -0.000000
      h0      :     0.000000  h :     0.000000
      h+1     :     0.000000
      h-1     :     0.000000
      h+2     :     0.000000
      h-2     :     0.000000
      h+3     :    -0.000000
      h-3     :    -0.000000
      h+4     :    -0.000000
      h-4     :    -0.000000
      h+5     :     0.000000
      h-5     :     0.000000
  2 F s       :     0.000000  s :     0.000000
      pz      :     0.000000  p :     0.000000
      px      :     0.000000
      py      :    -0.000000
      dz2     :    -0.000000  d :     0.000000
      dxz     :     0.000000
      dyz     :     0.000000
      dx2y2   :     0.000000
      dxy     :    -0.000000
      f0      :     0.000000  f :    -0.000000
      f+1     :    -0.000000
      f-1     :     0.000000
      f+2     :    -0.000000
      f-2     :    -0.000000
      f+3     :    -0.000000
      f-3     :    -0.000000
      g0      :    -0.000000  g :    -0.000000
      g+1     :     0.000000
      g-1     :    -0.000000
      g+2     :     0.000000
      g-2     :     0.000000
      g+3     :     0.000000
      g-3     :     0.000000
      g+4     :    -0.000000
      g-4     :     0.000000
      h0      :     0.000000  h :    -0.000000
      h+1     :     0.000000
      h-1     :     0.000000
      h+2     :     0.000000
      h-2     :     0.000000
      h+3     :     0.000000
      h-3     :    -0.000000
      h+4     :     0.000000
      h-4     :    -0.000000
      h+5     :     0.000000
      h-5     :    -0.000000


                      *****************************
                      * MAYER POPULATION ANALYSIS *
                      *****************************

  NA   - Mulliken gross atomic population
  ZA   - Total nuclear charge
  QA   - Mulliken gross atomic charge
  VA   - Mayer's total valence
  BVA  - Mayer's bonded valence
  FA   - Mayer's free valence

  ATOM       NA         ZA         QA         VA         BVA        FA
  0 O      7.8239     8.0000     0.1761     1.9706     1.9706     0.0000
  1 F      9.0880     9.0000    -0.0880     1.0697     1.0697     0.0000
  2 F      9.0880     9.0000    -0.0880     1.0697     1.0697     0.0000

  Mayer bond orders larger than 0.1
B(  0-O ,  1-F ) :   0.9853 B(  0-O ,  2-F ) :   0.9853 

-------
TIMINGS
-------

Total SCF time: 0 days 0 hours 23 min 57 sec 

Total time                  ....    1437.187 sec
Sum of individual times     ....    1435.305 sec  ( 99.9%)

Fock matrix formation       ....    1429.548 sec  ( 99.5%)
  XC integration            ....      19.450 sec  (  1.4% of F)
    Basis function eval.    ....       1.289 sec  (  6.6% of XC)
    Density eval.           ....       4.872 sec  ( 25.1% of XC)
    XC-Functional eval.     ....       0.315 sec  (  1.6% of XC)
    XC-Potential eval.      ....      12.071 sec  ( 62.1% of XC)
Diagonalization             ....       2.148 sec  (  0.1%)
Density matrix formation    ....       0.033 sec  (  0.0%)
Population analysis         ....       0.207 sec  (  0.0%)
Initial guess               ....       0.937 sec  (  0.1%)
Orbital Transformation      ....       0.000 sec  (  0.0%)
Orbital Orthonormalization  ....       0.000 sec  (  0.0%)
DIIS solution               ....       1.974 sec  (  0.1%)
Grid generation             ....       0.458 sec  (  0.0%)

-------------------------   --------------------
FINAL SINGLE POINT ENERGY      -274.564561331077
-------------------------   --------------------


                            ***************************************
                            *     ORCA property calculations      *
                            ***************************************

                                    ---------------------
                                    Active property flags
                                    ---------------------
   (+) Dipole Moment
   (+) Polarizability


------------------------------------------------------------------------------
                       ORCA ELECTRIC PROPERTIES CALCULATION
------------------------------------------------------------------------------

Dipole Moment Calculation                       ... on
Quadrupole Moment Calculation                   ... off
Polarizability Calculation                      ... Analytic (CP-SCF)
GBWName                                         ... of2_pbe.gbw
Electron density file                           ... of2_pbe.scfp.tmp
The origin for moment calculation is the CENTER OF MASS  = ( 0.000000,  0.000000 -0.018743)

-------------
DIPOLE MOMENT
-------------
                                X             Y             Z
Electronic contribution:     -0.00000       0.00000      -0.37885
Nuclear contribution   :      0.00000       0.00000       0.48882
                        -----------------------------------------
Total Dipole Moment    :     -0.00000       0.00000       0.10997
                        -----------------------------------------
Magnitude (a.u.)       :      0.10997
Magnitude (Debye)      :      0.27952



--------------------
Rotational spectrum 
--------------------
 
Rotational constants in cm-1:     1.961530     0.366469     0.308780 
Rotational constants in MHz : 58805.203962 10986.452921  9256.989069 

 Dipole components along the rotational axes: 
x,y,z [a.u.] :     0.000000     0.109970    -0.000000 
x,y,z [Debye]:     0.000000     0.279523    -0.000000 

 
Transforming and storing MO dipole integrals   ... done

                ... starting polarizability calculation

Opening the Dipole integral file               ... (of2_pbe.dmo.tmp) done
Reading Dipole-MO integrals                    ... done
Solving CP-SCF equations                       ... 

           ************************************************************
           *        Program running with 4 parallel MPI-processes     *
           *              working on a common directory               *
           ************************************************************

------------------------------------------------------------------------------
                           ORCA CP-SCF CALCULATION
------------------------------------------------------------------------------

Input orbitals are from        ... of2_pbe.gbw
Input Perturbation             ... of2_pbe.cpv.tmp
Wavefunction output            ... of2_pbe.cpu.tmp
Perturbation mode              ... Real perturbation (singlet)
Solver                         ... POPLE
Max. number of iterations      ... 200
Convergence tolerance          ... 1.000e-06
Integral handling              ... Direct
Number of perturbations        ... 3
Number of operators            ... 2
Orbital ranges used for CP-SCF:
 Operator 0:  Orbitals   0... 12  to  13...434
 Operator 1:  Orbitals   0... 12  to  13...434
DFT calculation                         ... on
Exchange functional (SCF)               ... PBE
Exchange functional (CP-SCF)            ... PBE
   PBE kappa parameter  XKappa (SCF)    ...  0.804000
   PBE kappa parameter  XKappa (CP-SCF) ...  0.804000
   PBE mue parameter   XMuePBE (SCF)    ...  0.219520
   PBE mue parameter   XMuePBE (CP-SCF) ...  0.219520
Correlation functional (SCF)            ... PBE
Correlation functional (CP-SCF)         ... PBE
   PBE beta parameter CBetaPBE (SCF)    ...  0.066725
   PBE beta parameter CBetaPBE (CP-SCF) ...  0.066725
 LDA part of GGA corr.  LDAOpt (SCF)    ... PW91-LDA
 LDA part of GGA corr.  LDAOpt (CP-SCF) ... PW91-LDA
Variables per vector in CP-SCF ... 10972
Number of vectors sought       ... 3
Recalculating density on grid  ... done
Calculating the xc-kernel      ... done
     CP-SCF ITERATION   0: 
     CP-SCF ITERATION   1:      0.148993350403
     CP-SCF ITERATION   2:      0.004132423944
     CP-SCF ITERATION   3:      0.000227548744
     CP-SCF ITERATION   4:      0.000005565968
     CP-SCF ITERATION   5:      0.000000822636
done
Reading CP-SCF coefficients                    ... done
Doing the polarizability tensor   ... done
Cleaning up                                    ... done

-------------------------
THE POLARIZABILITY TENSOR
-------------------------

The raw cartesian tensor (atomic units):
   10.74734     -0.00000     -0.00000  
   -0.00000     21.10593     -0.00000  
   -0.00000     -0.00000     14.04090  
diagonalized tensor: 
   10.74734     14.04090     21.10593  

    1.00000     -0.00000     -0.00000  
    0.00000      0.00000      1.00000  
    0.00000      1.00000     -0.00000  

Isotropic polarizability :  15.29806


Timings for individual modules:

Sum of individual times         ...     2546.618 sec (=  42.444 min)
GTO integral calculation        ...        8.604 sec (=   0.143 min)   0.3 %
SCF iterations                  ...     1441.959 sec (=  24.033 min)  56.6 %
Solution of CP-SCF eqns.        ...     1096.054 sec (=  18.268 min)  43.0 %
                             ****ORCA TERMINATED NORMALLY****
TOTAL RUN TIME: 0 days 0 hours 42 minutes 32 seconds 591 msec
