
                                 *****************
                                 * O   R   C   A *
                                 *****************

           --- An Ab Initio, DFT and Semiempirical electronic structure package ---

                  #######################################################
                  #                        -***-                        #
                  #          Department of theory and spectroscopy      #
                  #               Directorship: Frank Neese             #
                  #        Max Planck Institute fuer Kohlenforschung    #
                  #                Kaiser Wilhelm Platz 1               #
                  #                 D-45470 Muelheim/Ruhr               #
                  #                      Germany                        #
                  #                                                     #
                  #                  All rights reserved                #
                  #                        -***-                        #
                  #######################################################


                         Program Version 4.1.2  - RELEASE  -


 With contributions from (in alphabetic order):
   Daniel Aravena         : Magnetic Properties
   Michael Atanasov       : Ab Initio Ligand Field Theory
   Alexander A. Auer      : GIAO ZORA
   Ute Becker             : Parallelization
   Giovanni Bistoni       : ED, Open-shell LED
   Martin Brehm           : Molecular dynamics
   Dmytro Bykov           : SCF Hessian
   Vijay G. Chilkuri      : MRCI spin determinant printing
   Dipayan Datta          : RHF DLPNO-CCSD density
   Achintya Kumar Dutta   : EOM-CC, STEOM-CC
   Dmitry Ganyushin       : Spin-Orbit,Spin-Spin,Magnetic field MRCI
   Miquel Garcia          : C-PCM Hessian
   Yang Guo               : DLPNO-NEVPT2, CIM, IAO-localization
   Andreas Hansen         : Spin unrestricted coupled pair/coupled cluster methods
   Benjamin Helmich-Paris : CASSCF linear response (MC-RPA)
   Lee Huntington         : MR-EOM, pCC
   Robert Izsak           : Overlap fitted RIJCOSX, COSX-SCS-MP3, EOM
   Christian Kollmar      : KDIIS, OOCD, Brueckner-CCSD(T), CCSD density
   Simone Kossmann        : Meta GGA functionals, TD-DFT gradient, OOMP2, MP2 Hessian
   Martin Krupicka        : AUTO-CI
   Lucas Lang             : DCDCAS
   Dagmar Lenk            : GEPOL surface, SMD
   Dimitrios Liakos       : Extrapolation schemes; parallel MDCI
   Dimitrios Manganas     : ROCIS; embedding schemes
   Dimitrios Pantazis     : SARC Basis sets
   Taras Petrenko         : DFT Hessian,TD-DFT gradient, ASA, ECA, R-Raman, ABS, FL, XAS/XES, NRVS
   Peter Pinski           : DLPNO-MP2, DLPNO-MP2 Gradient
   Christoph Reimann      : Effective Core Potentials
   Marius Retegan         : Local ZFS, SOC
   Christoph Riplinger    : Optimizer, TS searches, QM/MM, DLPNO-CCSD(T), (RO)-DLPNO pert. Triples
   Tobias Risthaus        : Range-separated hybrids, TD-DFT gradient, RPA, STAB
   Michael Roemelt        : Restricted open shell CIS
   Masaaki Saitow         : Open-shell DLPNO
   Barbara Sandhoefer     : DKH picture change effects
   Avijit Sen             : IP-ROCIS
   Kantharuban Sivalingam : CASSCF convergence, NEVPT2, FIC-MRCI
   Bernardo de Souza      : ESD, SOC TD-DFT
   Georgi Stoychev        : AutoAux, RI-MP2 NMR
   Willem Van den Heuvel  : Paramagnetic NMR
   Boris Wezisla          : Elementary symmetry handling
   Frank Wennmohs         : Technical directorship


 We gratefully acknowledge several colleagues who have allowed us to
 interface, adapt or use parts of their codes:
   Stefan Grimme, W. Hujo, H. Kruse,             : VdW corrections, initial TS optimization,
                  C. Bannwarth                     DFT functionals, gCP, sTDA/sTD-DF
   Ed Valeev                                     : LibInt (2-el integral package), F12 methods
   Garnet Chan, S. Sharma, J. Yang, R. Olivares  : DMRG
   Ulf Ekstrom                                   : XCFun DFT Library
   Mihaly Kallay                                 : mrcc  (arbitrary order and MRCC methods)
   Andreas Klamt, Michael Diedenhofen            : otool_cosmo (COSMO solvation model)
   Jiri Pittner, Ondrej Demel                    : Mk-CCSD
   Frank Weinhold                                : gennbo (NPA and NBO analysis)
   Christopher J. Cramer and Donald G. Truhlar   : smd solvation model
   Lars Goerigk                                  : TD-DFT with DH, B97 family of functionals
   V. Asgeirsson, H. Jonsson                     : NEB implementation
   FAccTs GmbH                                   : IRC, NEB, NEB-TS, Multilevel


 Your calculation uses the libint2 library for the computation of 2-el integrals
 For citations please refer to: http://libint.valeyev.net

 This ORCA versions uses:
   CBLAS   interface :  Fast vector & matrix operations
   LAPACKE interface :  Fast linear algebra routines
   SCALAPACK package :  Parallel linear algebra routines


----- Orbital basis set information -----
Your calculation utilizes the basis: aug-pc-4
   H, C-F              : F. Jensen, J. Chem. Phys. 115, 9113 (2001).
                         F. Jensen, J. Chem. Phys. 116, 7372 (2002).
                         F. Jensen, J. Chem. Phys. 117, 9234 (2002).
   Si-Cl               : F. Jensen, T. Helgaker, J. Chem. Phys. 121, 3463 (2004).
   He-B, Ne-Mg, Al, Ar : F. Jensen, J. Phys. Chem. A 111, 11198 (2007).
   K, Ca, Ga-Kr        : F. Jensen, J. Chem. Phys. 136, 094110 (2012).
   Sc-Zn               : F. Jensen, J. Chem. Phys. 138, 014107 (2013).

================================================================================
                                        WARNINGS
                       Please study these warnings very carefully!
================================================================================


INFO   : the flag for use of LIBINT has been found!

================================================================================
                                       INPUT FILE
================================================================================
NAME = p2_pbe.inp
|  1> !uks pbe nori aug-pc-4 grid5 nofinalgrid verytightscf
|  2> 
|  3> %maxcore 1500
|  4> 
|  5> %pal nprocs 4 end
|  6> 
|  7> %scf
|  8> 	maxiter 200
|  9> end
| 10> %elprop
| 11> 	dipole true
| 12> 	 polar 1
| 13> 	 maxiter 200
| 14> end
| 15> 
| 16> * xyz 0 1
| 17> P 0.0000 0.0000 0.0000
| 18> P 0.0000 0.0000 1.8934
| 19> *
| 20> 
| 21>                          ****END OF INPUT****
================================================================================

                       ****************************
                       * Single Point Calculation *
                       ****************************

---------------------------------
CARTESIAN COORDINATES (ANGSTROEM)
---------------------------------
  P      0.000000    0.000000    0.000000
  P      0.000000    0.000000    1.893400

----------------------------
CARTESIAN COORDINATES (A.U.)
----------------------------
  NO LB      ZA    FRAG     MASS         X           Y           Z
   0 P    15.0000    0    30.974    0.000000    0.000000    0.000000
   1 P    15.0000    0    30.974    0.000000    0.000000    3.578007

--------------------------------
INTERNAL COORDINATES (ANGSTROEM)
--------------------------------
 P      0   0   0     0.000000000000     0.00000000     0.00000000
 P      1   0   0     1.893400000000     0.00000000     0.00000000

---------------------------
INTERNAL COORDINATES (A.U.)
---------------------------
 P      0   0   0     0.000000000000     0.00000000     0.00000000
 P      1   0   0     3.578007461966     0.00000000     0.00000000

---------------------
BASIS SET INFORMATION
---------------------
There are 1 groups of distinct atoms

 Group   1 Type P   : 44s27p7d4f3g2h contracted to 8s7p7d4f3g2h pattern {15121211111/111111111/1111111/1111/111/11}

Atom   0P    basis set group =>   1
Atom   1P    basis set group =>   1


           ************************************************************
           *        Program running with 4 parallel MPI-processes     *
           *              working on a common directory               *
           ************************************************************
------------------------------------------------------------------------------
                           ORCA GTO INTEGRAL CALCULATION
------------------------------------------------------------------------------

                         BASIS SET STATISTICS AND STARTUP INFO

 # of primitive gaussian shells          ...  174
 # of primitive gaussian functions       ...  474
 # of contracted shells                  ...   62
 # of contracted basis functions         ...  282
 Highest angular momentum                ...    5
 Maximum contraction depth               ...   15
 Integral package used                   ... LIBINT
 Integral threshhold            Thresh   ...  1.000e-12
 Primitive cut-off              TCut     ...  1.000e-14


------------------------------ INTEGRAL EVALUATION ----------------------------


 * One electron integrals 
 Pre-screening matrix                    ... done
 Shell pair data                         ... done (   0.001 sec)



           ************************************************************
           *        Program running with 4 parallel MPI-processes     *
           *              working on a common directory               *
           ************************************************************
-------------------------------------------------------------------------------
                                 ORCA SCF
-------------------------------------------------------------------------------

------------
SCF SETTINGS
------------
Hamiltonian:
 Density Functional     Method          .... DFT(GTOs)
 Exchange Functional    Exchange        .... PBE
   PBE kappa parameter   XKappa         ....  0.804000
   PBE mue parameter    XMuePBE         ....  0.219520
 Correlation Functional Correlation     .... PBE
   PBE beta parameter  CBetaPBE         ....  0.066725
 LDA part of GGA corr.  LDAOpt          .... PW91-LDA
 Gradients option       PostSCFGGA      .... off
   Density functional embedding theory  .... OFF
   NL short-range parameter             ....  6.400000


General Settings:
 Integral files         IntName         .... p2_pbe
 Hartree-Fock type      HFTyp           .... UHF
 Total Charge           Charge          ....    0
 Multiplicity           Mult            ....    1
 Number of Electrons    NEL             ....   30
 Basis Dimension        Dim             ....  282
 Nuclear Repulsion      ENuc            ....     62.8841617553 Eh

Convergence Acceleration:
 DIIS                   CNVDIIS         .... on
   Start iteration      DIISMaxIt       ....    12
   Startup error        DIISStart       ....  0.200000
   # of expansion vecs  DIISMaxEq       ....     5
   Bias factor          DIISBfac        ....   1.050
   Max. coefficient     DIISMaxC        ....  10.000
 Newton-Raphson         CNVNR           .... off
 SOSCF                  CNVSOSCF        .... off
 Level Shifting         CNVShift        .... on
   Level shift para.    LevelShift      ....    0.2500
   Turn off err/grad.   ShiftErr        ....    0.0010
 Zerner damping         CNVZerner       .... off
 Static damping         CNVDamp         .... on
   Fraction old density DampFac         ....    0.7000
   Max. Damping (<1)    DampMax         ....    0.9800
   Min. Damping (>=0)   DampMin         ....    0.0000
   Turn off err/grad.   DampErr         ....    0.1000
 Fernandez-Rico         CNVRico         .... off

SCF Procedure:
 Maximum # iterations   MaxIter         ....   200
 SCF integral mode      SCFMode         .... Direct
   Integral package                     .... LIBINT
 Reset frequency        DirectResetFreq ....    20
 Integral Threshold     Thresh          ....  1.000e-12 Eh
 Primitive CutOff       TCut            ....  1.000e-14 Eh

Convergence Tolerance:
 Convergence Check Mode ConvCheckMode   .... Total+1el-Energy
 Convergence forced     ConvForced      .... 0
 Energy Change          TolE            ....  1.000e-09 Eh
 1-El. energy change                    ....  1.000e-06 Eh
 DIIS Error             TolErr          ....  1.000e-08


Diagonalization of the overlap matrix:
Smallest eigenvalue                        ... 2.569e-06
Time for diagonalization                   ...    0.031 sec
Threshold for overlap eigenvalues          ... 1.000e-08
Number of eigenvalues below threshold      ... 0
Time for construction of square roots      ...    0.029 sec
Total time needed                          ...    0.060 sec

-------------------
DFT GRID GENERATION
-------------------

General Integration Accuracy     IntAcc      ...  5.010
Radial Grid Type                 RadialGrid  ... Gauss-Chebyshev
Angular Grid (max. acc.)         AngularGrid ... Lebedev-434
Angular grid pruning method      GridPruning ... 3 (G Style)
Weight generation scheme         WeightScheme... Becke
Basis function cutoff            BFCut       ...    1.0000e-12
Integration weight cutoff        WCut        ...    1.0000e-14
Grids for H and He will be reduced by one unit

# of grid points (after initial pruning)     ...  23264 (   0.0 sec)
# of grid points (after weights+screening)   ...  23192 (   0.0 sec)
nearest neighbour list constructed           ...    0.0 sec
Grid point re-assignment to atoms done       ...    0.0 sec
Grid point division into batches done        ...    0.3 sec
Reduced shell lists constructed in    0.4 sec

Total number of grid points                  ...    23192
Total number of batches                      ...      364
Average number of points per batch           ...       63
Average number of grid points per atom       ...    11596
Average number of shells per batch           ...    38.78 (62.55%)
Average number of basis functions per batch  ...   180.37 (63.96%)
Average number of large shells per batch     ...    32.95 (84.95%)
Average number of large basis fcns per batch ...   154.14 (85.46%)
Maximum spatial batch extension              ...  20.58, 20.58, 18.00 au
Average spatial batch extension              ...   1.60,  1.60,  1.45 au

Time for grid setup =    0.495 sec

------------------------------
INITIAL GUESS: MODEL POTENTIAL
------------------------------
Loading Hartree-Fock densities                     ... done
Calculating cut-offs                               ... done
Setting up the integral package                    ... done
Initializing the effective Hamiltonian             ... done
Starting the Coulomb interaction                   ... done (   0.0 sec)
Reading the grid                                   ... done
Mapping shells                                     ... done
Starting the XC term evaluation                    ... done (   0.2 sec)
  promolecular density results
     # of electrons  =     30.000002457
     EX              =    -44.971448073
     EC              =     -1.125148534
     EX+EC           =    -46.096596608
Transforming the Hamiltonian                       ... done (   0.0 sec)
Diagonalizing the Hamiltonian                      ... done (   0.0 sec)
Back transforming the eigenvectors                 ... done (   0.0 sec)
Now organizing SCF variables                       ... done
                      ------------------
                      INITIAL GUESS DONE (   0.9 sec)
                      ------------------
--------------
SCF ITERATIONS
--------------
ITER       Energy         Delta-E        Max-DP      RMS-DP      [F,P]     Damp
               ***  Starting incremental Fock matrix formation  ***
  0   -682.3999534091   0.000000000000 0.02038758  0.00029253  0.0928206 0.7000
  1   -682.4118602560  -0.011906846925 0.01011171  0.00017919  0.0496543 0.7000
                               ***Turning on DIIS***
  2   -682.4169196776  -0.005059421569 0.01485648  0.00028104  0.0170392 0.0000
  3   -682.4218723111  -0.004952633591 0.00797095  0.00012611  0.0355340 0.0000
  4   -682.4247893741  -0.002917062986 0.00207931  0.00003412  0.0096284 0.0000
  5   -682.4250547617  -0.000265387615 0.00037748  0.00000739  0.0024634 0.0000
  6   -682.4250770026  -0.000022240898 0.00025446  0.00000571  0.0007825 0.0000
  7   -682.4250802829  -0.000003280242 0.00003741  0.00000047  0.0000585 0.0000
  8   -682.4250802941  -0.000000011210 0.00000634  0.00000008  0.0000074 0.0000
  9   -682.4250802943  -0.000000000188 0.00000257  0.00000003  0.0000011 0.0000
 10   -682.4250802943   0.000000000006 0.00000677  0.00000007  0.0000003 0.0000
                 **** Energy Check signals convergence ****

               *****************************************************
               *                     SUCCESS                       *
               *           SCF CONVERGED AFTER  11 CYCLES          *
               *****************************************************


----------------
TOTAL SCF ENERGY
----------------

Total Energy       :         -682.42508029 Eh          -18569.73050 eV

Components:
Nuclear Repulsion  :           62.88416176 Eh            1711.16504 eV
Electronic Energy  :         -745.30924205 Eh          -20280.89554 eV
One Electron Energy:        -1069.28562832 Eh          -29096.74120 eV
Two Electron Energy:          323.97638627 Eh            8815.84566 eV

Virial components:
Potential Energy   :        -1364.29754889 Eh          -37124.42367 eV
Kinetic Energy     :          681.87246860 Eh           18554.69317 eV
Virial Ratio       :            2.00081043


DFT components:
N(Alpha)           :       15.000000642226 electrons
N(Beta)            :       15.000000642226 electrons
N(Total)           :       30.000001284452 electrons
E(X)               :      -44.986696501047 Eh       
E(C)               :       -1.125592942133 Eh       
E(XC)              :      -46.112289443180 Eh       
DFET-embed. en.    :        0.000000000000 Eh       

---------------
SCF CONVERGENCE
---------------

  Last Energy change         ...   -1.8190e-12  Tolerance :   1.0000e-09
  Last MAX-Density change    ...    9.6438e-06  Tolerance :   1.0000e-08
  Last RMS-Density change    ...    1.0113e-07  Tolerance :   1.0000e-09
  Last DIIS Error            ...    3.4225e-08  Tolerance :   1.0000e-08

             **** THE GBW FILE WAS UPDATED (p2_pbe.gbw) ****
             **** DENSITY FILE WAS UPDATED (p2_pbe.scfp.tmp) ****
             **** ENERGY FILE WAS UPDATED (p2_pbe.en.tmp) ****
----------------------
UHF SPIN CONTAMINATION
----------------------

Warning: in a DFT calculation there is little theoretical justification to 
         calculate <S**2> as in Hartree-Fock theory. We will do it anyways
         but you should keep in mind that the values have only limited relevance

Expectation value of <S**2>     :    -0.000000
Ideal value S*(S+1) for S=0.0   :     0.000000
Deviation                       :    -0.000000

----------------
ORBITAL ENERGIES
----------------
                 SPIN UP ORBITALS
  NO   OCC          E(Eh)            E(eV) 
   0   1.0000     -76.306705     -2076.4110 
   1   1.0000     -76.306705     -2076.4110 
   2   1.0000      -6.325651      -172.1297 
   3   1.0000      -6.325210      -172.1177 
   4   1.0000      -4.541742      -123.5871 
   5   1.0000      -4.541742      -123.5871 
   6   1.0000      -4.541548      -123.5818 
   7   1.0000      -4.541548      -123.5818 
   8   1.0000      -4.537611      -123.4747 
   9   1.0000      -4.535429      -123.4153 
  10   1.0000      -0.621434       -16.9101 
  11   1.0000      -0.423934       -11.5358 
  12   1.0000      -0.264762        -7.2045 
  13   1.0000      -0.261979        -7.1288 
  14   1.0000      -0.261979        -7.1288 
  15   0.0000      -0.125967        -3.4277 
  16   0.0000      -0.125967        -3.4277 
  17   0.0000      -0.008656        -0.2355 
  18   0.0000      -0.003933        -0.1070 
  19   0.0000       0.012733         0.3465 
  20   0.0000       0.012733         0.3465 
  21   0.0000       0.023770         0.6468 
  22   0.0000       0.035119         0.9556 
  23   0.0000       0.035119         0.9556 
  24   0.0000       0.037999         1.0340 
  25   0.0000       0.047227         1.2851 
  26   0.0000       0.047227         1.2851 
  27   0.0000       0.072309         1.9676 
  28   0.0000       0.080040         2.1780 
  29   0.0000       0.080040         2.1780 
  30   0.0000       0.080906         2.2016 
  31   0.0000       0.104053         2.8314 
  32   0.0000       0.104053         2.8314 
  33   0.0000       0.106059         2.8860 
  34   0.0000       0.106059         2.8860 
  35   0.0000       0.109541         2.9808 
  36   0.0000       0.109541         2.9808 
  37   0.0000       0.111514         3.0345 
  38   0.0000       0.130855         3.5607 
  39   0.0000       0.169544         4.6135 
  40   0.0000       0.173644         4.7251 
  41   0.0000       0.173644         4.7251 
  42   0.0000       0.173846         4.7306 
  43   0.0000       0.173846         4.7306 
  44   0.0000       0.180447         4.9102 
  45   0.0000       0.180447         4.9102 
  46   0.0000       0.184828         5.0294 
  47   0.0000       0.184828         5.0294 
  48   0.0000       0.187086         5.0909 
  49   0.0000       0.222170         6.0456 
  50   0.0000       0.222170         6.0456 
  51   0.0000       0.229948         6.2572 
  52   0.0000       0.229948         6.2572 
  53   0.0000       0.257700         7.0124 
  54   0.0000       0.258604         7.0370 
  55   0.0000       0.258688         7.0393 
  56   0.0000       0.258688         7.0393 
  57   0.0000       0.283670         7.7191 
  58   0.0000       0.283670         7.7191 
  59   0.0000       0.290929         7.9166 
  60   0.0000       0.305362         8.3093 
  61   0.0000       0.305362         8.3093 
  62   0.0000       0.333510         9.0753 
  63   0.0000       0.333510         9.0753 
  64   0.0000       0.341619         9.2959 
  65   0.0000       0.341619         9.2959 
  66   0.0000       0.363014         9.8781 
  67   0.0000       0.363014         9.8781 
  68   0.0000       0.382348        10.4042 
  69   0.0000       0.396118        10.7789 
  70   0.0000       0.401972        10.9382 
  71   0.0000       0.401972        10.9382 
  72   0.0000       0.413732        11.2582 
  73   0.0000       0.413732        11.2582 
  74   0.0000       0.413848        11.2614 
  75   0.0000       0.413848        11.2614 
  76   0.0000       0.418972        11.4008 
  77   0.0000       0.418972        11.4008 
  78   0.0000       0.451748        12.2927 
  79   0.0000       0.451748        12.2927 
  80   0.0000       0.461808        12.5664 
  81   0.0000       0.465681        12.6718 
  82   0.0000       0.465681        12.6718 
  83   0.0000       0.467672        12.7260 
  84   0.0000       0.467672        12.7260 
  85   0.0000       0.475241        12.9320 
  86   0.0000       0.475241        12.9320 
  87   0.0000       0.514966        14.0130 
  88   0.0000       0.515130        14.0174 
  89   0.0000       0.515130        14.0174 
  90   0.0000       0.518827        14.1180 
  91   0.0000       0.539711        14.6863 
  92   0.0000       0.539711        14.6863 
  93   0.0000       0.540359        14.7039 
  94   0.0000       0.540359        14.7039 
  95   0.0000       0.563706        15.3392 
  96   0.0000       0.563706        15.3392 
  97   0.0000       0.568658        15.4740 
  98   0.0000       0.568658        15.4740 
  99   0.0000       0.597468        16.2579 
 100   0.0000       0.597468        16.2579 
 101   0.0000       0.604498        16.4492 
 102   0.0000       0.608912        16.5693 
 103   0.0000       0.608912        16.5693 
 104   0.0000       0.688035        18.7224 
 105   0.0000       0.695968        18.9382 
 106   0.0000       0.695968        18.9382 
 107   0.0000       0.705120        19.1873 
 108   0.0000       0.705120        19.1873 
 109   0.0000       0.706398        19.2221 
 110   0.0000       0.706398        19.2221 
 111   0.0000       0.719287        19.5728 
 112   0.0000       0.719287        19.5728 
 113   0.0000       0.750004        20.4087 
 114   0.0000       0.778881        21.1944 
 115   0.0000       0.778881        21.1944 
 116   0.0000       0.783164        21.3110 
 117   0.0000       0.823303        22.4032 
 118   0.0000       0.861113        23.4321 
 119   0.0000       0.861113        23.4321 
 120   0.0000       0.904395        24.6098 
 121   0.0000       0.904395        24.6098 
 122   0.0000       0.939062        25.5532 
 123   0.0000       0.939062        25.5532 
 124   0.0000       0.964190        26.2369 
 125   0.0000       0.964190        26.2369 
 126   0.0000       1.038875        28.2692 
 127   0.0000       1.046389        28.4737 
 128   0.0000       1.046389        28.4737 
 129   0.0000       1.055345        28.7174 
 130   0.0000       1.055345        28.7174 
 131   0.0000       1.136259        30.9192 
 132   0.0000       1.145799        31.1788 
 133   0.0000       1.145799        31.1788 
 134   0.0000       1.162297        31.6277 
 135   0.0000       1.193046        32.4644 
 136   0.0000       1.194028        32.4912 
 137   0.0000       1.194028        32.4912 
 138   0.0000       1.199455        32.6388 
 139   0.0000       1.199455        32.6388 
 140   0.0000       1.270501        34.5721 
 141   0.0000       1.270501        34.5721 
 142   0.0000       1.532115        41.6910 
 143   0.0000       1.577905        42.9370 
 144   0.0000       1.577905        42.9370 
 145   0.0000       1.737400        47.2771 
 146   0.0000       1.992373        54.2152 
 147   0.0000       2.005486        54.5720 
 148   0.0000       2.005486        54.5721 
 149   0.0000       2.009719        54.6872 
 150   0.0000       2.009719        54.6872 
 151   0.0000       2.011013        54.7224 
 152   0.0000       2.011013        54.7224 
 153   0.0000       2.082243        56.6607 
 154   0.0000       2.082244        56.6607 
 155   0.0000       2.132298        58.0228 
 156   0.0000       2.132299        58.0228 
 157   0.0000       2.148858        58.4734 
 158   0.0000       2.148859        58.4734 
 159   0.0000       2.182635        59.3925 
 160   0.0000       2.182635        59.3925 
 161   0.0000       2.240871        60.9772 
 162   0.0000       2.240872        60.9772 
 163   0.0000       2.313106        62.9428 
 164   0.0000       2.313106        62.9428 
 165   0.0000       2.403056        65.3905 
 166   0.0000       2.471316        67.2479 
 167   0.0000       2.471316        67.2479 
 168   0.0000       2.549284        69.3696 
 169   0.0000       2.719377        73.9980 
 170   0.0000       2.743504        74.6545 
 171   0.0000       2.743507        74.6546 
 172   0.0000       2.781109        75.6778 
 173   0.0000       2.781109        75.6778 
 174   0.0000       2.831712        77.0548 
 175   0.0000       2.843011        77.3623 
 176   0.0000       2.843015        77.3624 
 177   0.0000       2.861434        77.8636 
 178   0.0000       2.861434        77.8636 
 179   0.0000       2.908180        79.1356 
 180   0.0000       2.909514        79.1719 
 181   0.0000       2.909514        79.1719 
 182   0.0000       2.988997        81.3347 
 183   0.0000       3.030210        82.4562 
 184   0.0000       3.030211        82.4562 
 185   0.0000       3.036804        82.6356 
 186   0.0000       3.036804        82.6356 
 187   0.0000       3.120183        84.9045 
 188   0.0000       3.120183        84.9045 
 189   0.0000       3.134208        85.2861 
 190   0.0000       3.134208        85.2861 
 191   0.0000       3.178724        86.4975 
 192   0.0000       3.533544        96.1526 
 193   0.0000       3.814867       103.8078 
 194   0.0000       3.814867       103.8078 
 195   0.0000       4.426670       120.4558 
 196   0.0000       4.426670       120.4558 
 197   0.0000       4.571148       124.3873 
 198   0.0000       4.571148       124.3873 
 199   0.0000       4.573119       124.4409 
 200   0.0000       4.573119       124.4409 
 201   0.0000       4.692426       127.6874 
 202   0.0000       4.692426       127.6874 
 203   0.0000       4.726120       128.6043 
 204   0.0000       4.726120       128.6043 
 205   0.0000       4.771191       129.8307 
 206   0.0000       4.771191       129.8307 
 207   0.0000       4.853836       132.0796 
 208   0.0000       4.853836       132.0796 
 209   0.0000       4.866552       132.4256 
 210   0.0000       5.255864       143.0193 
 211   0.0000       5.255864       143.0193 
 212   0.0000       5.267848       143.3454 
 213   0.0000       5.341717       145.3555 
 214   0.0000       5.341729       145.3558 
 215   0.0000       5.356157       145.7484 
 216   0.0000       5.356168       145.7487 
 217   0.0000       5.452062       148.3582 
 218   0.0000       5.452062       148.3582 
 219   0.0000       5.607919       152.5992 
 220   0.0000       5.607919       152.5992 
 221   0.0000       5.699701       155.0967 
 222   0.0000       5.908775       160.7859 
 223   0.0000       5.908775       160.7860 
 224   0.0000       5.962094       162.2368 
 225   0.0000       6.073830       165.2773 
 226   0.0000       6.073830       165.2773 
 227   0.0000       6.475680       176.2122 
 228   0.0000       7.242040       197.0659 
 229   0.0000       7.242040       197.0659 
 230   0.0000       7.256594       197.4620 
 231   0.0000       7.256599       197.4621 
 232   0.0000       7.299924       198.6410 
 233   0.0000       7.299929       198.6412 
 234   0.0000       7.405347       201.5097 
 235   0.0000       7.405356       201.5100 
 236   0.0000       7.423056       201.9916 
 237   0.0000       7.423056       201.9916 
 238   0.0000       7.693665       209.3553 
 239   0.0000       7.693665       209.3553 
 240   0.0000       7.703570       209.6248 
 241   0.0000       7.716557       209.9782 
 242   0.0000       7.716567       209.9785 
 243   0.0000       7.982180       217.2062 
 244   0.0000       7.982180       217.2062 
 245   0.0000       7.996566       217.5976 
 246   0.0000      10.216094       277.9941 
 247   0.0000      10.216095       277.9941 
 248   0.0000      10.236263       278.5429 
 249   0.0000      10.236263       278.5429 
 250   0.0000      10.268643       279.4240 
 251   0.0000      10.268643       279.4240 
 252   0.0000      10.292651       280.0773 
 253   0.0000      10.292651       280.0773 
 254   0.0000      10.328587       281.0551 
 255   0.0000      10.328588       281.0552 
 256   0.0000      10.329053       281.0678 
 257   0.0000      10.933825       297.5245 
 258   0.0000      10.933825       297.5245 
 259   0.0000      11.368133       309.3426 
 260   0.0000      16.065814       437.1730 
 261   0.0000      16.065859       437.1742 
 262   0.0000      16.076945       437.4759 
 263   0.0000      16.076989       437.4771 
 264   0.0000      16.121977       438.7013 
 265   0.0000      16.121977       438.7013 
 266   0.0000      16.231299       441.6761 
 267   0.0000      16.231299       441.6761 
 268   0.0000      16.406328       446.4389 
 269   0.0000      16.796123       457.0457 
 270   0.0000      21.173806       576.1686 
 271   0.0000      22.402557       609.6046 
 272   0.0000      58.842132      1601.1758 
 273   0.0000      58.842137      1601.1759 
 274   0.0000      58.847488      1601.3216 
 275   0.0000      58.847493      1601.3217 
 276   0.0000      58.872447      1602.0007 
 277   0.0000      58.872447      1602.0007 
 278   0.0000      58.940307      1603.8473 
 279   0.0000      58.940307      1603.8473 
 280   0.0000      59.116669      1608.6464 
 281   0.0000      59.241734      1612.0495 

                 SPIN DOWN ORBITALS
  NO   OCC          E(Eh)            E(eV) 
   0   1.0000     -76.306705     -2076.4110 
   1   1.0000     -76.306705     -2076.4110 
   2   1.0000      -6.325651      -172.1297 
   3   1.0000      -6.325210      -172.1177 
   4   1.0000      -4.541742      -123.5871 
   5   1.0000      -4.541742      -123.5871 
   6   1.0000      -4.541548      -123.5818 
   7   1.0000      -4.541548      -123.5818 
   8   1.0000      -4.537611      -123.4747 
   9   1.0000      -4.535429      -123.4153 
  10   1.0000      -0.621434       -16.9101 
  11   1.0000      -0.423934       -11.5358 
  12   1.0000      -0.264762        -7.2045 
  13   1.0000      -0.261979        -7.1288 
  14   1.0000      -0.261979        -7.1288 
  15   0.0000      -0.125967        -3.4277 
  16   0.0000      -0.125967        -3.4277 
  17   0.0000      -0.008656        -0.2355 
  18   0.0000      -0.003933        -0.1070 
  19   0.0000       0.012733         0.3465 
  20   0.0000       0.012733         0.3465 
  21   0.0000       0.023770         0.6468 
  22   0.0000       0.035119         0.9556 
  23   0.0000       0.035119         0.9556 
  24   0.0000       0.037999         1.0340 
  25   0.0000       0.047227         1.2851 
  26   0.0000       0.047227         1.2851 
  27   0.0000       0.072309         1.9676 
  28   0.0000       0.080040         2.1780 
  29   0.0000       0.080040         2.1780 
  30   0.0000       0.080906         2.2016 
  31   0.0000       0.104053         2.8314 
  32   0.0000       0.104053         2.8314 
  33   0.0000       0.106059         2.8860 
  34   0.0000       0.106059         2.8860 
  35   0.0000       0.109541         2.9808 
  36   0.0000       0.109541         2.9808 
  37   0.0000       0.111514         3.0345 
  38   0.0000       0.130855         3.5607 
  39   0.0000       0.169544         4.6135 
  40   0.0000       0.173644         4.7251 
  41   0.0000       0.173644         4.7251 
  42   0.0000       0.173846         4.7306 
  43   0.0000       0.173846         4.7306 
  44   0.0000       0.180447         4.9102 
  45   0.0000       0.180447         4.9102 
  46   0.0000       0.184828         5.0294 
  47   0.0000       0.184828         5.0294 
  48   0.0000       0.187086         5.0909 
  49   0.0000       0.222170         6.0456 
  50   0.0000       0.222170         6.0456 
  51   0.0000       0.229948         6.2572 
  52   0.0000       0.229948         6.2572 
  53   0.0000       0.257700         7.0124 
  54   0.0000       0.258604         7.0370 
  55   0.0000       0.258688         7.0393 
  56   0.0000       0.258688         7.0393 
  57   0.0000       0.283670         7.7191 
  58   0.0000       0.283670         7.7191 
  59   0.0000       0.290929         7.9166 
  60   0.0000       0.305362         8.3093 
  61   0.0000       0.305362         8.3093 
  62   0.0000       0.333510         9.0753 
  63   0.0000       0.333510         9.0753 
  64   0.0000       0.341619         9.2959 
  65   0.0000       0.341619         9.2959 
  66   0.0000       0.363014         9.8781 
  67   0.0000       0.363014         9.8781 
  68   0.0000       0.382348        10.4042 
  69   0.0000       0.396118        10.7789 
  70   0.0000       0.401972        10.9382 
  71   0.0000       0.401972        10.9382 
  72   0.0000       0.413732        11.2582 
  73   0.0000       0.413732        11.2582 
  74   0.0000       0.413848        11.2614 
  75   0.0000       0.413848        11.2614 
  76   0.0000       0.418972        11.4008 
  77   0.0000       0.418972        11.4008 
  78   0.0000       0.451748        12.2927 
  79   0.0000       0.451748        12.2927 
  80   0.0000       0.461808        12.5664 
  81   0.0000       0.465681        12.6718 
  82   0.0000       0.465681        12.6718 
  83   0.0000       0.467672        12.7260 
  84   0.0000       0.467672        12.7260 
  85   0.0000       0.475241        12.9320 
  86   0.0000       0.475241        12.9320 
  87   0.0000       0.514966        14.0130 
  88   0.0000       0.515130        14.0174 
  89   0.0000       0.515130        14.0174 
  90   0.0000       0.518827        14.1180 
  91   0.0000       0.539711        14.6863 
  92   0.0000       0.539711        14.6863 
  93   0.0000       0.540359        14.7039 
  94   0.0000       0.540359        14.7039 
  95   0.0000       0.563706        15.3392 
  96   0.0000       0.563706        15.3392 
  97   0.0000       0.568658        15.4740 
  98   0.0000       0.568658        15.4740 
  99   0.0000       0.597468        16.2579 
 100   0.0000       0.597468        16.2579 
 101   0.0000       0.604498        16.4492 
 102   0.0000       0.608912        16.5693 
 103   0.0000       0.608912        16.5693 
 104   0.0000       0.688035        18.7224 
 105   0.0000       0.695968        18.9382 
 106   0.0000       0.695968        18.9382 
 107   0.0000       0.705120        19.1873 
 108   0.0000       0.705120        19.1873 
 109   0.0000       0.706398        19.2221 
 110   0.0000       0.706398        19.2221 
 111   0.0000       0.719287        19.5728 
 112   0.0000       0.719287        19.5728 
 113   0.0000       0.750004        20.4087 
 114   0.0000       0.778881        21.1944 
 115   0.0000       0.778881        21.1944 
 116   0.0000       0.783164        21.3110 
 117   0.0000       0.823303        22.4032 
 118   0.0000       0.861113        23.4321 
 119   0.0000       0.861113        23.4321 
 120   0.0000       0.904395        24.6098 
 121   0.0000       0.904395        24.6098 
 122   0.0000       0.939062        25.5532 
 123   0.0000       0.939062        25.5532 
 124   0.0000       0.964190        26.2369 
 125   0.0000       0.964190        26.2369 
 126   0.0000       1.038875        28.2692 
 127   0.0000       1.046389        28.4737 
 128   0.0000       1.046389        28.4737 
 129   0.0000       1.055345        28.7174 
 130   0.0000       1.055345        28.7174 
 131   0.0000       1.136259        30.9192 
 132   0.0000       1.145799        31.1788 
 133   0.0000       1.145799        31.1788 
 134   0.0000       1.162297        31.6277 
 135   0.0000       1.193046        32.4644 
 136   0.0000       1.194028        32.4912 
 137   0.0000       1.194028        32.4912 
 138   0.0000       1.199455        32.6388 
 139   0.0000       1.199455        32.6388 
 140   0.0000       1.270501        34.5721 
 141   0.0000       1.270501        34.5721 
 142   0.0000       1.532115        41.6910 
 143   0.0000       1.577905        42.9370 
 144   0.0000       1.577905        42.9370 
 145   0.0000       1.737400        47.2771 
 146   0.0000       1.992373        54.2152 
 147   0.0000       2.005486        54.5720 
 148   0.0000       2.005486        54.5721 
 149   0.0000       2.009719        54.6872 
 150   0.0000       2.009719        54.6872 
 151   0.0000       2.011013        54.7224 
 152   0.0000       2.011013        54.7224 
 153   0.0000       2.082243        56.6607 
 154   0.0000       2.082244        56.6607 
 155   0.0000       2.132298        58.0228 
 156   0.0000       2.132299        58.0228 
 157   0.0000       2.148858        58.4734 
 158   0.0000       2.148859        58.4734 
 159   0.0000       2.182635        59.3925 
 160   0.0000       2.182635        59.3925 
 161   0.0000       2.240871        60.9772 
 162   0.0000       2.240872        60.9772 
 163   0.0000       2.313106        62.9428 
 164   0.0000       2.313106        62.9428 
 165   0.0000       2.403056        65.3905 
 166   0.0000       2.471316        67.2479 
 167   0.0000       2.471316        67.2479 
 168   0.0000       2.549284        69.3696 
 169   0.0000       2.719377        73.9980 
 170   0.0000       2.743504        74.6545 
 171   0.0000       2.743507        74.6546 
 172   0.0000       2.781109        75.6778 
 173   0.0000       2.781109        75.6778 
 174   0.0000       2.831712        77.0548 
 175   0.0000       2.843011        77.3623 
 176   0.0000       2.843015        77.3624 
 177   0.0000       2.861434        77.8636 
 178   0.0000       2.861434        77.8636 
 179   0.0000       2.908180        79.1356 
 180   0.0000       2.909514        79.1719 
 181   0.0000       2.909514        79.1719 
 182   0.0000       2.988997        81.3347 
 183   0.0000       3.030210        82.4562 
 184   0.0000       3.030211        82.4562 
 185   0.0000       3.036804        82.6356 
 186   0.0000       3.036804        82.6356 
 187   0.0000       3.120183        84.9045 
 188   0.0000       3.120183        84.9045 
 189   0.0000       3.134208        85.2861 
 190   0.0000       3.134208        85.2861 
 191   0.0000       3.178724        86.4975 
 192   0.0000       3.533544        96.1526 
 193   0.0000       3.814867       103.8078 
 194   0.0000       3.814867       103.8078 
 195   0.0000       4.426670       120.4558 
 196   0.0000       4.426670       120.4558 
 197   0.0000       4.571148       124.3873 
 198   0.0000       4.571148       124.3873 
 199   0.0000       4.573119       124.4409 
 200   0.0000       4.573119       124.4409 
 201   0.0000       4.692426       127.6874 
 202   0.0000       4.692426       127.6874 
 203   0.0000       4.726120       128.6043 
 204   0.0000       4.726120       128.6043 
 205   0.0000       4.771191       129.8307 
 206   0.0000       4.771191       129.8307 
 207   0.0000       4.853836       132.0796 
 208   0.0000       4.853836       132.0796 
 209   0.0000       4.866552       132.4256 
 210   0.0000       5.255864       143.0193 
 211   0.0000       5.255864       143.0193 
 212   0.0000       5.267848       143.3454 
 213   0.0000       5.341717       145.3555 
 214   0.0000       5.341729       145.3558 
 215   0.0000       5.356157       145.7484 
 216   0.0000       5.356168       145.7487 
 217   0.0000       5.452062       148.3582 
 218   0.0000       5.452062       148.3582 
 219   0.0000       5.607919       152.5992 
 220   0.0000       5.607919       152.5992 
 221   0.0000       5.699701       155.0967 
 222   0.0000       5.908775       160.7859 
 223   0.0000       5.908775       160.7860 
 224   0.0000       5.962094       162.2368 
 225   0.0000       6.073830       165.2773 
 226   0.0000       6.073830       165.2773 
 227   0.0000       6.475680       176.2122 
 228   0.0000       7.242040       197.0659 
 229   0.0000       7.242040       197.0659 
 230   0.0000       7.256594       197.4620 
 231   0.0000       7.256599       197.4621 
 232   0.0000       7.299924       198.6410 
 233   0.0000       7.299929       198.6412 
 234   0.0000       7.405347       201.5097 
 235   0.0000       7.405356       201.5100 
 236   0.0000       7.423056       201.9916 
 237   0.0000       7.423056       201.9916 
 238   0.0000       7.693665       209.3553 
 239   0.0000       7.693665       209.3553 
 240   0.0000       7.703570       209.6248 
 241   0.0000       7.716557       209.9782 
 242   0.0000       7.716567       209.9785 
 243   0.0000       7.982180       217.2062 
 244   0.0000       7.982180       217.2062 
 245   0.0000       7.996566       217.5976 
 246   0.0000      10.216094       277.9941 
 247   0.0000      10.216095       277.9941 
 248   0.0000      10.236263       278.5429 
 249   0.0000      10.236263       278.5429 
 250   0.0000      10.268643       279.4240 
 251   0.0000      10.268643       279.4240 
 252   0.0000      10.292651       280.0773 
 253   0.0000      10.292651       280.0773 
 254   0.0000      10.328587       281.0551 
 255   0.0000      10.328588       281.0552 
 256   0.0000      10.329053       281.0678 
 257   0.0000      10.933825       297.5245 
 258   0.0000      10.933825       297.5245 
 259   0.0000      11.368133       309.3426 
 260   0.0000      16.065814       437.1730 
 261   0.0000      16.065859       437.1742 
 262   0.0000      16.076945       437.4759 
 263   0.0000      16.076989       437.4771 
 264   0.0000      16.121977       438.7013 
 265   0.0000      16.121977       438.7013 
 266   0.0000      16.231299       441.6761 
 267   0.0000      16.231299       441.6761 
 268   0.0000      16.406328       446.4389 
 269   0.0000      16.796123       457.0457 
 270   0.0000      21.173806       576.1686 
 271   0.0000      22.402557       609.6046 
 272   0.0000      58.842132      1601.1758 
 273   0.0000      58.842137      1601.1759 
 274   0.0000      58.847488      1601.3216 
 275   0.0000      58.847493      1601.3217 
 276   0.0000      58.872447      1602.0007 
 277   0.0000      58.872447      1602.0007 
 278   0.0000      58.940307      1603.8473 
 279   0.0000      58.940307      1603.8473 
 280   0.0000      59.116669      1608.6464 
 281   0.0000      59.241734      1612.0495 

                    ********************************
                    * MULLIKEN POPULATION ANALYSIS *
                    ********************************

--------------------------------------------
MULLIKEN ATOMIC CHARGES AND SPIN POPULATIONS
--------------------------------------------
   0 P :   -0.000000    0.000000
   1 P :    0.000000   -0.000000
Sum of atomic charges         :   -0.0000000
Sum of atomic spin populations:   -0.0000000

-----------------------------------------------------
MULLIKEN REDUCED ORBITAL CHARGES AND SPIN POPULATIONS
-----------------------------------------------------
CHARGE
  0 P s       :     5.896057  s :     5.896057
      pz      :     3.073853  p :     8.982675
      px      :     2.954411
      py      :     2.954411
      dz2     :     0.030489  d :     0.108961
      dxz     :     0.039236
      dyz     :     0.039236
      dx2y2   :     0.000000
      dxy     :     0.000000
      f0      :     0.000365  f :     0.011729
      f+1     :     0.005682
      f-1     :     0.005682
      f+2     :     0.000000
      f-2     :    -0.000000
      f+3     :     0.000000
      f-3     :     0.000000
      g0      :    -0.000644  g :     0.000737
      g+1     :     0.000690
      g-1     :     0.000690
      g+2     :     0.000000
      g-2     :    -0.000000
      g+3     :     0.000000
      g-3     :     0.000000
      g+4     :     0.000000
      g-4     :    -0.000000
      h0      :    -0.000121  h :    -0.000159
      h+1     :    -0.000019
      h-1     :    -0.000019
      h+2     :    -0.000000
      h-2     :     0.000000
      h+3     :     0.000000
      h-3     :     0.000000
      h+4     :     0.000000
      h-4     :     0.000000
      h+5     :     0.000000
      h-5     :     0.000000
  1 P s       :     5.896059  s :     5.896059
      pz      :     3.073852  p :     8.982674
      px      :     2.954411
      py      :     2.954411
      dz2     :     0.030489  d :     0.108961
      dxz     :     0.039236
      dyz     :     0.039236
      dx2y2   :     0.000000
      dxy     :     0.000000
      f0      :     0.000365  f :     0.011729
      f+1     :     0.005682
      f-1     :     0.005682
      f+2     :     0.000000
      f-2     :    -0.000000
      f+3     :     0.000000
      f-3     :     0.000000
      g0      :    -0.000644  g :     0.000737
      g+1     :     0.000690
      g-1     :     0.000690
      g+2     :     0.000000
      g-2     :     0.000000
      g+3     :     0.000000
      g-3     :     0.000000
      g+4     :     0.000000
      g-4     :     0.000000
      h0      :    -0.000121  h :    -0.000159
      h+1     :    -0.000019
      h-1     :    -0.000019
      h+2     :     0.000000
      h-2     :    -0.000000
      h+3     :     0.000000
      h-3     :     0.000000
      h+4     :     0.000000
      h-4     :    -0.000000
      h+5     :     0.000000
      h-5     :     0.000000

SPIN
  0 P s       :     0.000000  s :     0.000000
      pz      :     0.000000  p :     0.000000
      px      :    -0.000000
      py      :     0.000000
      dz2     :     0.000000  d :     0.000000
      dxz     :    -0.000000
      dyz     :     0.000000
      dx2y2   :    -0.000000
      dxy     :    -0.000000
      f0      :    -0.000000  f :    -0.000000
      f+1     :     0.000000
      f-1     :     0.000000
      f+2     :     0.000000
      f-2     :    -0.000000
      f+3     :    -0.000000
      f-3     :     0.000000
      g0      :    -0.000000  g :    -0.000000
      g+1     :    -0.000000
      g-1     :     0.000000
      g+2     :     0.000000
      g-2     :     0.000000
      g+3     :     0.000000
      g-3     :     0.000000
      g+4     :    -0.000000
      g-4     :    -0.000000
      h0      :    -0.000000  h :    -0.000000
      h+1     :     0.000000
      h-1     :     0.000000
      h+2     :     0.000000
      h-2     :     0.000000
      h+3     :    -0.000000
      h-3     :    -0.000000
      h+4     :    -0.000000
      h-4     :     0.000000
      h+5     :     0.000000
      h-5     :     0.000000
  1 P s       :    -0.000000  s :    -0.000000
      pz      :     0.000000  p :    -0.000000
      px      :     0.000000
      py      :    -0.000000
      dz2     :     0.000000  d :    -0.000000
      dxz     :     0.000000
      dyz     :    -0.000000
      dx2y2   :    -0.000000
      dxy     :    -0.000000
      f0      :     0.000000  f :     0.000000
      f+1     :     0.000000
      f-1     :    -0.000000
      f+2     :     0.000000
      f-2     :    -0.000000
      f+3     :     0.000000
      f-3     :    -0.000000
      g0      :     0.000000  g :     0.000000
      g+1     :     0.000000
      g-1     :    -0.000000
      g+2     :     0.000000
      g-2     :     0.000000
      g+3     :     0.000000
      g-3     :     0.000000
      g+4     :     0.000000
      g-4     :     0.000000
      h0      :     0.000000  h :     0.000000
      h+1     :    -0.000000
      h-1     :    -0.000000
      h+2     :     0.000000
      h-2     :     0.000000
      h+3     :    -0.000000
      h-3     :     0.000000
      h+4     :     0.000000
      h-4     :     0.000000
      h+5     :     0.000000
      h-5     :     0.000000


                     *******************************
                     * LOEWDIN POPULATION ANALYSIS *
                     *******************************

-------------------------------------------
LOEWDIN ATOMIC CHARGES AND SPIN POPULATIONS
-------------------------------------------
   0 P :   -0.000000    0.000000
   1 P :    0.000000   -0.000000

----------------------------------------------------
LOEWDIN REDUCED ORBITAL CHARGES AND SPIN POPULATIONS
----------------------------------------------------
CHARGE
  0 P s       :     5.324942  s :     5.324942
      pz      :     3.285360  p :     8.975062
      px      :     2.844851
      py      :     2.844851
      dz2     :     0.240578  d :     0.431493
      dxz     :     0.095458
      dyz     :     0.095458
      dx2y2   :     0.000000
      dxy     :     0.000000
      f0      :     0.095698  f :     0.167890
      f+1     :     0.036096
      f-1     :     0.036096
      f+2     :     0.000000
      f-2     :     0.000000
      f+3     :     0.000000
      f-3     :     0.000000
      g0      :     0.039973  g :     0.071298
      g+1     :     0.015663
      g-1     :     0.015663
      g+2     :     0.000000
      g-2     :     0.000000
      g+3     :     0.000000
      g-3     :     0.000000
      g+4     :     0.000000
      g-4     :     0.000000
      h0      :     0.013449  h :     0.029314
      h+1     :     0.007932
      h-1     :     0.007932
      h+2     :     0.000000
      h-2     :     0.000000
      h+3     :     0.000000
      h-3     :     0.000000
      h+4     :     0.000000
      h-4     :     0.000000
      h+5     :     0.000000
      h-5     :     0.000000
  1 P s       :     5.324942  s :     5.324942
      pz      :     3.285360  p :     8.975062
      px      :     2.844851
      py      :     2.844851
      dz2     :     0.240578  d :     0.431493
      dxz     :     0.095458
      dyz     :     0.095458
      dx2y2   :     0.000000
      dxy     :     0.000000
      f0      :     0.095698  f :     0.167890
      f+1     :     0.036096
      f-1     :     0.036096
      f+2     :     0.000000
      f-2     :     0.000000
      f+3     :     0.000000
      f-3     :     0.000000
      g0      :     0.039973  g :     0.071298
      g+1     :     0.015663
      g-1     :     0.015663
      g+2     :     0.000000
      g-2     :     0.000000
      g+3     :     0.000000
      g-3     :     0.000000
      g+4     :     0.000000
      g-4     :     0.000000
      h0      :     0.013449  h :     0.029314
      h+1     :     0.007932
      h-1     :     0.007932
      h+2     :     0.000000
      h-2     :     0.000000
      h+3     :     0.000000
      h-3     :     0.000000
      h+4     :     0.000000
      h-4     :     0.000000
      h+5     :     0.000000
      h-5     :     0.000000

SPIN
  0 P s       :     0.000000  s :     0.000000
      pz      :    -0.000000  p :    -0.000000
      px      :    -0.000000
      py      :     0.000000
      dz2     :    -0.000000  d :    -0.000000
      dxz     :    -0.000000
      dyz     :     0.000000
      dx2y2   :    -0.000000
      dxy     :    -0.000000
      f0      :     0.000000  f :     0.000000
      f+1     :     0.000000
      f-1     :    -0.000000
      f+2     :     0.000000
      f-2     :     0.000000
      f+3     :    -0.000000
      f-3     :     0.000000
      g0      :     0.000000  g :     0.000000
      g+1     :    -0.000000
      g-1     :    -0.000000
      g+2     :     0.000000
      g-2     :     0.000000
      g+3     :     0.000000
      g-3     :     0.000000
      g+4     :    -0.000000
      g-4     :    -0.000000
      h0      :     0.000000  h :     0.000000
      h+1     :     0.000000
      h-1     :     0.000000
      h+2     :     0.000000
      h-2     :     0.000000
      h+3     :    -0.000000
      h-3     :    -0.000000
      h+4     :    -0.000000
      h-4     :     0.000000
      h+5     :     0.000000
      h-5     :     0.000000
  1 P s       :    -0.000000  s :    -0.000000
      pz      :     0.000000  p :    -0.000000
      px      :     0.000000
      py      :    -0.000000
      dz2     :    -0.000000  d :    -0.000000
      dxz     :     0.000000
      dyz     :    -0.000000
      dx2y2   :    -0.000000
      dxy     :    -0.000000
      f0      :     0.000000  f :     0.000000
      f+1     :    -0.000000
      f-1     :    -0.000000
      f+2     :    -0.000000
      f-2     :    -0.000000
      f+3     :     0.000000
      f-3     :    -0.000000
      g0      :     0.000000  g :     0.000000
      g+1     :     0.000000
      g-1     :     0.000000
      g+2     :     0.000000
      g-2     :     0.000000
      g+3     :     0.000000
      g-3     :     0.000000
      g+4     :     0.000000
      g-4     :     0.000000
      h0      :     0.000000  h :    -0.000000
      h+1     :    -0.000000
      h-1     :    -0.000000
      h+2     :     0.000000
      h-2     :    -0.000000
      h+3     :    -0.000000
      h-3     :     0.000000
      h+4     :     0.000000
      h-4     :     0.000000
      h+5     :     0.000000
      h-5     :     0.000000


                      *****************************
                      * MAYER POPULATION ANALYSIS *
                      *****************************

  NA   - Mulliken gross atomic population
  ZA   - Total nuclear charge
  QA   - Mulliken gross atomic charge
  VA   - Mayer's total valence
  BVA  - Mayer's bonded valence
  FA   - Mayer's free valence

  ATOM       NA         ZA         QA         VA         BVA        FA
  0 P     15.0000    15.0000    -0.0000     2.8259     2.8259    -0.0000
  1 P     15.0000    15.0000     0.0000     2.8259     2.8259    -0.0000

  Mayer bond orders larger than 0.1
B(  0-P ,  1-P ) :   2.8259 

-------
TIMINGS
-------

Total SCF time: 0 days 0 hours 7 min 57 sec 

Total time                  ....     477.994 sec
Sum of individual times     ....     477.307 sec  ( 99.9%)

Fock matrix formation       ....     475.299 sec  ( 99.4%)
  XC integration            ....       6.168 sec  (  1.3% of F)
    Basis function eval.    ....       0.543 sec  (  8.8% of XC)
    Density eval.           ....       1.261 sec  ( 20.4% of XC)
    XC-Functional eval.     ....       0.098 sec  (  1.6% of XC)
    XC-Potential eval.      ....       3.723 sec  ( 60.4% of XC)
Diagonalization             ....       0.550 sec  (  0.1%)
Density matrix formation    ....       0.011 sec  (  0.0%)
Population analysis         ....       0.145 sec  (  0.0%)
Initial guess               ....       0.409 sec  (  0.1%)
Orbital Transformation      ....       0.000 sec  (  0.0%)
Orbital Orthonormalization  ....       0.000 sec  (  0.0%)
DIIS solution               ....       0.398 sec  (  0.1%)
Grid generation             ....       0.495 sec  (  0.1%)

-------------------------   --------------------
FINAL SINGLE POINT ENERGY      -682.425080294278
-------------------------   --------------------


                            ***************************************
                            *     ORCA property calculations      *
                            ***************************************

                                    ---------------------
                                    Active property flags
                                    ---------------------
   (+) Dipole Moment
   (+) Polarizability


------------------------------------------------------------------------------
                       ORCA ELECTRIC PROPERTIES CALCULATION
------------------------------------------------------------------------------

Dipole Moment Calculation                       ... on
Quadrupole Moment Calculation                   ... off
Polarizability Calculation                      ... Analytic (CP-SCF)
GBWName                                         ... p2_pbe.gbw
Electron density file                           ... p2_pbe.scfp.tmp
The origin for moment calculation is the CENTER OF MASS  = ( 0.000000,  0.000000  1.789004)

-------------
DIPOLE MOMENT
-------------
                                X             Y             Z
Electronic contribution:     -0.00000      -0.00000       0.00000
Nuclear contribution   :      0.00000       0.00000       0.00000
                        -----------------------------------------
Total Dipole Moment    :     -0.00000      -0.00000       0.00000
                        -----------------------------------------
Magnitude (a.u.)       :      0.00000
Magnitude (Debye)      :      0.00000



--------------------
Rotational spectrum 
--------------------
 
Rotational constants in cm-1:     0.000000     0.303630     0.303630 
Rotational constants in MHz :     0.000000  9102.602123  9102.602123 

 Dipole components along the rotational axes: 
x,y,z [a.u.] :     0.000000    -0.000000    -0.000000 
x,y,z [Debye]:     0.000000    -0.000000    -0.000000 

 
Transforming and storing MO dipole integrals   ... done

                ... starting polarizability calculation

Opening the Dipole integral file               ... (p2_pbe.dmo.tmp) done
Reading Dipole-MO integrals                    ... done
Solving CP-SCF equations                       ... 

           ************************************************************
           *        Program running with 4 parallel MPI-processes     *
           *              working on a common directory               *
           ************************************************************

------------------------------------------------------------------------------
                           ORCA CP-SCF CALCULATION
------------------------------------------------------------------------------

Input orbitals are from        ... p2_pbe.gbw
Input Perturbation             ... p2_pbe.cpv.tmp
Wavefunction output            ... p2_pbe.cpu.tmp
Perturbation mode              ... Real perturbation (singlet)
Solver                         ... POPLE
Max. number of iterations      ... 200
Convergence tolerance          ... 1.000e-06
Integral handling              ... Direct
Number of perturbations        ... 3
Number of operators            ... 2
Orbital ranges used for CP-SCF:
 Operator 0:  Orbitals   0... 14  to  15...281
 Operator 1:  Orbitals   0... 14  to  15...281
DFT calculation                         ... on
Exchange functional (SCF)               ... PBE
Exchange functional (CP-SCF)            ... PBE
   PBE kappa parameter  XKappa (SCF)    ...  0.804000
   PBE kappa parameter  XKappa (CP-SCF) ...  0.804000
   PBE mue parameter   XMuePBE (SCF)    ...  0.219520
   PBE mue parameter   XMuePBE (CP-SCF) ...  0.219520
Correlation functional (SCF)            ... PBE
Correlation functional (CP-SCF)         ... PBE
   PBE beta parameter CBetaPBE (SCF)    ...  0.066725
   PBE beta parameter CBetaPBE (CP-SCF) ...  0.066725
 LDA part of GGA corr.  LDAOpt (SCF)    ... PW91-LDA
 LDA part of GGA corr.  LDAOpt (CP-SCF) ... PW91-LDA
Variables per vector in CP-SCF ... 8010
Number of vectors sought       ... 3
Recalculating density on grid  ... done
Calculating the xc-kernel      ... done
     CP-SCF ITERATION   0: 
     CP-SCF ITERATION   1:      0.502833256031
     CP-SCF ITERATION   2:      0.003924250605
     CP-SCF ITERATION   3:      0.000011222200
     CP-SCF ITERATION   4:      0.000000644143
done
Reading CP-SCF coefficients                    ... done
Doing the polarizability tensor   ... done
Cleaning up                                    ... done

-------------------------
THE POLARIZABILITY TENSOR
-------------------------

The raw cartesian tensor (atomic units):
   41.10426      0.00000      0.00000  
    0.00000     41.10426     -0.00000  
    0.00000     -0.00000     70.30140  
diagonalized tensor: 
   41.10426     41.10426     70.30140  

    0.68757      0.72612      0.00000  
   -0.72612      0.68757     -0.00000  
   -0.00000      0.00000      1.00000  

Isotropic polarizability :  50.83664


Timings for individual modules:

Sum of individual times         ...      741.482 sec (=  12.358 min)
GTO integral calculation        ...        2.340 sec (=   0.039 min)   0.3 %
SCF iterations                  ...      479.159 sec (=   7.986 min)  64.6 %
Solution of CP-SCF eqns.        ...      259.984 sec (=   4.333 min)  35.1 %
                             ****ORCA TERMINATED NORMALLY****
TOTAL RUN TIME: 0 days 0 hours 12 minutes 22 seconds 297 msec
