
                                 *****************
                                 * O   R   C   A *
                                 *****************

           --- An Ab Initio, DFT and Semiempirical electronic structure package ---

                  #######################################################
                  #                        -***-                        #
                  #          Department of theory and spectroscopy      #
                  #               Directorship: Frank Neese             #
                  #        Max Planck Institute fuer Kohlenforschung    #
                  #                Kaiser Wilhelm Platz 1               #
                  #                 D-45470 Muelheim/Ruhr               #
                  #                      Germany                        #
                  #                                                     #
                  #                  All rights reserved                #
                  #                        -***-                        #
                  #######################################################


                         Program Version 4.1.2  - RELEASE  -


 With contributions from (in alphabetic order):
   Daniel Aravena         : Magnetic Properties
   Michael Atanasov       : Ab Initio Ligand Field Theory
   Alexander A. Auer      : GIAO ZORA
   Ute Becker             : Parallelization
   Giovanni Bistoni       : ED, Open-shell LED
   Martin Brehm           : Molecular dynamics
   Dmytro Bykov           : SCF Hessian
   Vijay G. Chilkuri      : MRCI spin determinant printing
   Dipayan Datta          : RHF DLPNO-CCSD density
   Achintya Kumar Dutta   : EOM-CC, STEOM-CC
   Dmitry Ganyushin       : Spin-Orbit,Spin-Spin,Magnetic field MRCI
   Miquel Garcia          : C-PCM Hessian
   Yang Guo               : DLPNO-NEVPT2, CIM, IAO-localization
   Andreas Hansen         : Spin unrestricted coupled pair/coupled cluster methods
   Benjamin Helmich-Paris : CASSCF linear response (MC-RPA)
   Lee Huntington         : MR-EOM, pCC
   Robert Izsak           : Overlap fitted RIJCOSX, COSX-SCS-MP3, EOM
   Christian Kollmar      : KDIIS, OOCD, Brueckner-CCSD(T), CCSD density
   Simone Kossmann        : Meta GGA functionals, TD-DFT gradient, OOMP2, MP2 Hessian
   Martin Krupicka        : AUTO-CI
   Lucas Lang             : DCDCAS
   Dagmar Lenk            : GEPOL surface, SMD
   Dimitrios Liakos       : Extrapolation schemes; parallel MDCI
   Dimitrios Manganas     : ROCIS; embedding schemes
   Dimitrios Pantazis     : SARC Basis sets
   Taras Petrenko         : DFT Hessian,TD-DFT gradient, ASA, ECA, R-Raman, ABS, FL, XAS/XES, NRVS
   Peter Pinski           : DLPNO-MP2, DLPNO-MP2 Gradient
   Christoph Reimann      : Effective Core Potentials
   Marius Retegan         : Local ZFS, SOC
   Christoph Riplinger    : Optimizer, TS searches, QM/MM, DLPNO-CCSD(T), (RO)-DLPNO pert. Triples
   Tobias Risthaus        : Range-separated hybrids, TD-DFT gradient, RPA, STAB
   Michael Roemelt        : Restricted open shell CIS
   Masaaki Saitow         : Open-shell DLPNO
   Barbara Sandhoefer     : DKH picture change effects
   Avijit Sen             : IP-ROCIS
   Kantharuban Sivalingam : CASSCF convergence, NEVPT2, FIC-MRCI
   Bernardo de Souza      : ESD, SOC TD-DFT
   Georgi Stoychev        : AutoAux, RI-MP2 NMR
   Willem Van den Heuvel  : Paramagnetic NMR
   Boris Wezisla          : Elementary symmetry handling
   Frank Wennmohs         : Technical directorship


 We gratefully acknowledge several colleagues who have allowed us to
 interface, adapt or use parts of their codes:
   Stefan Grimme, W. Hujo, H. Kruse,             : VdW corrections, initial TS optimization,
                  C. Bannwarth                     DFT functionals, gCP, sTDA/sTD-DF
   Ed Valeev                                     : LibInt (2-el integral package), F12 methods
   Garnet Chan, S. Sharma, J. Yang, R. Olivares  : DMRG
   Ulf Ekstrom                                   : XCFun DFT Library
   Mihaly Kallay                                 : mrcc  (arbitrary order and MRCC methods)
   Andreas Klamt, Michael Diedenhofen            : otool_cosmo (COSMO solvation model)
   Jiri Pittner, Ondrej Demel                    : Mk-CCSD
   Frank Weinhold                                : gennbo (NPA and NBO analysis)
   Christopher J. Cramer and Donald G. Truhlar   : smd solvation model
   Lars Goerigk                                  : TD-DFT with DH, B97 family of functionals
   V. Asgeirsson, H. Jonsson                     : NEB implementation
   FAccTs GmbH                                   : IRC, NEB, NEB-TS, Multilevel


 Your calculation uses the libint2 library for the computation of 2-el integrals
 For citations please refer to: http://libint.valeyev.net

 This ORCA versions uses:
   CBLAS   interface :  Fast vector & matrix operations
   LAPACKE interface :  Fast linear algebra routines
   SCALAPACK package :  Parallel linear algebra routines


----- Orbital basis set information -----
Your calculation utilizes the basis: aug-pc-4
   H, C-F              : F. Jensen, J. Chem. Phys. 115, 9113 (2001).
                         F. Jensen, J. Chem. Phys. 116, 7372 (2002).
                         F. Jensen, J. Chem. Phys. 117, 9234 (2002).
   Si-Cl               : F. Jensen, T. Helgaker, J. Chem. Phys. 121, 3463 (2004).
   He-B, Ne-Mg, Al, Ar : F. Jensen, J. Phys. Chem. A 111, 11198 (2007).
   K, Ca, Ga-Kr        : F. Jensen, J. Chem. Phys. 136, 094110 (2012).
   Sc-Zn               : F. Jensen, J. Chem. Phys. 138, 014107 (2013).

================================================================================
                                        WARNINGS
                       Please study these warnings very carefully!
================================================================================


INFO   : the flag for use of LIBINT has been found!

================================================================================
                                       INPUT FILE
================================================================================
NAME = p2h4_pbe.inp
|  1> !uks pbe nori aug-pc-4 grid5 nofinalgrid verytightscf
|  2> 
|  3> %maxcore 1500
|  4> 
|  5> %pal nprocs 4 end
|  6> 
|  7> %scf
|  8> 	maxiter 200
|  9> end
| 10> %elprop
| 11> 	dipole true
| 12> 	 polar 1
| 13> 	 maxiter 200
| 14> end
| 15> 
| 16> * xyz 0 1
| 17> P 0.0000000000 1.1100000000 -0.0858000000
| 18> P 0.0000000000 -1.1100000000 -0.0858000000
| 19> H -0.2026000000 1.3478000000 1.2905000000
| 20> H 1.4045000000 1.2216000000 -0.0032000000
| 21> H 0.2026000000 -1.3478000000 1.2905000000
| 22> H -1.4045000000 -1.2216000000 -0.0032000000
| 23> *
| 24> 
| 25>                          ****END OF INPUT****
================================================================================

                       ****************************
                       * Single Point Calculation *
                       ****************************

---------------------------------
CARTESIAN COORDINATES (ANGSTROEM)
---------------------------------
  P      0.000000    1.110000   -0.085800
  P      0.000000   -1.110000   -0.085800
  H     -0.202600    1.347800    1.290500
  H      1.404500    1.221600   -0.003200
  H      0.202600   -1.347800    1.290500
  H     -1.404500   -1.221600   -0.003200

----------------------------
CARTESIAN COORDINATES (A.U.)
----------------------------
  NO LB      ZA    FRAG     MASS         X           Y           Z
   0 P    15.0000    0    30.974    0.000000    2.097596   -0.162139
   1 P    15.0000    0    30.974    0.000000   -2.097596   -0.162139
   2 H     1.0000    0     1.008   -0.382859    2.546973    2.438692
   3 H     1.0000    0     1.008    2.654120    2.308489   -0.006047
   4 H     1.0000    0     1.008    0.382859   -2.546973    2.438692
   5 H     1.0000    0     1.008   -2.654120   -2.308489   -0.006047

--------------------------------
INTERNAL COORDINATES (ANGSTROEM)
--------------------------------
 P      0   0   0     0.000000000000     0.00000000     0.00000000
 P      1   0   0     2.220000000000     0.00000000     0.00000000
 H      1   2   0     1.411310486746    99.70037775     0.00000000
 H      1   2   3     1.411346013563    94.53530967    95.00841236
 H      2   1   3     1.411310486746    99.70037775   343.25168878
 H      2   1   3     1.411346013563    94.53530967    78.26010115

---------------------------
INTERNAL COORDINATES (A.U.)
---------------------------
 P      0   0   0     0.000000000000     0.00000000     0.00000000
 P      1   0   0     4.195192017305     0.00000000     0.00000000
 H      1   2   0     2.666990309882    99.70037775     0.00000000
 H      1   2   3     2.667057445835    94.53530967    95.00841236
 H      2   1   3     2.666990309882    99.70037775   343.25168878
 H      2   1   3     2.667057445835    94.53530967    78.26010115

---------------------
BASIS SET INFORMATION
---------------------
There are 2 groups of distinct atoms

 Group   1 Type P   : 44s27p7d4f3g2h contracted to 8s7p7d4f3g2h pattern {15121211111/111111111/1111111/1111/111/11}
 Group   2 Type H   : 12s7p4d3f2g contracted to 8s7p4d3f2g pattern {51111111/1111111/1111/111/11}

Atom   0P    basis set group =>   1
Atom   1P    basis set group =>   1
Atom   2H    basis set group =>   2
Atom   3H    basis set group =>   2
Atom   4H    basis set group =>   2
Atom   5H    basis set group =>   2


           ************************************************************
           *        Program running with 4 parallel MPI-processes     *
           *              working on a common directory               *
           ************************************************************
------------------------------------------------------------------------------
                           ORCA GTO INTEGRAL CALCULATION
------------------------------------------------------------------------------

                         BASIS SET STATISTICS AND STARTUP INFO

 # of primitive gaussian shells          ...  286
 # of primitive gaussian functions       ...  842
 # of contracted shells                  ...  158
 # of contracted basis functions         ...  634
 Highest angular momentum                ...    5
 Maximum contraction depth               ...   15
 Integral package used                   ... LIBINT
 Integral threshhold            Thresh   ...  1.000e-12
 Primitive cut-off              TCut     ...  1.000e-14


------------------------------ INTEGRAL EVALUATION ----------------------------


 * One electron integrals 
 Pre-screening matrix                    ... done
 Shell pair data                         ... done (   0.005 sec)



           ************************************************************
           *        Program running with 4 parallel MPI-processes     *
           *              working on a common directory               *
           ************************************************************
-------------------------------------------------------------------------------
                                 ORCA SCF
-------------------------------------------------------------------------------

------------
SCF SETTINGS
------------
Hamiltonian:
 Density Functional     Method          .... DFT(GTOs)
 Exchange Functional    Exchange        .... PBE
   PBE kappa parameter   XKappa         ....  0.804000
   PBE mue parameter    XMuePBE         ....  0.219520
 Correlation Functional Correlation     .... PBE
   PBE beta parameter  CBetaPBE         ....  0.066725
 LDA part of GGA corr.  LDAOpt          .... PW91-LDA
 Gradients option       PostSCFGGA      .... off
   Density functional embedding theory  .... OFF
   NL short-range parameter             ....  6.400000


General Settings:
 Integral files         IntName         .... p2h4_pbe
 Hartree-Fock type      HFTyp           .... UHF
 Total Charge           Charge          ....    0
 Multiplicity           Mult            ....    1
 Number of Electrons    NEL             ....   34
 Basis Dimension        Dim             ....  634
 Nuclear Repulsion      ENuc            ....     88.7684447595 Eh

Convergence Acceleration:
 DIIS                   CNVDIIS         .... on
   Start iteration      DIISMaxIt       ....    12
   Startup error        DIISStart       ....  0.200000
   # of expansion vecs  DIISMaxEq       ....     5
   Bias factor          DIISBfac        ....   1.050
   Max. coefficient     DIISMaxC        ....  10.000
 Newton-Raphson         CNVNR           .... off
 SOSCF                  CNVSOSCF        .... off
 Level Shifting         CNVShift        .... on
   Level shift para.    LevelShift      ....    0.2500
   Turn off err/grad.   ShiftErr        ....    0.0010
 Zerner damping         CNVZerner       .... off
 Static damping         CNVDamp         .... on
   Fraction old density DampFac         ....    0.7000
   Max. Damping (<1)    DampMax         ....    0.9800
   Min. Damping (>=0)   DampMin         ....    0.0000
   Turn off err/grad.   DampErr         ....    0.1000
 Fernandez-Rico         CNVRico         .... off

SCF Procedure:
 Maximum # iterations   MaxIter         ....   200
 SCF integral mode      SCFMode         .... Direct
   Integral package                     .... LIBINT
 Reset frequency        DirectResetFreq ....    20
 Integral Threshold     Thresh          ....  1.000e-12 Eh
 Primitive CutOff       TCut            ....  1.000e-14 Eh

Convergence Tolerance:
 Convergence Check Mode ConvCheckMode   .... Total+1el-Energy
 Convergence forced     ConvForced      .... 0
 Energy Change          TolE            ....  1.000e-09 Eh
 1-El. energy change                    ....  1.000e-06 Eh
 DIIS Error             TolErr          ....  1.000e-08


Diagonalization of the overlap matrix:
Smallest eigenvalue                        ... 2.721e-07
Time for diagonalization                   ...    0.105 sec
Threshold for overlap eigenvalues          ... 1.000e-08
Number of eigenvalues below threshold      ... 0
Time for construction of square roots      ...    0.060 sec
Total time needed                          ...    0.167 sec

-------------------
DFT GRID GENERATION
-------------------

General Integration Accuracy     IntAcc      ...  5.010
Radial Grid Type                 RadialGrid  ... Gauss-Chebyshev
Angular Grid (max. acc.)         AngularGrid ... Lebedev-434
Angular grid pruning method      GridPruning ... 3 (G Style)
Weight generation scheme         WeightScheme... Becke
Basis function cutoff            BFCut       ...    1.0000e-12
Integration weight cutoff        WCut        ...    1.0000e-14
Grids for H and He will be reduced by one unit

# of grid points (after initial pruning)     ...  50032 (   0.0 sec)
# of grid points (after weights+screening)   ...  48590 (   0.0 sec)
nearest neighbour list constructed           ...    0.0 sec
Grid point re-assignment to atoms done       ...    0.0 sec
Grid point division into batches done        ...    0.3 sec
Reduced shell lists constructed in    0.6 sec

Total number of grid points                  ...    48590
Total number of batches                      ...      762
Average number of points per batch           ...       63
Average number of grid points per atom       ...     8098
Average number of shells per batch           ...   115.75 (73.26%)
Average number of basis functions per batch  ...   477.35 (75.29%)
Average number of large shells per batch     ...   101.97 (88.10%)
Average number of large basis fcns per batch ...   422.04 (88.41%)
Maximum spatial batch extension              ...  15.07, 16.75, 17.22 au
Average spatial batch extension              ...   0.54,  0.57,  0.59 au

Time for grid setup =    0.641 sec

------------------------------
INITIAL GUESS: MODEL POTENTIAL
------------------------------
Loading Hartree-Fock densities                     ... done
Calculating cut-offs                               ... done
Setting up the integral package                    ... done
Initializing the effective Hamiltonian             ... done
Starting the Coulomb interaction                   ... done (   0.1 sec)
Reading the grid                                   ... done
Mapping shells                                     ... done
Starting the XC term evaluation                    ... done (   1.7 sec)
  promolecular density results
     # of electrons  =     33.998032992
     EX              =    -46.193186890
     EC              =     -1.250939812
     EX+EC           =    -47.444126702
Transforming the Hamiltonian                       ... done (   0.1 sec)
Diagonalizing the Hamiltonian                      ... done (   0.1 sec)
Back transforming the eigenvectors                 ... done (   0.0 sec)
Now organizing SCF variables                       ... done
                      ------------------
                      INITIAL GUESS DONE (   2.8 sec)
                      ------------------
--------------
SCF ITERATIONS
--------------
ITER       Energy         Delta-E        Max-DP      RMS-DP      [F,P]     Damp
               ***  Starting incremental Fock matrix formation  ***
  0   -684.8084787840   0.000000000000 0.01136042  0.00011345  0.0420661 0.7000
  1   -684.8135311410  -0.005052356979 0.01132634  0.00008939  0.0255705 0.7000
                               ***Turning on DIIS***
  2   -684.8163205797  -0.002789438699 0.02859849  0.00020282  0.0151218 0.0000
  3   -684.8203280107  -0.004007431024 0.00814873  0.00005402  0.0120158 0.0000
  4   -684.8211331743  -0.000805163572 0.00328026  0.00002406  0.0025298 0.0000
  5   -684.8211767187  -0.000043544373 0.00101107  0.00001041  0.0006436 0.0000
  6   -684.8211808157  -0.000004097052 0.00018019  0.00000173  0.0001975 0.0000
  7   -684.8211810947  -0.000000279008 0.00002323  0.00000037  0.0001427 0.0000
  8   -684.8211811680  -0.000000073323 0.00001866  0.00000015  0.0000220 0.0000
  9   -684.8211811708  -0.000000002766 0.00002032  0.00000012  0.0000052 0.0000
 10   -684.8211811710  -0.000000000239 0.00004963  0.00000032  0.0000017 0.0000
 11   -684.8211811711  -0.000000000008 0.00007930  0.00000042  0.0000005 0.0000
 12   -684.8211811711  -0.000000000004 0.00004902  0.00000038  0.0000001 0.0000
                 **** Energy Check signals convergence ****

               *****************************************************
               *                     SUCCESS                       *
               *           SCF CONVERGED AFTER  13 CYCLES          *
               *****************************************************


----------------
TOTAL SCF ENERGY
----------------

Total Energy       :         -684.82118117 Eh          -18634.93172 eV

Components:
Nuclear Repulsion  :           88.76844476 Eh            2415.51218 eV
Electronic Energy  :         -773.58962593 Eh          -21050.44391 eV
One Electron Energy:        -1123.43383196 Eh          -30570.18873 eV
Two Electron Energy:          349.84420603 Eh            9519.74482 eV

Virial components:
Potential Energy   :        -1369.06259640 Eh          -37254.08721 eV
Kinetic Energy     :          684.24141522 Eh           18619.15549 eV
Virial Ratio       :            2.00084731


DFT components:
N(Alpha)           :       16.999997040192 electrons
N(Beta)            :       16.999997040192 electrons
N(Total)           :       33.999994080384 electrons
E(X)               :      -46.380343820640 Eh       
E(C)               :       -1.247052911910 Eh       
E(XC)              :      -47.627396732550 Eh       
DFET-embed. en.    :        0.000000000000 Eh       

---------------
SCF CONVERGENCE
---------------

  Last Energy change         ...    8.6402e-12  Tolerance :   1.0000e-09
  Last MAX-Density change    ...    3.5178e-05  Tolerance :   1.0000e-08
  Last RMS-Density change    ...    2.1223e-07  Tolerance :   1.0000e-09
  Last DIIS Error            ...    3.5806e-08  Tolerance :   1.0000e-08

             **** THE GBW FILE WAS UPDATED (p2h4_pbe.gbw) ****
             **** DENSITY FILE WAS UPDATED (p2h4_pbe.scfp.tmp) ****
             **** ENERGY FILE WAS UPDATED (p2h4_pbe.en.tmp) ****
----------------------
UHF SPIN CONTAMINATION
----------------------

Warning: in a DFT calculation there is little theoretical justification to 
         calculate <S**2> as in Hartree-Fock theory. We will do it anyways
         but you should keep in mind that the values have only limited relevance

Expectation value of <S**2>     :     0.000000
Ideal value S*(S+1) for S=0.0   :     0.000000
Deviation                       :     0.000000

----------------
ORBITAL ENERGIES
----------------
                 SPIN UP ORBITALS
  NO   OCC          E(Eh)            E(eV) 
   0   1.0000     -76.287526     -2075.8891 
   1   1.0000     -76.287526     -2075.8891 
   2   1.0000      -6.307659      -171.6401 
   3   1.0000      -6.307611      -171.6388 
   4   1.0000      -4.523696      -123.0960 
   5   1.0000      -4.523416      -123.0884 
   6   1.0000      -4.522964      -123.0761 
   7   1.0000      -4.522960      -123.0760 
   8   1.0000      -4.519046      -122.9695 
   9   1.0000      -4.518997      -122.9682 
  10   1.0000      -0.625130       -17.0106 
  11   1.0000      -0.533839       -14.5265 
  12   1.0000      -0.363721        -9.8973 
  13   1.0000      -0.362552        -9.8655 
  14   1.0000      -0.318425        -8.6648 
  15   1.0000      -0.246844        -6.7170 
  16   1.0000      -0.235926        -6.4199 
  17   0.0000      -0.045139        -1.2283 
  18   0.0000      -0.039612        -1.0779 
  19   0.0000      -0.028968        -0.7883 
  20   0.0000      -0.004156        -0.1131 
  21   0.0000       0.009838         0.2677 
  22   0.0000       0.010587         0.2881 
  23   0.0000       0.011362         0.3092 
  24   0.0000       0.012412         0.3377 
  25   0.0000       0.028080         0.7641 
  26   0.0000       0.029501         0.8028 
  27   0.0000       0.029746         0.8094 
  28   0.0000       0.036860         1.0030 
  29   0.0000       0.039237         1.0677 
  30   0.0000       0.044439         1.2092 
  31   0.0000       0.054227         1.4756 
  32   0.0000       0.058104         1.5811 
  33   0.0000       0.059853         1.6287 
  34   0.0000       0.063572         1.7299 
  35   0.0000       0.067347         1.8326 
  36   0.0000       0.074344         2.0230 
  37   0.0000       0.074387         2.0242 
  38   0.0000       0.083278         2.2661 
  39   0.0000       0.087035         2.3683 
  40   0.0000       0.088453         2.4069 
  41   0.0000       0.098913         2.6916 
  42   0.0000       0.105832         2.8798 
  43   0.0000       0.107974         2.9381 
  44   0.0000       0.113144         3.0788 
  45   0.0000       0.117794         3.2053 
  46   0.0000       0.121044         3.2938 
  47   0.0000       0.131705         3.5839 
  48   0.0000       0.132929         3.6172 
  49   0.0000       0.138707         3.7744 
  50   0.0000       0.139863         3.8059 
  51   0.0000       0.142477         3.8770 
  52   0.0000       0.143368         3.9012 
  53   0.0000       0.145698         3.9646 
  54   0.0000       0.146719         3.9924 
  55   0.0000       0.147745         4.0204 
  56   0.0000       0.151935         4.1344 
  57   0.0000       0.166422         4.5286 
  58   0.0000       0.168148         4.5755 
  59   0.0000       0.170245         4.6326 
  60   0.0000       0.180758         4.9187 
  61   0.0000       0.186459         5.0738 
  62   0.0000       0.190988         5.1970 
  63   0.0000       0.201626         5.4865 
  64   0.0000       0.204129         5.5546 
  65   0.0000       0.208210         5.6657 
  66   0.0000       0.216543         5.8924 
  67   0.0000       0.217193         5.9101 
  68   0.0000       0.222421         6.0524 
  69   0.0000       0.224118         6.0986 
  70   0.0000       0.232116         6.3162 
  71   0.0000       0.237512         6.4630 
  72   0.0000       0.240413         6.5420 
  73   0.0000       0.243140         6.6162 
  74   0.0000       0.249571         6.7912 
  75   0.0000       0.253217         6.8904 
  76   0.0000       0.257004         6.9934 
  77   0.0000       0.258847         7.0436 
  78   0.0000       0.261894         7.1265 
  79   0.0000       0.263825         7.1790 
  80   0.0000       0.271757         7.3949 
  81   0.0000       0.273843         7.4517 
  82   0.0000       0.277412         7.5488 
  83   0.0000       0.278465         7.5774 
  84   0.0000       0.281502         7.6601 
  85   0.0000       0.284767         7.7489 
  86   0.0000       0.289463         7.8767 
  87   0.0000       0.294702         8.0193 
  88   0.0000       0.295548         8.0423 
  89   0.0000       0.297894         8.1061 
  90   0.0000       0.298436         8.1209 
  91   0.0000       0.308357         8.3908 
  92   0.0000       0.313450         8.5294 
  93   0.0000       0.319706         8.6996 
  94   0.0000       0.321659         8.7528 
  95   0.0000       0.326045         8.8721 
  96   0.0000       0.327679         8.9166 
  97   0.0000       0.328658         8.9432 
  98   0.0000       0.332851         9.0573 
  99   0.0000       0.336706         9.1622 
 100   0.0000       0.345681         9.4064 
 101   0.0000       0.357006         9.7146 
 102   0.0000       0.365433         9.9439 
 103   0.0000       0.365731         9.9521 
 104   0.0000       0.371488        10.1087 
 105   0.0000       0.376371        10.2416 
 106   0.0000       0.384475        10.4621 
 107   0.0000       0.389143        10.5891 
 108   0.0000       0.393120        10.6974 
 109   0.0000       0.394092        10.7238 
 110   0.0000       0.402607        10.9555 
 111   0.0000       0.408033        11.1032 
 112   0.0000       0.420400        11.4397 
 113   0.0000       0.424291        11.5455 
 114   0.0000       0.429161        11.6781 
 115   0.0000       0.435502        11.8506 
 116   0.0000       0.437465        11.9040 
 117   0.0000       0.447507        12.1773 
 118   0.0000       0.448364        12.2006 
 119   0.0000       0.450696        12.2641 
 120   0.0000       0.457951        12.4615 
 121   0.0000       0.467545        12.7226 
 122   0.0000       0.469861        12.7856 
 123   0.0000       0.471347        12.8260 
 124   0.0000       0.472036        12.8448 
 125   0.0000       0.473431        12.8827 
 126   0.0000       0.474313        12.9067 
 127   0.0000       0.478605        13.0235 
 128   0.0000       0.481594        13.1048 
 129   0.0000       0.484494        13.1837 
 130   0.0000       0.489096        13.3090 
 131   0.0000       0.493494        13.4286 
 132   0.0000       0.497100        13.5268 
 133   0.0000       0.498635        13.5685 
 134   0.0000       0.504069        13.7164 
 135   0.0000       0.508358        13.8331 
 136   0.0000       0.511697        13.9240 
 137   0.0000       0.519544        14.1375 
 138   0.0000       0.525089        14.2884 
 139   0.0000       0.526426        14.3248 
 140   0.0000       0.535567        14.5735 
 141   0.0000       0.538691        14.6585 
 142   0.0000       0.546762        14.8782 
 143   0.0000       0.546998        14.8846 
 144   0.0000       0.551040        14.9946 
 145   0.0000       0.554471        15.0879 
 146   0.0000       0.560182        15.2433 
 147   0.0000       0.566227        15.4078 
 148   0.0000       0.567289        15.4367 
 149   0.0000       0.571144        15.5416 
 150   0.0000       0.579126        15.7588 
 151   0.0000       0.582578        15.8527 
 152   0.0000       0.586467        15.9586 
 153   0.0000       0.590460        16.0672 
 154   0.0000       0.591668        16.1001 
 155   0.0000       0.599007        16.2998 
 156   0.0000       0.601428        16.3657 
 157   0.0000       0.603204        16.4140 
 158   0.0000       0.608337        16.5537 
 159   0.0000       0.621871        16.9220 
 160   0.0000       0.622135        16.9292 
 161   0.0000       0.632781        17.2188 
 162   0.0000       0.642060        17.4713 
 163   0.0000       0.644954        17.5501 
 164   0.0000       0.650995        17.7145 
 165   0.0000       0.652108        17.7448 
 166   0.0000       0.662418        18.0253 
 167   0.0000       0.665865        18.1191 
 168   0.0000       0.668513        18.1912 
 169   0.0000       0.682032        18.5590 
 170   0.0000       0.689353        18.7583 
 171   0.0000       0.699244        19.0274 
 172   0.0000       0.699781        19.0420 
 173   0.0000       0.705856        19.2073 
 174   0.0000       0.709286        19.3006 
 175   0.0000       0.713652        19.4195 
 176   0.0000       0.717064        19.5123 
 177   0.0000       0.720216        19.5981 
 178   0.0000       0.735091        20.0028 
 179   0.0000       0.735638        20.0177 
 180   0.0000       0.738189        20.0872 
 181   0.0000       0.740949        20.1623 
 182   0.0000       0.748073        20.3561 
 183   0.0000       0.754567        20.5328 
 184   0.0000       0.761062        20.7095 
 185   0.0000       0.768820        20.9207 
 186   0.0000       0.777465        21.1559 
 187   0.0000       0.778499        21.1840 
 188   0.0000       0.784352        21.3433 
 189   0.0000       0.784624        21.3507 
 190   0.0000       0.787875        21.4392 
 191   0.0000       0.791116        21.5274 
 192   0.0000       0.797867        21.7111 
 193   0.0000       0.802209        21.8292 
 194   0.0000       0.802682        21.8421 
 195   0.0000       0.811882        22.0924 
 196   0.0000       0.813466        22.1355 
 197   0.0000       0.813507        22.1366 
 198   0.0000       0.822679        22.3862 
 199   0.0000       0.824866        22.4458 
 200   0.0000       0.826800        22.4984 
 201   0.0000       0.831515        22.6267 
 202   0.0000       0.842561        22.9272 
 203   0.0000       0.848784        23.0966 
 204   0.0000       0.852626        23.2011 
 205   0.0000       0.857026        23.3209 
 206   0.0000       0.859769        23.3955 
 207   0.0000       0.863854        23.5067 
 208   0.0000       0.868195        23.6248 
 209   0.0000       0.871596        23.7173 
 210   0.0000       0.872982        23.7550 
 211   0.0000       0.881867        23.9968 
 212   0.0000       0.885717        24.1016 
 213   0.0000       0.890448        24.2303 
 214   0.0000       0.892876        24.2964 
 215   0.0000       0.894221        24.3330 
 216   0.0000       0.906238        24.6600 
 217   0.0000       0.908572        24.7235 
 218   0.0000       0.912933        24.8422 
 219   0.0000       0.917892        24.9771 
 220   0.0000       0.919689        25.0260 
 221   0.0000       0.923423        25.1276 
 222   0.0000       0.928263        25.2593 
 223   0.0000       0.932656        25.3789 
 224   0.0000       0.941978        25.6325 
 225   0.0000       0.948221        25.8024 
 226   0.0000       0.952405        25.9162 
 227   0.0000       0.955286        25.9946 
 228   0.0000       0.958098        26.0712 
 229   0.0000       0.966455        26.2986 
 230   0.0000       0.968972        26.3671 
 231   0.0000       0.974792        26.5254 
 232   0.0000       0.977076        26.5876 
 233   0.0000       0.983048        26.7501 
 234   0.0000       0.993308        27.0293 
 235   0.0000       0.994214        27.0539 
 236   0.0000       1.006644        27.3922 
 237   0.0000       1.025408        27.9028 
 238   0.0000       1.058345        28.7990 
 239   0.0000       1.065763        29.0009 
 240   0.0000       1.085698        29.5433 
 241   0.0000       1.104174        30.0461 
 242   0.0000       1.115021        30.3413 
 243   0.0000       1.117177        30.3999 
 244   0.0000       1.128027        30.6952 
 245   0.0000       1.129117        30.7248 
 246   0.0000       1.148724        31.2584 
 247   0.0000       1.170850        31.8604 
 248   0.0000       1.206507        32.8307 
 249   0.0000       1.231932        33.5226 
 250   0.0000       1.237025        33.6612 
 251   0.0000       1.240789        33.7636 
 252   0.0000       1.249224        33.9931 
 253   0.0000       1.266304        34.4579 
 254   0.0000       1.279911        34.8281 
 255   0.0000       1.288212        35.0540 
 256   0.0000       1.298938        35.3459 
 257   0.0000       1.305361        35.5207 
 258   0.0000       1.308798        35.6142 
 259   0.0000       1.342629        36.5348 
 260   0.0000       1.361151        37.0388 
 261   0.0000       1.386099        37.7177 
 262   0.0000       1.398114        38.0446 
 263   0.0000       1.416846        38.5543 
 264   0.0000       1.418115        38.5889 
 265   0.0000       1.429522        38.8993 
 266   0.0000       1.455930        39.6179 
 267   0.0000       1.458957        39.7002 
 268   0.0000       1.472903        40.0797 
 269   0.0000       1.488154        40.4947 
 270   0.0000       1.500606        40.8336 
 271   0.0000       1.509434        41.0738 
 272   0.0000       1.518909        41.3316 
 273   0.0000       1.527629        41.5689 
 274   0.0000       1.544832        42.0370 
 275   0.0000       1.550146        42.1816 
 276   0.0000       1.563123        42.5347 
 277   0.0000       1.567053        42.6417 
 278   0.0000       1.574544        42.8455 
 279   0.0000       1.606761        43.7222 
 280   0.0000       1.609072        43.7851 
 281   0.0000       1.610704        43.8295 
 282   0.0000       1.620708        44.1017 
 283   0.0000       1.636071        44.5198 
 284   0.0000       1.637389        44.5556 
 285   0.0000       1.650639        44.9162 
 286   0.0000       1.690193        45.9925 
 287   0.0000       1.693633        46.0861 
 288   0.0000       1.734171        47.1892 
 289   0.0000       1.735635        47.2290 
 290   0.0000       1.763815        47.9958 
 291   0.0000       1.765363        48.0380 
 292   0.0000       1.780325        48.4451 
 293   0.0000       1.829091        49.7721 
 294   0.0000       1.846157        50.2365 
 295   0.0000       1.873933        50.9923 
 296   0.0000       1.877032        51.0766 
 297   0.0000       1.889042        51.4034 
 298   0.0000       1.891897        51.4811 
 299   0.0000       1.918610        52.2080 
 300   0.0000       1.921660        52.2910 
 301   0.0000       1.937200        52.7139 
 302   0.0000       2.201793        59.9138 
 303   0.0000       2.215862        60.2967 
 304   0.0000       2.230623        60.6983 
 305   0.0000       2.269596        61.7588 
 306   0.0000       2.298438        62.5437 
 307   0.0000       2.305731        62.7421 
 308   0.0000       2.306097        62.7521 
 309   0.0000       2.336522        63.5800 
 310   0.0000       2.356513        64.1240 
 311   0.0000       2.382535        64.8321 
 312   0.0000       2.405134        65.4470 
 313   0.0000       2.410846        65.6024 
 314   0.0000       2.464850        67.0720 
 315   0.0000       2.467826        67.1530 
 316   0.0000       2.508675        68.2645 
 317   0.0000       2.510657        68.3185 
 318   0.0000       2.558733        69.6267 
 319   0.0000       2.606523        70.9271 
 320   0.0000       2.638917        71.8086 
 321   0.0000       2.669860        72.6506 
 322   0.0000       2.702398        73.5360 
 323   0.0000       2.716252        73.9130 
 324   0.0000       2.718058        73.9621 
 325   0.0000       2.758026        75.0497 
 326   0.0000       2.780925        75.6728 
 327   0.0000       2.829149        76.9850 
 328   0.0000       2.841574        77.3232 
 329   0.0000       2.856367        77.7257 
 330   0.0000       2.872878        78.1750 
 331   0.0000       2.887885        78.5833 
 332   0.0000       2.918348        79.4123 
 333   0.0000       2.967654        80.7540 
 334   0.0000       2.986549        81.2681 
 335   0.0000       2.996490        81.5387 
 336   0.0000       3.034823        82.5817 
 337   0.0000       3.054351        83.1131 
 338   0.0000       3.056130        83.1615 
 339   0.0000       3.075501        83.6886 
 340   0.0000       3.084365        83.9298 
 341   0.0000       3.092551        84.1526 
 342   0.0000       3.115815        84.7856 
 343   0.0000       3.117172        84.8226 
 344   0.0000       3.134726        85.3002 
 345   0.0000       3.164055        86.0983 
 346   0.0000       3.178407        86.4888 
 347   0.0000       3.186547        86.7103 
 348   0.0000       3.202216        87.1367 
 349   0.0000       3.222398        87.6859 
 350   0.0000       3.234542        88.0164 
 351   0.0000       3.287876        89.4677 
 352   0.0000       3.321551        90.3840 
 353   0.0000       3.338224        90.8377 
 354   0.0000       3.363699        91.5309 
 355   0.0000       3.416068        92.9559 
 356   0.0000       3.420573        93.0785 
 357   0.0000       3.445524        93.7575 
 358   0.0000       3.469478        94.4093 
 359   0.0000       3.482140        94.7538 
 360   0.0000       3.522981        95.8652 
 361   0.0000       3.531605        96.0999 
 362   0.0000       3.550440        96.6124 
 363   0.0000       3.566032        97.0367 
 364   0.0000       3.590280        97.6965 
 365   0.0000       3.611463        98.2729 
 366   0.0000       3.622510        98.5735 
 367   0.0000       3.637992        98.9948 
 368   0.0000       3.650806        99.3435 
 369   0.0000       3.671218        99.8989 
 370   0.0000       3.673744        99.9677 
 371   0.0000       3.674769        99.9956 
 372   0.0000       3.695007       100.5462 
 373   0.0000       3.703253       100.7706 
 374   0.0000       3.709407       100.9381 
 375   0.0000       3.739458       101.7558 
 376   0.0000       3.752585       102.1130 
 377   0.0000       3.766088       102.4805 
 378   0.0000       3.775583       102.7388 
 379   0.0000       3.798236       103.3553 
 380   0.0000       3.800299       103.4114 
 381   0.0000       3.813689       103.7758 
 382   0.0000       3.821015       103.9751 
 383   0.0000       3.881679       105.6259 
 384   0.0000       3.888854       105.8211 
 385   0.0000       3.937480       107.1443 
 386   0.0000       3.962766       107.8324 
 387   0.0000       3.974869       108.1617 
 388   0.0000       3.997926       108.7891 
 389   0.0000       4.005703       109.0007 
 390   0.0000       4.043441       110.0276 
 391   0.0000       4.119807       112.1057 
 392   0.0000       4.135661       112.5370 
 393   0.0000       4.150657       112.9451 
 394   0.0000       4.189568       114.0039 
 395   0.0000       4.266646       116.1013 
 396   0.0000       4.301534       117.0507 
 397   0.0000       4.304044       117.1190 
 398   0.0000       4.376924       119.1022 
 399   0.0000       4.443772       120.9212 
 400   0.0000       4.497220       122.3756 
 401   0.0000       4.518209       122.9467 
 402   0.0000       4.556526       123.9894 
 403   0.0000       4.643628       126.3595 
 404   0.0000       4.835645       131.5846 
 405   0.0000       4.857334       132.1748 
 406   0.0000       4.867503       132.4515 
 407   0.0000       4.928206       134.1033 
 408   0.0000       4.975924       135.4018 
 409   0.0000       5.046980       137.3353 
 410   0.0000       5.072924       138.0413 
 411   0.0000       5.084859       138.3661 
 412   0.0000       5.127394       139.5235 
 413   0.0000       5.150172       140.1433 
 414   0.0000       5.174352       140.8013 
 415   0.0000       5.177365       140.8833 
 416   0.0000       5.199440       141.4840 
 417   0.0000       5.287352       143.8762 
 418   0.0000       5.301909       144.2723 
 419   0.0000       5.322055       144.8205 
 420   0.0000       5.375612       146.2778 
 421   0.0000       5.387008       146.5879 
 422   0.0000       5.433249       147.8462 
 423   0.0000       5.445897       148.1904 
 424   0.0000       5.469109       148.8220 
 425   0.0000       5.518027       150.1532 
 426   0.0000       5.616513       152.8331 
 427   0.0000       5.669431       154.2731 
 428   0.0000       5.689914       154.8304 
 429   0.0000       5.711571       155.4197 
 430   0.0000       5.775346       157.1551 
 431   0.0000       5.789600       157.5430 
 432   0.0000       5.818676       158.3342 
 433   0.0000       5.820200       158.3757 
 434   0.0000       5.854292       159.3034 
 435   0.0000       5.867341       159.6585 
 436   0.0000       5.981731       162.7712 
 437   0.0000       5.990422       163.0077 
 438   0.0000       6.060980       164.9276 
 439   0.0000       6.212459       169.0496 
 440   0.0000       6.299095       171.4071 
 441   0.0000       6.305537       171.5824 
 442   0.0000       6.344459       172.6415 
 443   0.0000       6.346738       172.7035 
 444   0.0000       6.447755       175.4523 
 445   0.0000       6.563124       178.5917 
 446   0.0000       6.571432       178.8178 
 447   0.0000       6.827630       185.7893 
 448   0.0000       6.829721       185.8461 
 449   0.0000       6.898295       187.7122 
 450   0.0000       7.161004       194.8608 
 451   0.0000       7.329919       199.4572 
 452   0.0000       7.460879       203.0208 
 453   0.0000       7.500058       204.0870 
 454   0.0000       7.548612       205.4082 
 455   0.0000       7.676394       208.8853 
 456   0.0000       7.695655       209.4094 
 457   0.0000       7.719966       210.0710 
 458   0.0000       7.769111       211.4082 
 459   0.0000       7.783473       211.7991 
 460   0.0000       7.850043       213.6105 
 461   0.0000       7.850612       213.6260 
 462   0.0000       7.952445       216.3970 
 463   0.0000       7.976596       217.0542 
 464   0.0000       8.019882       218.2321 
 465   0.0000       8.114663       220.8112 
 466   0.0000       8.149922       221.7707 
 467   0.0000       8.184488       222.7112 
 468   0.0000       8.239682       224.2131 
 469   0.0000       8.285804       225.4682 
 470   0.0000       8.544426       232.5056 
 471   0.0000       8.550188       232.6624 
 472   0.0000       8.567597       233.1362 
 473   0.0000       8.568878       233.1710 
 474   0.0000       8.607976       234.2349 
 475   0.0000       8.613242       234.3782 
 476   0.0000       8.635448       234.9825 
 477   0.0000       8.687484       236.3985 
 478   0.0000       8.894078       242.0202 
 479   0.0000       8.924413       242.8456 
 480   0.0000       8.964323       243.9316 
 481   0.0000       8.973932       244.1931 
 482   0.0000       8.986509       244.5353 
 483   0.0000       9.000438       244.9144 
 484   0.0000       9.029490       245.7049 
 485   0.0000       9.055162       246.4035 
 486   0.0000       9.151661       249.0293 
 487   0.0000       9.160869       249.2799 
 488   0.0000       9.183181       249.8870 
 489   0.0000       9.227589       251.0955 
 490   0.0000       9.300026       253.0666 
 491   0.0000       9.331095       253.9120 
 492   0.0000       9.335911       254.0431 
 493   0.0000       9.403313       255.8772 
 494   0.0000       9.409758       256.0525 
 495   0.0000       9.434998       256.7393 
 496   0.0000       9.476034       257.8560 
 497   0.0000       9.523034       259.1349 
 498   0.0000       9.701193       263.9829 
 499   0.0000       9.767064       265.7753 
 500   0.0000       9.780668       266.1455 
 501   0.0000       9.790071       266.4014 
 502   0.0000      10.414229       283.3856 
 503   0.0000      10.422665       283.6151 
 504   0.0000      10.735471       292.1270 
 505   0.0000      10.735968       292.1405 
 506   0.0000      10.851382       295.2811 
 507   0.0000      10.854691       295.3712 
 508   0.0000      10.915447       297.0244 
 509   0.0000      10.948579       297.9260 
 510   0.0000      11.001675       299.3708 
 511   0.0000      11.007954       299.5416 
 512   0.0000      11.278901       306.9145 
 513   0.0000      11.290747       307.2368 
 514   0.0000      11.409447       310.4668 
 515   0.0000      11.428663       310.9897 
 516   0.0000      11.631917       316.5206 
 517   0.0000      11.715632       318.7985 
 518   0.0000      11.881231       323.3047 
 519   0.0000      11.909313       324.0689 
 520   0.0000      12.326079       335.4097 
 521   0.0000      12.332770       335.5917 
 522   0.0000      12.361297       336.3680 
 523   0.0000      12.366895       336.5203 
 524   0.0000      12.368599       336.5667 
 525   0.0000      12.372705       336.6784 
 526   0.0000      12.381270       336.9115 
 527   0.0000      12.404368       337.5400 
 528   0.0000      12.534997       341.0946 
 529   0.0000      12.565381       341.9214 
 530   0.0000      12.680917       345.0653 
 531   0.0000      12.689315       345.2938 
 532   0.0000      12.716119       346.0232 
 533   0.0000      12.732185       346.4604 
 534   0.0000      12.766796       347.4022 
 535   0.0000      12.773733       347.5910 
 536   0.0000      12.990233       353.4822 
 537   0.0000      13.028180       354.5148 
 538   0.0000      13.028596       354.5261 
 539   0.0000      13.051689       355.1545 
 540   0.0000      13.059036       355.3544 
 541   0.0000      13.085815       356.0831 
 542   0.0000      13.132528       357.3542 
 543   0.0000      13.134001       357.3943 
 544   0.0000      13.453311       366.0832 
 545   0.0000      13.454822       366.1243 
 546   0.0000      13.653366       371.5270 
 547   0.0000      13.675922       372.1408 
 548   0.0000      16.147010       439.3825 
 549   0.0000      16.155712       439.6193 
 550   0.0000      16.211919       441.1488 
 551   0.0000      16.220317       441.3773 
 552   0.0000      16.340010       444.6343 
 553   0.0000      16.344345       444.7522 
 554   0.0000      16.715778       454.8594 
 555   0.0000      16.718259       454.9270 
 556   0.0000      16.718474       454.9328 
 557   0.0000      16.720184       454.9793 
 558   0.0000      16.720907       454.9990 
 559   0.0000      16.721620       455.0184 
 560   0.0000      16.722874       455.0525 
 561   0.0000      16.723506       455.0697 
 562   0.0000      16.723986       455.0828 
 563   0.0000      16.725945       455.1361 
 564   0.0000      16.752405       455.8561 
 565   0.0000      16.757536       455.9957 
 566   0.0000      16.777353       456.5350 
 567   0.0000      16.782461       456.6740 
 568   0.0000      16.794260       456.9951 
 569   0.0000      16.795498       457.0287 
 570   0.0000      16.828879       457.9371 
 571   0.0000      16.857934       458.7277 
 572   0.0000      16.971606       461.8209 
 573   0.0000      16.973618       461.8756 
 574   0.0000      16.992171       462.3805 
 575   0.0000      17.007422       462.7955 
 576   0.0000      17.060194       464.2315 
 577   0.0000      17.060909       464.2509 
 578   0.0000      17.149467       466.6607 
 579   0.0000      17.158913       466.9178 
 580   0.0000      17.204127       468.1481 
 581   0.0000      17.204242       468.1512 
 582   0.0000      17.736906       482.6457 
 583   0.0000      17.748612       482.9643 
 584   0.0000      17.788531       484.0505 
 585   0.0000      17.813559       484.7316 
 586   0.0000      17.837699       485.3885 
 587   0.0000      17.842294       485.5135 
 588   0.0000      17.860689       486.0141 
 589   0.0000      17.975215       489.1305 
 590   0.0000      17.978680       489.2248 
 591   0.0000      18.016866       490.2638 
 592   0.0000      19.018151       517.5102 
 593   0.0000      19.019603       517.5497 
 594   0.0000      23.365395       635.8047 
 595   0.0000      23.371844       635.9802 
 596   0.0000      23.377100       636.1232 
 597   0.0000      23.381895       636.2537 
 598   0.0000      23.412006       637.0731 
 599   0.0000      23.428032       637.5092 
 600   0.0000      23.440836       637.8576 
 601   0.0000      23.495797       639.3531 
 602   0.0000      23.801015       647.6585 
 603   0.0000      23.821217       648.2083 
 604   0.0000      24.068945       654.9493 
 605   0.0000      24.077799       655.1902 
 606   0.0000      26.014114       707.8800 
 607   0.0000      26.782778       728.7965 
 608   0.0000      39.779926      1082.4668 
 609   0.0000      39.880932      1085.2153 
 610   0.0000      39.943950      1086.9301 
 611   0.0000      39.976624      1087.8192 
 612   0.0000      59.040520      1606.5742 
 613   0.0000      59.049171      1606.8096 
 614   0.0000      59.079669      1607.6395 
 615   0.0000      59.081974      1607.7023 
 616   0.0000      59.123198      1608.8240 
 617   0.0000      59.123426      1608.8302 
 618   0.0000      59.419807      1616.8952 
 619   0.0000      59.481105      1618.5631 
 620   0.0000      59.848639      1628.5643 
 621   0.0000      59.874370      1629.2644 
 622   0.0000      90.970063      2475.4213 
 623   0.0000      90.974008      2475.5286 
 624   0.0000      90.977747      2475.6304 
 625   0.0000      90.990492      2475.9772 
 626   0.0000      91.008661      2476.4716 
 627   0.0000      91.009132      2476.4844 
 628   0.0000      91.021996      2476.8344 
 629   0.0000      91.061300      2477.9039 
 630   0.0000      91.461569      2488.7958 
 631   0.0000      91.465362      2488.8990 
 632   0.0000      91.524190      2490.4998 
 633   0.0000      91.529572      2490.6463 

                 SPIN DOWN ORBITALS
  NO   OCC          E(Eh)            E(eV) 
   0   1.0000     -76.287526     -2075.8891 
   1   1.0000     -76.287526     -2075.8891 
   2   1.0000      -6.307659      -171.6401 
   3   1.0000      -6.307611      -171.6388 
   4   1.0000      -4.523696      -123.0960 
   5   1.0000      -4.523416      -123.0884 
   6   1.0000      -4.522964      -123.0761 
   7   1.0000      -4.522960      -123.0760 
   8   1.0000      -4.519046      -122.9695 
   9   1.0000      -4.518997      -122.9682 
  10   1.0000      -0.625130       -17.0106 
  11   1.0000      -0.533839       -14.5265 
  12   1.0000      -0.363721        -9.8973 
  13   1.0000      -0.362552        -9.8655 
  14   1.0000      -0.318425        -8.6648 
  15   1.0000      -0.246844        -6.7170 
  16   1.0000      -0.235926        -6.4199 
  17   0.0000      -0.045139        -1.2283 
  18   0.0000      -0.039612        -1.0779 
  19   0.0000      -0.028968        -0.7883 
  20   0.0000      -0.004156        -0.1131 
  21   0.0000       0.009838         0.2677 
  22   0.0000       0.010587         0.2881 
  23   0.0000       0.011362         0.3092 
  24   0.0000       0.012412         0.3377 
  25   0.0000       0.028080         0.7641 
  26   0.0000       0.029501         0.8028 
  27   0.0000       0.029746         0.8094 
  28   0.0000       0.036860         1.0030 
  29   0.0000       0.039237         1.0677 
  30   0.0000       0.044439         1.2092 
  31   0.0000       0.054227         1.4756 
  32   0.0000       0.058104         1.5811 
  33   0.0000       0.059853         1.6287 
  34   0.0000       0.063572         1.7299 
  35   0.0000       0.067347         1.8326 
  36   0.0000       0.074344         2.0230 
  37   0.0000       0.074387         2.0242 
  38   0.0000       0.083278         2.2661 
  39   0.0000       0.087035         2.3683 
  40   0.0000       0.088453         2.4069 
  41   0.0000       0.098913         2.6916 
  42   0.0000       0.105832         2.8798 
  43   0.0000       0.107974         2.9381 
  44   0.0000       0.113144         3.0788 
  45   0.0000       0.117794         3.2053 
  46   0.0000       0.121044         3.2938 
  47   0.0000       0.131705         3.5839 
  48   0.0000       0.132929         3.6172 
  49   0.0000       0.138707         3.7744 
  50   0.0000       0.139863         3.8059 
  51   0.0000       0.142477         3.8770 
  52   0.0000       0.143368         3.9012 
  53   0.0000       0.145698         3.9646 
  54   0.0000       0.146719         3.9924 
  55   0.0000       0.147745         4.0204 
  56   0.0000       0.151935         4.1344 
  57   0.0000       0.166422         4.5286 
  58   0.0000       0.168148         4.5755 
  59   0.0000       0.170245         4.6326 
  60   0.0000       0.180758         4.9187 
  61   0.0000       0.186459         5.0738 
  62   0.0000       0.190988         5.1970 
  63   0.0000       0.201626         5.4865 
  64   0.0000       0.204129         5.5546 
  65   0.0000       0.208210         5.6657 
  66   0.0000       0.216543         5.8924 
  67   0.0000       0.217193         5.9101 
  68   0.0000       0.222421         6.0524 
  69   0.0000       0.224118         6.0986 
  70   0.0000       0.232116         6.3162 
  71   0.0000       0.237512         6.4630 
  72   0.0000       0.240413         6.5420 
  73   0.0000       0.243140         6.6162 
  74   0.0000       0.249571         6.7912 
  75   0.0000       0.253217         6.8904 
  76   0.0000       0.257004         6.9934 
  77   0.0000       0.258847         7.0436 
  78   0.0000       0.261894         7.1265 
  79   0.0000       0.263825         7.1790 
  80   0.0000       0.271757         7.3949 
  81   0.0000       0.273843         7.4517 
  82   0.0000       0.277412         7.5488 
  83   0.0000       0.278465         7.5774 
  84   0.0000       0.281502         7.6601 
  85   0.0000       0.284767         7.7489 
  86   0.0000       0.289463         7.8767 
  87   0.0000       0.294702         8.0193 
  88   0.0000       0.295548         8.0423 
  89   0.0000       0.297894         8.1061 
  90   0.0000       0.298436         8.1209 
  91   0.0000       0.308357         8.3908 
  92   0.0000       0.313450         8.5294 
  93   0.0000       0.319706         8.6996 
  94   0.0000       0.321659         8.7528 
  95   0.0000       0.326045         8.8721 
  96   0.0000       0.327679         8.9166 
  97   0.0000       0.328658         8.9432 
  98   0.0000       0.332851         9.0573 
  99   0.0000       0.336706         9.1622 
 100   0.0000       0.345681         9.4064 
 101   0.0000       0.357006         9.7146 
 102   0.0000       0.365433         9.9439 
 103   0.0000       0.365731         9.9521 
 104   0.0000       0.371488        10.1087 
 105   0.0000       0.376371        10.2416 
 106   0.0000       0.384475        10.4621 
 107   0.0000       0.389143        10.5891 
 108   0.0000       0.393120        10.6974 
 109   0.0000       0.394092        10.7238 
 110   0.0000       0.402607        10.9555 
 111   0.0000       0.408033        11.1032 
 112   0.0000       0.420400        11.4397 
 113   0.0000       0.424291        11.5455 
 114   0.0000       0.429161        11.6781 
 115   0.0000       0.435502        11.8506 
 116   0.0000       0.437465        11.9040 
 117   0.0000       0.447507        12.1773 
 118   0.0000       0.448364        12.2006 
 119   0.0000       0.450696        12.2641 
 120   0.0000       0.457951        12.4615 
 121   0.0000       0.467545        12.7226 
 122   0.0000       0.469861        12.7856 
 123   0.0000       0.471347        12.8260 
 124   0.0000       0.472036        12.8448 
 125   0.0000       0.473431        12.8827 
 126   0.0000       0.474313        12.9067 
 127   0.0000       0.478605        13.0235 
 128   0.0000       0.481594        13.1048 
 129   0.0000       0.484494        13.1837 
 130   0.0000       0.489096        13.3090 
 131   0.0000       0.493494        13.4286 
 132   0.0000       0.497100        13.5268 
 133   0.0000       0.498635        13.5685 
 134   0.0000       0.504069        13.7164 
 135   0.0000       0.508358        13.8331 
 136   0.0000       0.511697        13.9240 
 137   0.0000       0.519544        14.1375 
 138   0.0000       0.525089        14.2884 
 139   0.0000       0.526426        14.3248 
 140   0.0000       0.535567        14.5735 
 141   0.0000       0.538691        14.6585 
 142   0.0000       0.546762        14.8782 
 143   0.0000       0.546998        14.8846 
 144   0.0000       0.551040        14.9946 
 145   0.0000       0.554471        15.0879 
 146   0.0000       0.560182        15.2433 
 147   0.0000       0.566227        15.4078 
 148   0.0000       0.567289        15.4367 
 149   0.0000       0.571144        15.5416 
 150   0.0000       0.579126        15.7588 
 151   0.0000       0.582578        15.8527 
 152   0.0000       0.586467        15.9586 
 153   0.0000       0.590460        16.0672 
 154   0.0000       0.591668        16.1001 
 155   0.0000       0.599007        16.2998 
 156   0.0000       0.601428        16.3657 
 157   0.0000       0.603204        16.4140 
 158   0.0000       0.608337        16.5537 
 159   0.0000       0.621871        16.9220 
 160   0.0000       0.622135        16.9292 
 161   0.0000       0.632781        17.2188 
 162   0.0000       0.642060        17.4713 
 163   0.0000       0.644954        17.5501 
 164   0.0000       0.650995        17.7145 
 165   0.0000       0.652108        17.7448 
 166   0.0000       0.662418        18.0253 
 167   0.0000       0.665865        18.1191 
 168   0.0000       0.668513        18.1912 
 169   0.0000       0.682032        18.5590 
 170   0.0000       0.689353        18.7583 
 171   0.0000       0.699244        19.0274 
 172   0.0000       0.699781        19.0420 
 173   0.0000       0.705856        19.2073 
 174   0.0000       0.709286        19.3006 
 175   0.0000       0.713652        19.4195 
 176   0.0000       0.717064        19.5123 
 177   0.0000       0.720216        19.5981 
 178   0.0000       0.735091        20.0028 
 179   0.0000       0.735638        20.0177 
 180   0.0000       0.738189        20.0872 
 181   0.0000       0.740949        20.1623 
 182   0.0000       0.748073        20.3561 
 183   0.0000       0.754567        20.5328 
 184   0.0000       0.761062        20.7095 
 185   0.0000       0.768820        20.9207 
 186   0.0000       0.777465        21.1559 
 187   0.0000       0.778499        21.1840 
 188   0.0000       0.784352        21.3433 
 189   0.0000       0.784624        21.3507 
 190   0.0000       0.787875        21.4392 
 191   0.0000       0.791116        21.5274 
 192   0.0000       0.797867        21.7111 
 193   0.0000       0.802209        21.8292 
 194   0.0000       0.802682        21.8421 
 195   0.0000       0.811882        22.0924 
 196   0.0000       0.813466        22.1355 
 197   0.0000       0.813507        22.1366 
 198   0.0000       0.822679        22.3862 
 199   0.0000       0.824866        22.4458 
 200   0.0000       0.826800        22.4984 
 201   0.0000       0.831515        22.6267 
 202   0.0000       0.842561        22.9272 
 203   0.0000       0.848784        23.0966 
 204   0.0000       0.852626        23.2011 
 205   0.0000       0.857026        23.3209 
 206   0.0000       0.859769        23.3955 
 207   0.0000       0.863854        23.5067 
 208   0.0000       0.868195        23.6248 
 209   0.0000       0.871596        23.7173 
 210   0.0000       0.872982        23.7550 
 211   0.0000       0.881867        23.9968 
 212   0.0000       0.885717        24.1016 
 213   0.0000       0.890448        24.2303 
 214   0.0000       0.892876        24.2964 
 215   0.0000       0.894221        24.3330 
 216   0.0000       0.906238        24.6600 
 217   0.0000       0.908572        24.7235 
 218   0.0000       0.912933        24.8422 
 219   0.0000       0.917892        24.9771 
 220   0.0000       0.919689        25.0260 
 221   0.0000       0.923423        25.1276 
 222   0.0000       0.928263        25.2593 
 223   0.0000       0.932656        25.3789 
 224   0.0000       0.941978        25.6325 
 225   0.0000       0.948221        25.8024 
 226   0.0000       0.952405        25.9162 
 227   0.0000       0.955286        25.9946 
 228   0.0000       0.958098        26.0712 
 229   0.0000       0.966455        26.2986 
 230   0.0000       0.968972        26.3671 
 231   0.0000       0.974792        26.5254 
 232   0.0000       0.977076        26.5876 
 233   0.0000       0.983048        26.7501 
 234   0.0000       0.993308        27.0293 
 235   0.0000       0.994214        27.0539 
 236   0.0000       1.006644        27.3922 
 237   0.0000       1.025408        27.9028 
 238   0.0000       1.058345        28.7990 
 239   0.0000       1.065763        29.0009 
 240   0.0000       1.085698        29.5433 
 241   0.0000       1.104174        30.0461 
 242   0.0000       1.115021        30.3413 
 243   0.0000       1.117177        30.3999 
 244   0.0000       1.128027        30.6952 
 245   0.0000       1.129117        30.7248 
 246   0.0000       1.148724        31.2584 
 247   0.0000       1.170850        31.8604 
 248   0.0000       1.206507        32.8307 
 249   0.0000       1.231932        33.5226 
 250   0.0000       1.237025        33.6612 
 251   0.0000       1.240789        33.7636 
 252   0.0000       1.249224        33.9931 
 253   0.0000       1.266304        34.4579 
 254   0.0000       1.279911        34.8281 
 255   0.0000       1.288212        35.0540 
 256   0.0000       1.298938        35.3459 
 257   0.0000       1.305361        35.5207 
 258   0.0000       1.308798        35.6142 
 259   0.0000       1.342629        36.5348 
 260   0.0000       1.361151        37.0388 
 261   0.0000       1.386099        37.7177 
 262   0.0000       1.398114        38.0446 
 263   0.0000       1.416846        38.5543 
 264   0.0000       1.418115        38.5889 
 265   0.0000       1.429522        38.8993 
 266   0.0000       1.455930        39.6179 
 267   0.0000       1.458957        39.7002 
 268   0.0000       1.472903        40.0797 
 269   0.0000       1.488154        40.4947 
 270   0.0000       1.500606        40.8336 
 271   0.0000       1.509434        41.0738 
 272   0.0000       1.518909        41.3316 
 273   0.0000       1.527629        41.5689 
 274   0.0000       1.544832        42.0370 
 275   0.0000       1.550146        42.1816 
 276   0.0000       1.563123        42.5347 
 277   0.0000       1.567053        42.6417 
 278   0.0000       1.574544        42.8455 
 279   0.0000       1.606761        43.7222 
 280   0.0000       1.609072        43.7851 
 281   0.0000       1.610704        43.8295 
 282   0.0000       1.620708        44.1017 
 283   0.0000       1.636071        44.5198 
 284   0.0000       1.637389        44.5556 
 285   0.0000       1.650639        44.9162 
 286   0.0000       1.690193        45.9925 
 287   0.0000       1.693633        46.0861 
 288   0.0000       1.734171        47.1892 
 289   0.0000       1.735635        47.2290 
 290   0.0000       1.763815        47.9958 
 291   0.0000       1.765363        48.0380 
 292   0.0000       1.780325        48.4451 
 293   0.0000       1.829091        49.7721 
 294   0.0000       1.846157        50.2365 
 295   0.0000       1.873933        50.9923 
 296   0.0000       1.877032        51.0766 
 297   0.0000       1.889042        51.4034 
 298   0.0000       1.891897        51.4811 
 299   0.0000       1.918610        52.2080 
 300   0.0000       1.921660        52.2910 
 301   0.0000       1.937200        52.7139 
 302   0.0000       2.201793        59.9138 
 303   0.0000       2.215862        60.2967 
 304   0.0000       2.230623        60.6983 
 305   0.0000       2.269596        61.7588 
 306   0.0000       2.298438        62.5437 
 307   0.0000       2.305731        62.7421 
 308   0.0000       2.306097        62.7521 
 309   0.0000       2.336522        63.5800 
 310   0.0000       2.356513        64.1240 
 311   0.0000       2.382535        64.8321 
 312   0.0000       2.405134        65.4470 
 313   0.0000       2.410846        65.6024 
 314   0.0000       2.464850        67.0720 
 315   0.0000       2.467826        67.1530 
 316   0.0000       2.508675        68.2645 
 317   0.0000       2.510657        68.3185 
 318   0.0000       2.558733        69.6267 
 319   0.0000       2.606523        70.9271 
 320   0.0000       2.638917        71.8086 
 321   0.0000       2.669860        72.6506 
 322   0.0000       2.702398        73.5360 
 323   0.0000       2.716252        73.9130 
 324   0.0000       2.718058        73.9621 
 325   0.0000       2.758026        75.0497 
 326   0.0000       2.780925        75.6728 
 327   0.0000       2.829149        76.9850 
 328   0.0000       2.841574        77.3232 
 329   0.0000       2.856367        77.7257 
 330   0.0000       2.872878        78.1750 
 331   0.0000       2.887885        78.5833 
 332   0.0000       2.918348        79.4123 
 333   0.0000       2.967654        80.7540 
 334   0.0000       2.986549        81.2681 
 335   0.0000       2.996490        81.5387 
 336   0.0000       3.034823        82.5817 
 337   0.0000       3.054351        83.1131 
 338   0.0000       3.056130        83.1615 
 339   0.0000       3.075501        83.6886 
 340   0.0000       3.084365        83.9298 
 341   0.0000       3.092551        84.1526 
 342   0.0000       3.115815        84.7856 
 343   0.0000       3.117172        84.8226 
 344   0.0000       3.134726        85.3002 
 345   0.0000       3.164055        86.0983 
 346   0.0000       3.178407        86.4888 
 347   0.0000       3.186547        86.7103 
 348   0.0000       3.202216        87.1367 
 349   0.0000       3.222398        87.6859 
 350   0.0000       3.234542        88.0164 
 351   0.0000       3.287876        89.4677 
 352   0.0000       3.321551        90.3840 
 353   0.0000       3.338224        90.8377 
 354   0.0000       3.363699        91.5309 
 355   0.0000       3.416068        92.9559 
 356   0.0000       3.420573        93.0785 
 357   0.0000       3.445524        93.7575 
 358   0.0000       3.469478        94.4093 
 359   0.0000       3.482140        94.7538 
 360   0.0000       3.522981        95.8652 
 361   0.0000       3.531605        96.0999 
 362   0.0000       3.550440        96.6124 
 363   0.0000       3.566032        97.0367 
 364   0.0000       3.590280        97.6965 
 365   0.0000       3.611463        98.2729 
 366   0.0000       3.622510        98.5735 
 367   0.0000       3.637992        98.9948 
 368   0.0000       3.650806        99.3435 
 369   0.0000       3.671218        99.8989 
 370   0.0000       3.673744        99.9677 
 371   0.0000       3.674769        99.9956 
 372   0.0000       3.695007       100.5462 
 373   0.0000       3.703253       100.7706 
 374   0.0000       3.709407       100.9381 
 375   0.0000       3.739458       101.7558 
 376   0.0000       3.752585       102.1130 
 377   0.0000       3.766088       102.4805 
 378   0.0000       3.775583       102.7388 
 379   0.0000       3.798236       103.3553 
 380   0.0000       3.800299       103.4114 
 381   0.0000       3.813689       103.7758 
 382   0.0000       3.821015       103.9751 
 383   0.0000       3.881679       105.6259 
 384   0.0000       3.888854       105.8211 
 385   0.0000       3.937480       107.1443 
 386   0.0000       3.962766       107.8324 
 387   0.0000       3.974869       108.1617 
 388   0.0000       3.997926       108.7891 
 389   0.0000       4.005703       109.0007 
 390   0.0000       4.043441       110.0276 
 391   0.0000       4.119807       112.1057 
 392   0.0000       4.135661       112.5370 
 393   0.0000       4.150657       112.9451 
 394   0.0000       4.189568       114.0039 
 395   0.0000       4.266646       116.1013 
 396   0.0000       4.301534       117.0507 
 397   0.0000       4.304044       117.1190 
 398   0.0000       4.376924       119.1022 
 399   0.0000       4.443772       120.9212 
 400   0.0000       4.497220       122.3756 
 401   0.0000       4.518209       122.9467 
 402   0.0000       4.556526       123.9894 
 403   0.0000       4.643628       126.3595 
 404   0.0000       4.835645       131.5846 
 405   0.0000       4.857334       132.1748 
 406   0.0000       4.867503       132.4515 
 407   0.0000       4.928206       134.1033 
 408   0.0000       4.975924       135.4018 
 409   0.0000       5.046980       137.3353 
 410   0.0000       5.072924       138.0413 
 411   0.0000       5.084859       138.3661 
 412   0.0000       5.127394       139.5235 
 413   0.0000       5.150172       140.1433 
 414   0.0000       5.174352       140.8013 
 415   0.0000       5.177365       140.8833 
 416   0.0000       5.199440       141.4840 
 417   0.0000       5.287352       143.8762 
 418   0.0000       5.301909       144.2723 
 419   0.0000       5.322055       144.8205 
 420   0.0000       5.375612       146.2778 
 421   0.0000       5.387008       146.5879 
 422   0.0000       5.433249       147.8462 
 423   0.0000       5.445897       148.1904 
 424   0.0000       5.469109       148.8220 
 425   0.0000       5.518027       150.1532 
 426   0.0000       5.616513       152.8331 
 427   0.0000       5.669431       154.2731 
 428   0.0000       5.689914       154.8304 
 429   0.0000       5.711571       155.4197 
 430   0.0000       5.775346       157.1551 
 431   0.0000       5.789600       157.5430 
 432   0.0000       5.818676       158.3342 
 433   0.0000       5.820200       158.3757 
 434   0.0000       5.854292       159.3034 
 435   0.0000       5.867341       159.6585 
 436   0.0000       5.981731       162.7712 
 437   0.0000       5.990422       163.0077 
 438   0.0000       6.060980       164.9276 
 439   0.0000       6.212459       169.0496 
 440   0.0000       6.299095       171.4071 
 441   0.0000       6.305537       171.5824 
 442   0.0000       6.344459       172.6415 
 443   0.0000       6.346738       172.7035 
 444   0.0000       6.447755       175.4523 
 445   0.0000       6.563124       178.5917 
 446   0.0000       6.571432       178.8178 
 447   0.0000       6.827630       185.7893 
 448   0.0000       6.829721       185.8461 
 449   0.0000       6.898295       187.7122 
 450   0.0000       7.161004       194.8608 
 451   0.0000       7.329919       199.4572 
 452   0.0000       7.460879       203.0208 
 453   0.0000       7.500058       204.0870 
 454   0.0000       7.548612       205.4082 
 455   0.0000       7.676394       208.8853 
 456   0.0000       7.695655       209.4094 
 457   0.0000       7.719966       210.0710 
 458   0.0000       7.769111       211.4082 
 459   0.0000       7.783473       211.7991 
 460   0.0000       7.850043       213.6105 
 461   0.0000       7.850612       213.6260 
 462   0.0000       7.952445       216.3970 
 463   0.0000       7.976596       217.0542 
 464   0.0000       8.019882       218.2321 
 465   0.0000       8.114663       220.8112 
 466   0.0000       8.149922       221.7707 
 467   0.0000       8.184488       222.7112 
 468   0.0000       8.239682       224.2131 
 469   0.0000       8.285804       225.4682 
 470   0.0000       8.544426       232.5056 
 471   0.0000       8.550188       232.6624 
 472   0.0000       8.567597       233.1362 
 473   0.0000       8.568878       233.1710 
 474   0.0000       8.607976       234.2349 
 475   0.0000       8.613242       234.3782 
 476   0.0000       8.635448       234.9825 
 477   0.0000       8.687484       236.3985 
 478   0.0000       8.894078       242.0202 
 479   0.0000       8.924413       242.8456 
 480   0.0000       8.964323       243.9316 
 481   0.0000       8.973932       244.1931 
 482   0.0000       8.986509       244.5353 
 483   0.0000       9.000438       244.9144 
 484   0.0000       9.029490       245.7049 
 485   0.0000       9.055162       246.4035 
 486   0.0000       9.151661       249.0293 
 487   0.0000       9.160869       249.2799 
 488   0.0000       9.183181       249.8870 
 489   0.0000       9.227589       251.0955 
 490   0.0000       9.300026       253.0666 
 491   0.0000       9.331095       253.9120 
 492   0.0000       9.335911       254.0431 
 493   0.0000       9.403313       255.8772 
 494   0.0000       9.409758       256.0525 
 495   0.0000       9.434998       256.7393 
 496   0.0000       9.476034       257.8560 
 497   0.0000       9.523034       259.1349 
 498   0.0000       9.701193       263.9829 
 499   0.0000       9.767064       265.7753 
 500   0.0000       9.780668       266.1455 
 501   0.0000       9.790071       266.4014 
 502   0.0000      10.414229       283.3856 
 503   0.0000      10.422665       283.6151 
 504   0.0000      10.735471       292.1270 
 505   0.0000      10.735968       292.1405 
 506   0.0000      10.851382       295.2811 
 507   0.0000      10.854691       295.3712 
 508   0.0000      10.915447       297.0244 
 509   0.0000      10.948579       297.9260 
 510   0.0000      11.001675       299.3708 
 511   0.0000      11.007954       299.5416 
 512   0.0000      11.278901       306.9145 
 513   0.0000      11.290747       307.2368 
 514   0.0000      11.409447       310.4668 
 515   0.0000      11.428663       310.9897 
 516   0.0000      11.631917       316.5206 
 517   0.0000      11.715632       318.7985 
 518   0.0000      11.881231       323.3047 
 519   0.0000      11.909313       324.0689 
 520   0.0000      12.326079       335.4097 
 521   0.0000      12.332770       335.5917 
 522   0.0000      12.361297       336.3680 
 523   0.0000      12.366895       336.5203 
 524   0.0000      12.368599       336.5667 
 525   0.0000      12.372705       336.6784 
 526   0.0000      12.381270       336.9115 
 527   0.0000      12.404368       337.5400 
 528   0.0000      12.534997       341.0946 
 529   0.0000      12.565381       341.9214 
 530   0.0000      12.680917       345.0653 
 531   0.0000      12.689315       345.2938 
 532   0.0000      12.716119       346.0232 
 533   0.0000      12.732185       346.4604 
 534   0.0000      12.766796       347.4022 
 535   0.0000      12.773733       347.5910 
 536   0.0000      12.990233       353.4822 
 537   0.0000      13.028180       354.5148 
 538   0.0000      13.028596       354.5261 
 539   0.0000      13.051689       355.1545 
 540   0.0000      13.059036       355.3544 
 541   0.0000      13.085815       356.0831 
 542   0.0000      13.132528       357.3542 
 543   0.0000      13.134001       357.3943 
 544   0.0000      13.453311       366.0832 
 545   0.0000      13.454822       366.1243 
 546   0.0000      13.653366       371.5270 
 547   0.0000      13.675922       372.1408 
 548   0.0000      16.147010       439.3825 
 549   0.0000      16.155712       439.6193 
 550   0.0000      16.211919       441.1488 
 551   0.0000      16.220317       441.3773 
 552   0.0000      16.340010       444.6343 
 553   0.0000      16.344345       444.7522 
 554   0.0000      16.715778       454.8594 
 555   0.0000      16.718259       454.9270 
 556   0.0000      16.718474       454.9328 
 557   0.0000      16.720184       454.9793 
 558   0.0000      16.720907       454.9990 
 559   0.0000      16.721620       455.0184 
 560   0.0000      16.722874       455.0525 
 561   0.0000      16.723506       455.0697 
 562   0.0000      16.723986       455.0828 
 563   0.0000      16.725945       455.1361 
 564   0.0000      16.752405       455.8561 
 565   0.0000      16.757536       455.9957 
 566   0.0000      16.777353       456.5350 
 567   0.0000      16.782461       456.6740 
 568   0.0000      16.794260       456.9951 
 569   0.0000      16.795498       457.0287 
 570   0.0000      16.828879       457.9371 
 571   0.0000      16.857934       458.7277 
 572   0.0000      16.971606       461.8209 
 573   0.0000      16.973618       461.8756 
 574   0.0000      16.992171       462.3805 
 575   0.0000      17.007422       462.7955 
 576   0.0000      17.060194       464.2315 
 577   0.0000      17.060909       464.2509 
 578   0.0000      17.149467       466.6607 
 579   0.0000      17.158913       466.9178 
 580   0.0000      17.204127       468.1481 
 581   0.0000      17.204242       468.1512 
 582   0.0000      17.736906       482.6457 
 583   0.0000      17.748612       482.9643 
 584   0.0000      17.788531       484.0505 
 585   0.0000      17.813559       484.7316 
 586   0.0000      17.837699       485.3885 
 587   0.0000      17.842294       485.5135 
 588   0.0000      17.860689       486.0141 
 589   0.0000      17.975215       489.1305 
 590   0.0000      17.978680       489.2248 
 591   0.0000      18.016866       490.2638 
 592   0.0000      19.018151       517.5102 
 593   0.0000      19.019603       517.5497 
 594   0.0000      23.365395       635.8047 
 595   0.0000      23.371844       635.9802 
 596   0.0000      23.377100       636.1232 
 597   0.0000      23.381895       636.2537 
 598   0.0000      23.412006       637.0731 
 599   0.0000      23.428032       637.5092 
 600   0.0000      23.440836       637.8576 
 601   0.0000      23.495797       639.3531 
 602   0.0000      23.801015       647.6585 
 603   0.0000      23.821217       648.2083 
 604   0.0000      24.068945       654.9493 
 605   0.0000      24.077799       655.1902 
 606   0.0000      26.014114       707.8800 
 607   0.0000      26.782778       728.7965 
 608   0.0000      39.779926      1082.4668 
 609   0.0000      39.880932      1085.2153 
 610   0.0000      39.943950      1086.9301 
 611   0.0000      39.976624      1087.8192 
 612   0.0000      59.040520      1606.5742 
 613   0.0000      59.049171      1606.8096 
 614   0.0000      59.079669      1607.6395 
 615   0.0000      59.081974      1607.7023 
 616   0.0000      59.123198      1608.8240 
 617   0.0000      59.123426      1608.8302 
 618   0.0000      59.419807      1616.8952 
 619   0.0000      59.481105      1618.5631 
 620   0.0000      59.848639      1628.5643 
 621   0.0000      59.874370      1629.2644 
 622   0.0000      90.970063      2475.4213 
 623   0.0000      90.974008      2475.5286 
 624   0.0000      90.977747      2475.6304 
 625   0.0000      90.990492      2475.9772 
 626   0.0000      91.008661      2476.4716 
 627   0.0000      91.009132      2476.4844 
 628   0.0000      91.021996      2476.8344 
 629   0.0000      91.061300      2477.9039 
 630   0.0000      91.461569      2488.7958 
 631   0.0000      91.465362      2488.8990 
 632   0.0000      91.524190      2490.4998 
 633   0.0000      91.529572      2490.6463 

                    ********************************
                    * MULLIKEN POPULATION ANALYSIS *
                    ********************************

--------------------------------------------
MULLIKEN ATOMIC CHARGES AND SPIN POPULATIONS
--------------------------------------------
   0 P :   -0.358564   -0.000000
   1 P :   -0.358663   -0.000000
   2 H :    0.148847    0.000000
   3 H :    0.209768    0.000000
   4 H :    0.148895   -0.000000
   5 H :    0.209717    0.000000
Sum of atomic charges         :    0.0000000
Sum of atomic spin populations:   -0.0000000

-----------------------------------------------------
MULLIKEN REDUCED ORBITAL CHARGES AND SPIN POPULATIONS
-----------------------------------------------------
CHARGE
  0 P s       :     5.767398  s :     5.767398
      pz      :     3.228774  p :     9.414457
      px      :     3.107022
      py      :     3.078661
      dz2     :     0.065982  d :     0.190255
      dxz     :     0.004053
      dyz     :     0.028179
      dx2y2   :     0.059812
      dxy     :     0.032230
      f0      :    -0.000604  f :    -0.001409
      f+1     :     0.000740
      f-1     :     0.003361
      f+2     :    -0.004496
      f-2     :     0.000341
      f+3     :     0.001727
      f-3     :    -0.002479
      g0      :     0.000309  g :    -0.009560
      g+1     :     0.000107
      g-1     :    -0.002672
      g+2     :     0.000694
      g-2     :    -0.000860
      g+3     :    -0.000025
      g-3     :    -0.002756
      g+4     :    -0.001676
      g-4     :    -0.002681
      h0      :    -0.000182  h :    -0.002578
      h+1     :    -0.000033
      h-1     :     0.000108
      h+2     :    -0.000572
      h-2     :     0.000015
      h+3     :    -0.000264
      h-3     :     0.000022
      h+4     :    -0.000641
      h-4     :    -0.000003
      h+5     :    -0.000701
      h-5     :    -0.000328
  1 P s       :     5.767479  s :     5.767479
      pz      :     3.228765  p :     9.414467
      px      :     3.107029
      py      :     3.078672
      dz2     :     0.065984  d :     0.190264
      dxz     :     0.004053
[...]
      f-2     :     0.000000
      f+3     :     0.000000
      f-3     :     0.000000
      g0      :     0.000000  g :     0.000000
      g+1     :    -0.000000
      g-1     :    -0.000000
      g+2     :     0.000000
      g-2     :    -0.000000
      g+3     :    -0.000000
      g-3     :     0.000000
      g+4     :    -0.000000
      g-4     :     0.000000


                     *******************************
                     * LOEWDIN POPULATION ANALYSIS *
                     *******************************

-------------------------------------------
LOEWDIN ATOMIC CHARGES AND SPIN POPULATIONS
-------------------------------------------
   0 P :    1.559162   -0.000000
   1 P :    1.559162   -0.000000
   2 H :   -0.773217    0.000000
   3 H :   -0.785945    0.000000
   4 H :   -0.773217    0.000000
   5 H :   -0.785945    0.000000

----------------------------------------------------
LOEWDIN REDUCED ORBITAL CHARGES AND SPIN POPULATIONS
----------------------------------------------------
CHARGE
  0 P s       :     4.594419  s :     4.594419
      pz      :     2.724630  p :     8.068092
      px      :     2.674243
      py      :     2.669219
      dz2     :     0.103369  d :     0.389060
      dxz     :     0.005350
      dyz     :     0.073912
      dx2y2   :     0.143490
      dxy     :     0.062939
      f0      :     0.031132  f :     0.193231
      f+1     :     0.011786
      f-1     :     0.027617
      f+2     :     0.031753
      f-2     :     0.000572
      f+3     :     0.054775
      f-3     :     0.035596
      g0      :     0.009005  g :     0.124518
      g+1     :     0.000480
      g-1     :     0.020024
      g+2     :     0.010916
      g-2     :     0.008805
      g+3     :     0.000202
      g-3     :     0.022705
      g+4     :     0.021949
      g-4     :     0.030433
      h0      :     0.004071  h :     0.071518
      h+1     :     0.001101
      h-1     :     0.007294
      h+2     :     0.009005
      h-2     :     0.000099
      h+3     :     0.006831
      h-3     :     0.004891
      h+4     :     0.010480
      h-4     :     0.000180
      h+5     :     0.014685
      h-5     :     0.012882
  1 P s       :     4.594419  s :     4.594419
      pz      :     2.724630  p :     8.068092
      px      :     2.674243
      py      :     2.669219
      dz2     :     0.103369  d :     0.389060
      dxz     :     0.005350
      dyz     :     0.073912
      dx2y2   :     0.143490
      dxy     :     0.062939
      f0      :     0.031132  f :     0.193231
      f+1     :     0.011786
      f-1     :     0.027617
      f+2     :     0.031753
      f-2     :     0.000572
      f+3     :     0.054775
      f-3     :     0.035596
      g0      :     0.009005  g :     0.124518
      g+1     :     0.000480
      g-1     :     0.020024
      g+2     :     0.010916
      g-2     :     0.008805
      g+3     :     0.000202
      g-3     :     0.022705
      g+4     :     0.021949
      g-4     :     0.030433
      h0      :     0.004071  h :     0.071518
      h+1     :     0.001101
      h-1     :     0.007294
      h+2     :     0.009005
      h-2     :     0.000099
      h+3     :     0.006831
      h-3     :     0.004891
      h+4     :     0.010480
      h-4     :     0.000180
      h+5     :     0.014685
      h-5     :     0.012882
  2 H s       :     0.719309  s :     0.719309
      pz      :     0.185275  p :     0.368102
      px      :     0.084070
      py      :     0.098757
      dz2     :     0.110248  d :     0.331872
      dxz     :     0.078262
      dyz     :     0.082930
      dx2y2   :     0.040201
      dxy     :     0.020231
      f0      :     0.053550  f :     0.221843
      f+1     :     0.024041
      f-1     :     0.047752
      f+2     :     0.034631
      f-2     :     0.016944
      f+3     :     0.026094
      f-3     :     0.018830
      g0      :     0.027512  g :     0.132091
      g+1     :     0.004565
      g-1     :     0.013804
      g+2     :     0.028669
      g-2     :     0.003928
      g+3     :     0.022539
      g-3     :     0.008938
      g+4     :     0.008689
      g-4     :     0.013448
  3 H s       :     0.747276  s :     0.747276
      pz      :     0.092825  p :     0.372886
      px      :     0.183427
      py      :     0.096634
      dz2     :     0.029239  d :     0.331390
      dxz     :     0.097043
      dyz     :     0.018979
      dx2y2   :     0.096861
      dxy     :     0.089268
      f0      :     0.022846  f :     0.212655
      f+1     :     0.014786
      f-1     :     0.013191
      f+2     :     0.041661
      f-2     :     0.017970
      f+3     :     0.049003
      f-3     :     0.053200
      g0      :     0.004600  g :     0.121738
      g+1     :     0.008918
      g-1     :     0.012484
      g+2     :     0.007766
      g-2     :     0.007770
      g+3     :     0.027918
      g-3     :     0.000224
      g+4     :     0.021566
      g-4     :     0.030492
  4 H s       :     0.719309  s :     0.719309
      pz      :     0.185275  p :     0.368102
      px      :     0.084070
      py      :     0.098757
      dz2     :     0.110248  d :     0.331872
      dxz     :     0.078262
      dyz     :     0.082930
      dx2y2   :     0.040201
      dxy     :     0.020231
      f0      :     0.053550  f :     0.221843
      f+1     :     0.024041
      f-1     :     0.047752
      f+2     :     0.034631
      f-2     :     0.016944
      f+3     :     0.026094
      f-3     :     0.018830
      g0      :     0.027512  g :     0.132091
      g+1     :     0.004565
      g-1     :     0.013804
      g+2     :     0.028669
      g-2     :     0.003928
      g+3     :     0.022539
      g-3     :     0.008938
      g+4     :     0.008689
      g-4     :     0.013448
  5 H s       :     0.747276  s :     0.747276
      pz      :     0.092825  p :     0.372886
      px      :     0.183427
      py      :     0.096634
      dz2     :     0.029239  d :     0.331390
      dxz     :     0.097043
      dyz     :     0.018979
      dx2y2   :     0.096861
      dxy     :     0.089268
      f0      :     0.022846  f :     0.212655
      f+1     :     0.014786
      f-1     :     0.013191
      f+2     :     0.041661
      f-2     :     0.017970
      f+3     :     0.049003
      f-3     :     0.053200
      g0      :     0.004600  g :     0.121738
      g+1     :     0.008918
      g-1     :     0.012484
      g+2     :     0.007766
      g-2     :     0.007770
      g+3     :     0.027918
      g-3     :     0.000224
      g+4     :     0.021566
      g-4     :     0.030492

SPIN
  0 P s       :    -0.000000  s :    -0.000000
      pz      :     0.000000  p :     0.000000
      px      :    -0.000000
      py      :     0.000000
      dz2     :     0.000000  d :    -0.000000
      dxz     :    -0.000000
      dyz     :    -0.000000
      dx2y2   :    -0.000000
      dxy     :    -0.000000
      f0      :    -0.000000  f :    -0.000000
      f+1     :     0.000000
      f-1     :     0.000000
      f+2     :    -0.000000
      f-2     :    -0.000000
      f+3     :    -0.000000
      f-3     :    -0.000000
      g0      :    -0.000000  g :     0.000000
      g+1     :    -0.000000
      g-1     :     0.000000
      g+2     :    -0.000000
      g-2     :     0.000000
      g+3     :    -0.000000
      g-3     :     0.000000
      g+4     :     0.000000
      g-4     :    -0.000000
      h0      :    -0.000000  h :    -0.000000
      h+1     :    -0.000000
      h-1     :    -0.000000
      h+2     :    -0.000000
      h-2     :    -0.000000
      h+3     :    -0.000000
      h-3     :     0.000000
      h+4     :    -0.000000
      h-4     :     0.000000
      h+5     :     0.000000
      h-5     :     0.000000
  1 P s       :    -0.000000  s :    -0.000000
      pz      :    -0.000000  p :    -0.000000
      px      :    -0.000000
      py      :    -0.000000
      dz2     :     0.000000  d :    -0.000000
      dxz     :    -0.000000
      dyz     :    -0.000000
      dx2y2   :    -0.000000
      dxy     :     0.000000
      f0      :     0.000000  f :     0.000000
      f+1     :    -0.000000
      f-1     :    -0.000000
      f+2     :     0.000000
      f-2     :     0.000000
      f+3     :     0.000000
      f-3     :    -0.000000
      g0      :     0.000000  g :     0.000000
      g+1     :    -0.000000
      g-1     :     0.000000
      g+2     :     0.000000
      g-2     :     0.000000
      g+3     :    -0.000000
      g-3     :    -0.000000
      g+4     :     0.000000
      g-4     :     0.000000
      h0      :    -0.000000  h :     0.000000
      h+1     :     0.000000
      h-1     :     0.000000
      h+2     :     0.000000
      h-2     :     0.000000
      h+3     :     0.000000
      h-3     :    -0.000000
      h+4     :    -0.000000
      h-4     :    -0.000000
      h+5     :    -0.000000
      h-5     :     0.000000
  2 H s       :    -0.000000  s :    -0.000000
      pz      :     0.000000  p :     0.000000
      px      :    -0.000000
      py      :     0.000000
      dz2     :    -0.000000  d :     0.000000
      dxz     :     0.000000
      dyz     :     0.000000
      dx2y2   :    -0.000000
      dxy     :     0.000000
      f0      :     0.000000  f :     0.000000
      f+1     :     0.000000
      f-1     :     0.000000
      f+2     :    -0.000000
      f-2     :    -0.000000
      f+3     :    -0.000000
      f-3     :     0.000000
      g0      :    -0.000000  g :     0.000000
      g+1     :     0.000000
      g-1     :     0.000000
      g+2     :     0.000000
      g-2     :     0.000000
      g+3     :    -0.000000
      g-3     :    -0.000000
      g+4     :    -0.000000
      g-4     :     0.000000
  3 H s       :     0.000000  s :     0.000000
      pz      :     0.000000  p :    -0.000000
      px      :    -0.000000
      py      :     0.000000
      dz2     :     0.000000  d :     0.000000
      dxz     :    -0.000000
      dyz     :    -0.000000
      dx2y2   :    -0.000000
      dxy     :     0.000000
      f0      :     0.000000  f :     0.000000
      f+1     :    -0.000000
      f-1     :     0.000000
      f+2     :     0.000000
      f-2     :    -0.000000
      f+3     :     0.000000
      f-3     :    -0.000000
      g0      :    -0.000000  g :     0.000000
      g+1     :     0.000000
      g-1     :     0.000000
      g+2     :     0.000000
      g-2     :     0.000000
      g+3     :    -0.000000
      g-3     :    -0.000000
      g+4     :     0.000000
      g-4     :     0.000000
  4 H s       :     0.000000  s :     0.000000
      pz      :    -0.000000  p :    -0.000000
      px      :    -0.000000
      py      :    -0.000000
      dz2     :    -0.000000  d :    -0.000000
      dxz     :    -0.000000
      dyz     :     0.000000
      dx2y2   :     0.000000
      dxy     :     0.000000
      f0      :     0.000000  f :     0.000000
      f+1     :    -0.000000
      f-1     :     0.000000
      f+2     :    -0.000000
      f-2     :    -0.000000
      f+3     :     0.000000
      f-3     :     0.000000
      g0      :    -0.000000  g :     0.000000
      g+1     :    -0.000000
      g-1     :     0.000000
      g+2     :     0.000000
      g-2     :     0.000000
      g+3     :    -0.000000
      g-3     :    -0.000000
      g+4     :     0.000000
      g-4     :     0.000000
  5 H s       :     0.000000  s :     0.000000
      pz      :    -0.000000  p :     0.000000
      px      :     0.000000
      py      :    -0.000000
      dz2     :    -0.000000  d :    -0.000000
      dxz     :    -0.000000
      dyz     :    -0.000000
      dx2y2   :    -0.000000
      dxy     :     0.000000
      f0      :    -0.000000  f :    -0.000000
      f+1     :    -0.000000
      f-1     :    -0.000000
      f+2     :    -0.000000
      f-2     :     0.000000
      f+3     :     0.000000
      f-3     :     0.000000
      g0      :     0.000000  g :    -0.000000
      g+1     :     0.000000
      g-1     :     0.000000
      g+2     :     0.000000
      g-2     :    -0.000000
      g+3     :    -0.000000
      g-3     :     0.000000
      g+4     :    -0.000000
      g-4     :    -0.000000


                      *****************************
                      * MAYER POPULATION ANALYSIS *
                      *****************************

  NA   - Mulliken gross atomic population
  ZA   - Total nuclear charge
  QA   - Mulliken gross atomic charge
  VA   - Mayer's total valence
  BVA  - Mayer's bonded valence
  FA   - Mayer's free valence

  ATOM       NA         ZA         QA         VA         BVA        FA
  0 P     15.3586    15.0000    -0.3586     2.9555     2.9555     0.0000
  1 P     15.3587    15.0000    -0.3587     2.9555     2.9555     0.0000
  2 H      0.8512     1.0000     0.1488     0.7210     0.7210     0.0000
  3 H      0.7902     1.0000     0.2098     0.6114     0.6114    -0.0000
  4 H      0.8511     1.0000     0.1489     0.7210     0.7210    -0.0000
  5 H      0.7903     1.0000     0.2097     0.6115     0.6115    -0.0000

  Mayer bond orders larger than 0.1
B(  0-P ,  1-P ) :   1.4842 B(  0-P ,  2-H ) :   0.8829 B(  0-P ,  3-H ) :   0.8464 
B(  0-P ,  5-H ) :  -0.1793 B(  1-P ,  3-H ) :  -0.1793 B(  1-P ,  4-H ) :   0.8828 
B(  1-P ,  5-H ) :   0.8464 

-------
TIMINGS
-------

Total SCF time: 0 days 1 hours 18 min 34 sec 

Total time                  ....    4714.039 sec
Sum of individual times     ....    4712.378 sec  (100.0%)

Fock matrix formation       ....    4702.218 sec  ( 99.7%)
  XC integration            ....      47.568 sec  (  1.0% of F)
    Basis function eval.    ....       2.576 sec  (  5.4% of XC)
    Density eval.           ....      14.482 sec  ( 30.4% of XC)
    XC-Functional eval.     ....       0.192 sec  (  0.4% of XC)
    XC-Potential eval.      ....      29.180 sec  ( 61.3% of XC)
Diagonalization             ....       4.735 sec  (  0.1%)
Density matrix formation    ....       0.075 sec  (  0.0%)
Population analysis         ....       0.388 sec  (  0.0%)
Initial guess               ....       2.128 sec  (  0.0%)
Orbital Transformation      ....       0.000 sec  (  0.0%)
Orbital Orthonormalization  ....       0.000 sec  (  0.0%)
DIIS solution               ....       2.192 sec  (  0.0%)
Grid generation             ....       0.641 sec  (  0.0%)

-------------------------   --------------------
FINAL SINGLE POINT ENERGY      -684.821181171047
-------------------------   --------------------


                            ***************************************
                            *     ORCA property calculations      *
                            ***************************************

                                    ---------------------
                                    Active property flags
                                    ---------------------
   (+) Dipole Moment
   (+) Polarizability


------------------------------------------------------------------------------
                       ORCA ELECTRIC PROPERTIES CALCULATION
------------------------------------------------------------------------------

Dipole Moment Calculation                       ... on
Quadrupole Moment Calculation                   ... off
Polarizability Calculation                      ... Analytic (CP-SCF)
GBWName                                         ... p2h4_pbe.gbw
Electron density file                           ... p2h4_pbe.scfp.tmp
The origin for moment calculation is the CENTER OF MASS  = ( 0.000000,  0.000000 -0.077902)

-------------
DIPOLE MOMENT
-------------
                                X             Y             Z
Electronic contribution:      0.00000      -0.00000      -2.26908
Nuclear contribution   :      0.00000       0.00000       2.64979
                        -----------------------------------------
Total Dipole Moment    :      0.00000      -0.00000       0.38070
                        -----------------------------------------
Magnitude (a.u.)       :      0.38070
Magnitude (Debye)      :      0.96767



--------------------
Rotational spectrum 
--------------------
 
Rotational constants in cm-1:     2.202492     0.194201     0.193641 
Rotational constants in MHz : 66029.037690  5821.996050  5805.198286 

 Dipole components along the rotational axes: 
x,y,z [a.u.] :     0.000000    -0.000000     0.380703 
x,y,z [Debye]:     0.000000    -0.000000     0.967669 

 
Transforming and storing MO dipole integrals   ... done

                ... starting polarizability calculation

Opening the Dipole integral file               ... (p2h4_pbe.dmo.tmp) done
Reading Dipole-MO integrals                    ... done
Solving CP-SCF equations                       ... 

           ************************************************************
           *        Program running with 4 parallel MPI-processes     *
           *              working on a common directory               *
           ************************************************************

------------------------------------------------------------------------------
                           ORCA CP-SCF CALCULATION
------------------------------------------------------------------------------

Input orbitals are from        ... p2h4_pbe.gbw
Input Perturbation             ... p2h4_pbe.cpv.tmp
Wavefunction output            ... p2h4_pbe.cpu.tmp
Perturbation mode              ... Real perturbation (singlet)
Solver                         ... POPLE
Max. number of iterations      ... 200
Convergence tolerance          ... 1.000e-06
Integral handling              ... Direct
Number of perturbations        ... 3
Number of operators            ... 2
Orbital ranges used for CP-SCF:
 Operator 0:  Orbitals   0... 16  to  17...633
 Operator 1:  Orbitals   0... 16  to  17...633
DFT calculation                         ... on
Exchange functional (SCF)               ... PBE
Exchange functional (CP-SCF)            ... PBE
   PBE kappa parameter  XKappa (SCF)    ...  0.804000
   PBE kappa parameter  XKappa (CP-SCF) ...  0.804000
   PBE mue parameter   XMuePBE (SCF)    ...  0.219520
   PBE mue parameter   XMuePBE (CP-SCF) ...  0.219520
Correlation functional (SCF)            ... PBE
Correlation functional (CP-SCF)         ... PBE
   PBE beta parameter CBetaPBE (SCF)    ...  0.066725
   PBE beta parameter CBetaPBE (CP-SCF) ...  0.066725
 LDA part of GGA corr.  LDAOpt (SCF)    ... PW91-LDA
 LDA part of GGA corr.  LDAOpt (CP-SCF) ... PW91-LDA
Variables per vector in CP-SCF ... 20978
Number of vectors sought       ... 3
Recalculating density on grid  ... done
Calculating the xc-kernel      ... done
     CP-SCF ITERATION   0: 
     CP-SCF ITERATION   1:      0.965668570346
     CP-SCF ITERATION   2:      0.045033121417
     CP-SCF ITERATION   3:      0.003599946156
     CP-SCF ITERATION   4:      0.000221536922
     CP-SCF ITERATION   5:      0.000002860032
     CP-SCF ITERATION   6:      0.000000758762
done
Reading CP-SCF coefficients                    ... done
Doing the polarizability tensor   ... done
Cleaning up                                    ... done

-------------------------
THE POLARIZABILITY TENSOR
-------------------------

The raw cartesian tensor (atomic units):
   51.86727      1.18342      0.00000  
    1.18342     75.59910     -0.00000  
    0.00000     -0.00000     52.27002  
diagonalized tensor: 
   51.80841     52.27002     75.65797  

   -0.99877      0.00000     -0.04968  
    0.04968     -0.00000     -0.99877  
    0.00000      1.00000      0.00000  

Isotropic polarizability :  59.91213


Timings for individual modules:

Sum of individual times         ...     8292.123 sec (= 138.202 min)
GTO integral calculation        ...        3.106 sec (=   0.052 min)   0.0 %
SCF iterations                  ...     4714.333 sec (=  78.572 min)  56.9 %
Solution of CP-SCF eqns.        ...     3574.683 sec (=  59.578 min)  43.1 %
                             ****ORCA TERMINATED NORMALLY****
TOTAL RUN TIME: 0 days 2 hours 18 minutes 13 seconds 270 msec
