
                                 *****************
                                 * O   R   C   A *
                                 *****************

           --- An Ab Initio, DFT and Semiempirical electronic structure package ---

                  #######################################################
                  #                        -***-                        #
                  #          Department of theory and spectroscopy      #
                  #               Directorship: Frank Neese             #
                  #        Max Planck Institute fuer Kohlenforschung    #
                  #                Kaiser Wilhelm Platz 1               #
                  #                 D-45470 Muelheim/Ruhr               #
                  #                      Germany                        #
                  #                                                     #
                  #                  All rights reserved                #
                  #                        -***-                        #
                  #######################################################


                         Program Version 4.1.2  - RELEASE  -


 With contributions from (in alphabetic order):
   Daniel Aravena         : Magnetic Properties
   Michael Atanasov       : Ab Initio Ligand Field Theory
   Alexander A. Auer      : GIAO ZORA
   Ute Becker             : Parallelization
   Giovanni Bistoni       : ED, Open-shell LED
   Martin Brehm           : Molecular dynamics
   Dmytro Bykov           : SCF Hessian
   Vijay G. Chilkuri      : MRCI spin determinant printing
   Dipayan Datta          : RHF DLPNO-CCSD density
   Achintya Kumar Dutta   : EOM-CC, STEOM-CC
   Dmitry Ganyushin       : Spin-Orbit,Spin-Spin,Magnetic field MRCI
   Miquel Garcia          : C-PCM Hessian
   Yang Guo               : DLPNO-NEVPT2, CIM, IAO-localization
   Andreas Hansen         : Spin unrestricted coupled pair/coupled cluster methods
   Benjamin Helmich-Paris : CASSCF linear response (MC-RPA)
   Lee Huntington         : MR-EOM, pCC
   Robert Izsak           : Overlap fitted RIJCOSX, COSX-SCS-MP3, EOM
   Christian Kollmar      : KDIIS, OOCD, Brueckner-CCSD(T), CCSD density
   Simone Kossmann        : Meta GGA functionals, TD-DFT gradient, OOMP2, MP2 Hessian
   Martin Krupicka        : AUTO-CI
   Lucas Lang             : DCDCAS
   Dagmar Lenk            : GEPOL surface, SMD
   Dimitrios Liakos       : Extrapolation schemes; parallel MDCI
   Dimitrios Manganas     : ROCIS; embedding schemes
   Dimitrios Pantazis     : SARC Basis sets
   Taras Petrenko         : DFT Hessian,TD-DFT gradient, ASA, ECA, R-Raman, ABS, FL, XAS/XES, NRVS
   Peter Pinski           : DLPNO-MP2, DLPNO-MP2 Gradient
   Christoph Reimann      : Effective Core Potentials
   Marius Retegan         : Local ZFS, SOC
   Christoph Riplinger    : Optimizer, TS searches, QM/MM, DLPNO-CCSD(T), (RO)-DLPNO pert. Triples
   Tobias Risthaus        : Range-separated hybrids, TD-DFT gradient, RPA, STAB
   Michael Roemelt        : Restricted open shell CIS
   Masaaki Saitow         : Open-shell DLPNO
   Barbara Sandhoefer     : DKH picture change effects
   Avijit Sen             : IP-ROCIS
   Kantharuban Sivalingam : CASSCF convergence, NEVPT2, FIC-MRCI
   Bernardo de Souza      : ESD, SOC TD-DFT
   Georgi Stoychev        : AutoAux, RI-MP2 NMR
   Willem Van den Heuvel  : Paramagnetic NMR
   Boris Wezisla          : Elementary symmetry handling
   Frank Wennmohs         : Technical directorship


 We gratefully acknowledge several colleagues who have allowed us to
 interface, adapt or use parts of their codes:
   Stefan Grimme, W. Hujo, H. Kruse,             : VdW corrections, initial TS optimization,
                  C. Bannwarth                     DFT functionals, gCP, sTDA/sTD-DF
   Ed Valeev                                     : LibInt (2-el integral package), F12 methods
   Garnet Chan, S. Sharma, J. Yang, R. Olivares  : DMRG
   Ulf Ekstrom                                   : XCFun DFT Library
   Mihaly Kallay                                 : mrcc  (arbitrary order and MRCC methods)
   Andreas Klamt, Michael Diedenhofen            : otool_cosmo (COSMO solvation model)
   Jiri Pittner, Ondrej Demel                    : Mk-CCSD
   Frank Weinhold                                : gennbo (NPA and NBO analysis)
   Christopher J. Cramer and Donald G. Truhlar   : smd solvation model
   Lars Goerigk                                  : TD-DFT with DH, B97 family of functionals
   V. Asgeirsson, H. Jonsson                     : NEB implementation
   FAccTs GmbH                                   : IRC, NEB, NEB-TS, Multilevel


 Your calculation uses the libint2 library for the computation of 2-el integrals
 For citations please refer to: http://libint.valeyev.net

 This ORCA versions uses:
   CBLAS   interface :  Fast vector & matrix operations
   LAPACKE interface :  Fast linear algebra routines
   SCALAPACK package :  Parallel linear algebra routines


----- Orbital basis set information -----
Your calculation utilizes the basis: aug-pc-4
   H, C-F              : F. Jensen, J. Chem. Phys. 115, 9113 (2001).
                         F. Jensen, J. Chem. Phys. 116, 7372 (2002).
                         F. Jensen, J. Chem. Phys. 117, 9234 (2002).
   Si-Cl               : F. Jensen, T. Helgaker, J. Chem. Phys. 121, 3463 (2004).
   He-B, Ne-Mg, Al, Ar : F. Jensen, J. Phys. Chem. A 111, 11198 (2007).
   K, Ca, Ga-Kr        : F. Jensen, J. Chem. Phys. 136, 094110 (2012).
   Sc-Zn               : F. Jensen, J. Chem. Phys. 138, 014107 (2013).

================================================================================
                                        WARNINGS
                       Please study these warnings very carefully!
================================================================================


INFO   : the flag for use of LIBINT has been found!

================================================================================
                                       INPUT FILE
================================================================================
NAME = p_pbe.inp
|  1> !uks pbe nori aug-pc-4 grid5 nofinalgrid verytightscf
|  2> 
|  3> %maxcore 1500
|  4> 
|  5> %pal nprocs 4 end
|  6> 
|  7> %scf
|  8> 	maxiter 200
|  9> end
| 10> %elprop
| 11> 	dipole true
| 12> 	 polar 1
| 13> 	 maxiter 200
| 14> end
| 15> 
| 16> * xyz 0 4
| 17> P 0.0 0.0 0.0
| 18> *
| 19> 
| 20>                          ****END OF INPUT****
================================================================================

                       ****************************
                       * Single Point Calculation *
                       ****************************

---------------------------------
CARTESIAN COORDINATES (ANGSTROEM)
---------------------------------
  P      0.000000    0.000000    0.000000

----------------------------
CARTESIAN COORDINATES (A.U.)
----------------------------
  NO LB      ZA    FRAG     MASS         X           Y           Z
   0 P    15.0000    0    30.974    0.000000    0.000000    0.000000

--------------------------------
INTERNAL COORDINATES (ANGSTROEM)
--------------------------------
 P      0   0   0     0.000000000000     0.00000000     0.00000000

---------------------------
INTERNAL COORDINATES (A.U.)
---------------------------
 P      0   0   0     0.000000000000     0.00000000     0.00000000

---------------------
BASIS SET INFORMATION
---------------------
There are 1 groups of distinct atoms

 Group   1 Type P   : 44s27p7d4f3g2h contracted to 8s7p7d4f3g2h pattern {15121211111/111111111/1111111/1111/111/11}

Atom   0P    basis set group =>   1


           ************************************************************
           *        Program running with 4 parallel MPI-processes     *
           *              working on a common directory               *
           ************************************************************
------------------------------------------------------------------------------
                           ORCA GTO INTEGRAL CALCULATION
------------------------------------------------------------------------------

                         BASIS SET STATISTICS AND STARTUP INFO

 # of primitive gaussian shells          ...   87
 # of primitive gaussian functions       ...  237
 # of contracted shells                  ...   31
 # of contracted basis functions         ...  141
 Highest angular momentum                ...    5
 Maximum contraction depth               ...   15
 Integral package used                   ... LIBINT
 Integral threshhold            Thresh   ...  1.000e-12
 Primitive cut-off              TCut     ...  1.000e-14


------------------------------ INTEGRAL EVALUATION ----------------------------


 * One electron integrals 
 Pre-screening matrix                    ... done
 Shell pair data                         ... done (   0.000 sec)



           ************************************************************
           *        Program running with 4 parallel MPI-processes     *
           *              working on a common directory               *
           ************************************************************
-------------------------------------------------------------------------------
                                 ORCA SCF
-------------------------------------------------------------------------------

------------
SCF SETTINGS
------------
Hamiltonian:
 Density Functional     Method          .... DFT(GTOs)
 Exchange Functional    Exchange        .... PBE
   PBE kappa parameter   XKappa         ....  0.804000
   PBE mue parameter    XMuePBE         ....  0.219520
 Correlation Functional Correlation     .... PBE
   PBE beta parameter  CBetaPBE         ....  0.066725
 LDA part of GGA corr.  LDAOpt          .... PW91-LDA
 Gradients option       PostSCFGGA      .... off
   Density functional embedding theory  .... OFF
   NL short-range parameter             ....  6.400000


General Settings:
 Integral files         IntName         .... p_pbe
 Hartree-Fock type      HFTyp           .... UHF
 Total Charge           Charge          ....    0
 Multiplicity           Mult            ....    4
 Number of Electrons    NEL             ....   15
 Basis Dimension        Dim             ....  141
 Nuclear Repulsion      ENuc            ....      0.0000000000 Eh

Convergence Acceleration:
 DIIS                   CNVDIIS         .... on
   Start iteration      DIISMaxIt       ....    12
   Startup error        DIISStart       ....  0.200000
   # of expansion vecs  DIISMaxEq       ....     5
   Bias factor          DIISBfac        ....   1.050
   Max. coefficient     DIISMaxC        ....  10.000
 Newton-Raphson         CNVNR           .... off
 SOSCF                  CNVSOSCF        .... off
 Level Shifting         CNVShift        .... on
   Level shift para.    LevelShift      ....    0.2500
   Turn off err/grad.   ShiftErr        ....    0.0010
 Zerner damping         CNVZerner       .... off
 Static damping         CNVDamp         .... on
   Fraction old density DampFac         ....    0.7000
   Max. Damping (<1)    DampMax         ....    0.9800
   Min. Damping (>=0)   DampMin         ....    0.0000
   Turn off err/grad.   DampErr         ....    0.1000
 Fernandez-Rico         CNVRico         .... off

SCF Procedure:
 Maximum # iterations   MaxIter         ....   200
 SCF integral mode      SCFMode         .... Direct
   Integral package                     .... LIBINT
 Reset frequency        DirectResetFreq ....    20
 Integral Threshold     Thresh          ....  1.000e-12 Eh
 Primitive CutOff       TCut            ....  1.000e-14 Eh

Convergence Tolerance:
 Convergence Check Mode ConvCheckMode   .... Total+1el-Energy
 Convergence forced     ConvForced      .... 0
 Energy Change          TolE            ....  1.000e-09 Eh
 1-El. energy change                    ....  1.000e-06 Eh
 DIIS Error             TolErr          ....  1.000e-08


Diagonalization of the overlap matrix:
Smallest eigenvalue                        ... 7.572e-04
Time for diagonalization                   ...    0.073 sec
Threshold for overlap eigenvalues          ... 1.000e-08
Number of eigenvalues below threshold      ... 0
Time for construction of square roots      ...    0.215 sec
Total time needed                          ...    0.288 sec

-------------------
DFT GRID GENERATION
-------------------

General Integration Accuracy     IntAcc      ...  5.010
Radial Grid Type                 RadialGrid  ... Gauss-Chebyshev
Angular Grid (max. acc.)         AngularGrid ... Lebedev-434
Angular grid pruning method      GridPruning ... 3 (G Style)
Weight generation scheme         WeightScheme... Becke
Basis function cutoff            BFCut       ...    1.0000e-12
Integration weight cutoff        WCut        ...    1.0000e-14
Grids for H and He will be reduced by one unit

# of grid points (after initial pruning)     ...  11632 (   0.0 sec)
# of grid points (after weights+screening)   ...  11632 (   0.0 sec)
Grid point division into batches done        ...    0.1 sec
Reduced shell lists constructed in    0.1 sec

Total number of grid points                  ...    11632
Total number of batches                      ...      182
Average number of points per batch           ...       63
Average number of grid points per atom       ...    11632
Average number of shells per batch           ...    14.60 (47.08%)
Average number of basis functions per batch  ...    68.13 (48.32%)
Average number of large shells per batch     ...    11.85 (81.20%)
Average number of large basis fcns per batch ...    56.11 (82.35%)
Maximum spatial batch extension              ...  20.58, 20.58, 20.58 au
Average spatial batch extension              ...   3.27,  3.19,  3.19 au

Time for grid setup =    0.141 sec

------------------------------
INITIAL GUESS: MODEL POTENTIAL
------------------------------
Loading Hartree-Fock densities                     ... done
Calculating cut-offs                               ... done
Setting up the integral package                    ... done
Initializing the effective Hamiltonian             ... done
Starting the Coulomb interaction                   ... done (   0.0 sec)
Reading the grid                                   ... done
Mapping shells                                     ... done
Starting the XC term evaluation                    ... done (   0.0 sec)
  promolecular density results
     # of electrons  =     15.000001537
     EX              =    -22.415081057
     EC              =     -0.544024647
     EX+EC           =    -22.959105704
Transforming the Hamiltonian                       ... done (   0.0 sec)
Diagonalizing the Hamiltonian                      ... done (   0.0 sec)
Back transforming the eigenvectors                 ... done (   0.0 sec)
Now organizing SCF variables                       ... done
                      ------------------
                      INITIAL GUESS DONE (   0.3 sec)
                      ------------------
--------------
SCF ITERATIONS
--------------
ITER       Energy         Delta-E        Max-DP      RMS-DP      [F,P]     Damp
               ***  Starting incremental Fock matrix formation  ***
  0   -341.1140380832   0.000000000000 0.02114432  0.00023067  0.0109032 0.7000
  1   -341.1144943235  -0.000456240289 0.01602498  0.00017958  0.0080130 0.7000
                               ***Turning on DIIS***
  2   -341.1148165656  -0.000322242106 0.03917323  0.00042531  0.0053281 0.0000
  3   -341.1154342624  -0.000617696741 0.00465636  0.00005821  0.0033639 0.0000
  4   -341.1154744146  -0.000040152233 0.00159035  0.00002360  0.0009246 0.0000
  5   -341.1154770538  -0.000002639220 0.00024318  0.00000296  0.0001676 0.0000
  6   -341.1154770892  -0.000000035359 0.00001115  0.00000016  0.0000081 0.0000
  7   -341.1154770893  -0.000000000100 0.00000130  0.00000001  0.0000006 0.0000
                 **** Energy Check signals convergence ****

               *****************************************************
               *                     SUCCESS                       *
               *           SCF CONVERGED AFTER   8 CYCLES          *
               *****************************************************


----------------
TOTAL SCF ENERGY
----------------

Total Energy       :         -341.11547709 Eh           -9282.22403 eV

Components:
Nuclear Repulsion  :            0.00000000 Eh               0.00000 eV
Electronic Energy  :         -341.11547709 Eh           -9282.22403 eV
One Electron Energy:         -471.58528682 Eh          -12832.48805 eV
Two Electron Energy:          130.46980973 Eh            3550.26401 eV

Virial components:
Potential Energy   :         -681.95257732 Eh          -18556.87304 eV
Kinetic Energy     :          340.83710023 Eh            9274.64901 eV
Virial Ratio       :            2.00081674


DFT components:
N(Alpha)           :        9.000000538861 electrons
N(Beta)            :        6.000000538942 electrons
N(Total)           :       15.000001077803 electrons
E(X)               :      -22.490615763430 Eh       
E(C)               :       -0.524607886962 Eh       
E(XC)              :      -23.015223650392 Eh       
DFET-embed. en.    :        0.000000000000 Eh       

---------------
SCF CONVERGENCE
---------------

  Last Energy change         ...   -1.8190e-12  Tolerance :   1.0000e-09
  Last MAX-Density change    ...    9.5985e-08  Tolerance :   1.0000e-08
  Last RMS-Density change    ...    1.0618e-09  Tolerance :   1.0000e-09
  Last DIIS Error            ...    2.6256e-08  Tolerance :   1.0000e-08

             **** THE GBW FILE WAS UPDATED (p_pbe.gbw) ****
             **** DENSITY FILE WAS UPDATED (p_pbe.scfp.tmp) ****
             **** ENERGY FILE WAS UPDATED (p_pbe.en.tmp) ****
----------------------
UHF SPIN CONTAMINATION
----------------------

Warning: in a DFT calculation there is little theoretical justification to 
         calculate <S**2> as in Hartree-Fock theory. We will do it anyways
         but you should keep in mind that the values have only limited relevance

Expectation value of <S**2>     :     3.750444
Ideal value S*(S+1) for S=1.5   :     3.750000
Deviation                       :     0.000444

----------------
ORBITAL ENERGIES
----------------
                 SPIN UP ORBITALS
  NO   OCC          E(Eh)            E(eV) 
   0   1.0000     -76.332890     -2077.1235 
   1   1.0000      -6.346018      -172.6839 
   2   1.0000      -4.563057      -124.1671 
   3   1.0000      -4.563057      -124.1671 
   4   1.0000      -4.563057      -124.1671 
   5   1.0000      -0.541256       -14.7283 
   6   1.0000      -0.231269        -6.2932 
   7   1.0000      -0.231269        -6.2932 
   8   1.0000      -0.231269        -6.2932 
   9   0.0000      -0.013790        -0.3752 
  10   0.0000       0.013334         0.3628 
  11   0.0000       0.013334         0.3628 
  12   0.0000       0.013334         0.3628 
  13   0.0000       0.058606         1.5948 
  14   0.0000       0.058606         1.5948 
  15   0.0000       0.058606         1.5948 
  16   0.0000       0.058606         1.5948 
  17   0.0000       0.058606         1.5948 
  18   0.0000       0.092078         2.5056 
  19   0.0000       0.092078         2.5056 
  20   0.0000       0.092078         2.5056 
  21   0.0000       0.162778         4.4294 
  22   0.0000       0.194833         5.3017 
  23   0.0000       0.194833         5.3017 
  24   0.0000       0.194833         5.3017 
  25   0.0000       0.194833         5.3017 
  26   0.0000       0.194833         5.3017 
  27   0.0000       0.194833         5.3017 
  28   0.0000       0.194833         5.3017 
  29   0.0000       0.214224         5.8293 
  30   0.0000       0.214224         5.8293 
  31   0.0000       0.214224         5.8293 
  32   0.0000       0.214224         5.8293 
  33   0.0000       0.214224         5.8293 
  34   0.0000       0.340343         9.2612 
  35   0.0000       0.340343         9.2612 
  36   0.0000       0.340343         9.2612 
  37   0.0000       0.347093         9.4449 
  38   0.0000       0.347093         9.4449 
  39   0.0000       0.347093         9.4449 
  40   0.0000       0.347093         9.4449 
  41   0.0000       0.347093         9.4449 
  42   0.0000       0.347093         9.4449 
  43   0.0000       0.347093         9.4449 
  44   0.0000       0.347093         9.4449 
  45   0.0000       0.347093         9.4449 
  46   0.0000       0.529278        14.4024 
  47   0.0000       0.529278        14.4024 
  48   0.0000       0.529278        14.4024 
  49   0.0000       0.529278        14.4024 
  50   0.0000       0.529278        14.4024 
  51   0.0000       0.529278        14.4024 
  52   0.0000       0.529278        14.4024 
  53   0.0000       0.529278        14.4024 
  54   0.0000       0.529278        14.4024 
  55   0.0000       0.529278        14.4024 
  56   0.0000       0.529278        14.4024 
  57   0.0000       0.678609        18.4659 
  58   0.0000       0.678609        18.4659 
  59   0.0000       0.678609        18.4659 
  60   0.0000       0.678609        18.4659 
  61   0.0000       0.678609        18.4659 
  62   0.0000       0.692588        18.8463 
  63   0.0000       0.876994        23.8642 
  64   0.0000       0.876994        23.8642 
  65   0.0000       0.876994        23.8642 
  66   0.0000       0.876994        23.8642 
  67   0.0000       0.876994        23.8642 
  68   0.0000       0.876994        23.8642 
  69   0.0000       0.876994        23.8642 
  70   0.0000       1.018434        27.7130 
  71   0.0000       1.018434        27.7130 
  72   0.0000       1.018434        27.7130 
  73   0.0000       1.872910        50.9645 
  74   0.0000       1.872910        50.9645 
  75   0.0000       1.872910        50.9645 
  76   0.0000       1.872910        50.9645 
  77   0.0000       1.872910        50.9645 
  78   0.0000       2.133977        58.0685 
  79   0.0000       2.133977        58.0685 
  80   0.0000       2.133977        58.0685 
  81   0.0000       2.133977        58.0685 
  82   0.0000       2.133977        58.0685 
  83   0.0000       2.133977        58.0685 
  84   0.0000       2.133977        58.0685 
  85   0.0000       2.133977        58.0685 
  86   0.0000       2.133977        58.0685 
  87   0.0000       2.322882        63.2088 
  88   0.0000       2.644299        71.9550 
  89   0.0000       2.644299        71.9550 
  90   0.0000       2.644299        71.9550 
  91   0.0000       2.644299        71.9550 
  92   0.0000       2.644299        71.9550 
  93   0.0000       2.644299        71.9550 
  94   0.0000       2.644299        71.9550 
  95   0.0000       3.013709        82.0072 
  96   0.0000       3.013709        82.0072 
  97   0.0000       3.013709        82.0072 
  98   0.0000       4.655326       126.6779 
  99   0.0000       4.655326       126.6779 
 100   0.0000       4.655326       126.6779 
 101   0.0000       4.655326       126.6779 
 102   0.0000       4.655326       126.6779 
 103   0.0000       4.655326       126.6779 
 104   0.0000       4.655326       126.6779 
 105   0.0000       4.655326       126.6779 
 106   0.0000       4.655326       126.6779 
 107   0.0000       4.655326       126.6779 
 108   0.0000       4.655326       126.6779 
 109   0.0000       5.180403       140.9659 
 110   0.0000       5.180403       140.9659 
 111   0.0000       5.180403       140.9659 
 112   0.0000       5.180403       140.9659 
 113   0.0000       5.180403       140.9659 
 114   0.0000       7.231137       196.7692 
 115   0.0000       7.231137       196.7692 
 116   0.0000       7.231137       196.7692 
 117   0.0000       7.231137       196.7692 
 118   0.0000       7.231137       196.7692 
 119   0.0000       7.231137       196.7692 
 120   0.0000       7.231137       196.7692 
 121   0.0000       7.231137       196.7692 
 122   0.0000       7.231137       196.7692 
 123   0.0000      10.185094       277.1505 
 124   0.0000      10.185094       277.1505 
 125   0.0000      10.185094       277.1505 
 126   0.0000      10.185094       277.1505 
 127   0.0000      10.185094       277.1505 
 128   0.0000      10.185094       277.1505 
 129   0.0000      10.185094       277.1505 
 130   0.0000      15.950120       434.0248 
 131   0.0000      15.950120       434.0248 
 132   0.0000      15.950120       434.0248 
 133   0.0000      15.950120       434.0248 
 134   0.0000      15.950120       434.0248 
 135   0.0000      19.554778       532.1126 
 136   0.0000      58.751979      1598.7226 
 137   0.0000      58.751979      1598.7226 
 138   0.0000      58.751979      1598.7226 
 139   0.0000      58.751979      1598.7226 
 140   0.0000      58.751979      1598.7226 

                 SPIN DOWN ORBITALS
  NO   OCC          E(Eh)            E(eV) 
   0   1.0000     -76.322306     -2076.8355 
   1   1.0000      -6.334683      -172.3755 
   2   1.0000      -4.547818      -123.7524 
   3   1.0000      -4.547818      -123.7524 
   4   1.0000      -4.547818      -123.7524 
   5   1.0000      -0.441280       -12.0078 
   6   0.0000      -0.137369        -3.7380 
   7   0.0000      -0.137369        -3.7380 
   8   0.0000      -0.137369        -3.7380 
   9   0.0000       0.021561         0.5867 
  10   0.0000       0.030516         0.8304 
  11   0.0000       0.030516         0.8304 
  12   0.0000       0.030516         0.8304 
  13   0.0000       0.102308         2.7839 
  14   0.0000       0.102308         2.7839 
  15   0.0000       0.102308         2.7839 
  16   0.0000       0.102308         2.7839 
  17   0.0000       0.102308         2.7839 
  18   0.0000       0.122608         3.3363 
  19   0.0000       0.122608         3.3363 
  20   0.0000       0.122608         3.3363 
  21   0.0000       0.199325         5.4239 
  22   0.0000       0.232493         6.3265 
  23   0.0000       0.232493         6.3265 
  24   0.0000       0.232493         6.3265 
  25   0.0000       0.232493         6.3265 
  26   0.0000       0.232493         6.3265 
  27   0.0000       0.232493         6.3265 
  28   0.0000       0.232493         6.3265 
  29   0.0000       0.283659         7.7188 
  30   0.0000       0.283659         7.7188 
  31   0.0000       0.283659         7.7188 
  32   0.0000       0.283659         7.7188 
  33   0.0000       0.283659         7.7188 
  34   0.0000       0.383030        10.4228 
  35   0.0000       0.383030        10.4228 
  36   0.0000       0.383030        10.4228 
  37   0.0000       0.384917        10.4741 
  38   0.0000       0.384917        10.4741 
  39   0.0000       0.384917        10.4741 
  40   0.0000       0.384917        10.4741 
  41   0.0000       0.384917        10.4741 
  42   0.0000       0.384917        10.4741 
  43   0.0000       0.384917        10.4741 
  44   0.0000       0.384917        10.4741 
  45   0.0000       0.384917        10.4741 
  46   0.0000       0.567379        15.4392 
  47   0.0000       0.567379        15.4392 
  48   0.0000       0.567379        15.4392 
  49   0.0000       0.567379        15.4392 
  50   0.0000       0.567379        15.4392 
  51   0.0000       0.567379        15.4392 
  52   0.0000       0.567379        15.4392 
  53   0.0000       0.567379        15.4392 
  54   0.0000       0.567379        15.4392 
  55   0.0000       0.567379        15.4392 
  56   0.0000       0.567379        15.4392 
  57   0.0000       0.749177        20.3861 
  58   0.0000       0.749177        20.3861 
  59   0.0000       0.749177        20.3861 
  60   0.0000       0.749177        20.3861 
  61   0.0000       0.749177        20.3861 
  62   0.0000       0.756112        20.5749 
  63   0.0000       0.970313        26.4036 
  64   0.0000       0.970313        26.4036 
  65   0.0000       0.970313        26.4036 
  66   0.0000       0.970313        26.4036 
  67   0.0000       0.970313        26.4036 
  68   0.0000       0.970313        26.4036 
  69   0.0000       0.970313        26.4036 
  70   0.0000       1.086563        29.5669 
  71   0.0000       1.086563        29.5669 
  72   0.0000       1.086563        29.5669 
  73   0.0000       1.937785        52.7298 
  74   0.0000       1.937785        52.7298 
  75   0.0000       1.937785        52.7298 
  76   0.0000       1.937785        52.7298 
  77   0.0000       1.937785        52.7298 
  78   0.0000       2.248750        61.1916 
  79   0.0000       2.248750        61.1916 
  80   0.0000       2.248750        61.1916 
  81   0.0000       2.248750        61.1916 
  82   0.0000       2.248750        61.1916 
  83   0.0000       2.248750        61.1916 
  84   0.0000       2.248750        61.1916 
  85   0.0000       2.248750        61.1916 
  86   0.0000       2.248750        61.1916 
  87   0.0000       2.385567        64.9146 
  88   0.0000       2.742514        74.6276 
  89   0.0000       2.742514        74.6276 
  90   0.0000       2.742514        74.6276 
  91   0.0000       2.742514        74.6276 
  92   0.0000       2.742514        74.6276 
  93   0.0000       2.742514        74.6276 
  94   0.0000       2.742514        74.6276 
  95   0.0000       3.070571        83.5545 
  96   0.0000       3.070571        83.5545 
  97   0.0000       3.070571        83.5545 
  98   0.0000       4.779037       130.0442 
  99   0.0000       4.779037       130.0442 
 100   0.0000       4.779037       130.0442 
 101   0.0000       4.779037       130.0442 
 102   0.0000       4.779037       130.0442 
 103   0.0000       4.779037       130.0442 
 104   0.0000       4.779037       130.0442 
 105   0.0000       4.779037       130.0442 
 106   0.0000       4.779037       130.0442 
 107   0.0000       4.779037       130.0442 
 108   0.0000       4.779037       130.0442 
 109   0.0000       5.233443       142.4092 
 110   0.0000       5.233443       142.4092 
 111   0.0000       5.233443       142.4092 
 112   0.0000       5.233443       142.4092 
 113   0.0000       5.233443       142.4092 
 114   0.0000       7.301777       198.6915 
 115   0.0000       7.301777       198.6915 
 116   0.0000       7.301777       198.6915 
 117   0.0000       7.301777       198.6915 
 118   0.0000       7.301777       198.6915 
 119   0.0000       7.301777       198.6915 
 120   0.0000       7.301777       198.6915 
 121   0.0000       7.301777       198.6915 
 122   0.0000       7.301777       198.6915 
 123   0.0000      10.201803       277.6052 
 124   0.0000      10.201803       277.6052 
 125   0.0000      10.201803       277.6052 
 126   0.0000      10.201803       277.6052 
 127   0.0000      10.201803       277.6052 
 128   0.0000      10.201803       277.6052 
 129   0.0000      10.201803       277.6052 
 130   0.0000      15.967843       434.5071 
 131   0.0000      15.967843       434.5071 
 132   0.0000      15.967843       434.5071 
 133   0.0000      15.967843       434.5071 
 134   0.0000      15.967843       434.5071 
 135   0.0000      19.604018       533.4524 
 136   0.0000      58.777715      1599.4229 
 137   0.0000      58.777715      1599.4229 
 138   0.0000      58.777715      1599.4229 
 139   0.0000      58.777715      1599.4229 
 140   0.0000      58.777715      1599.4229 

                    ********************************
                    * MULLIKEN POPULATION ANALYSIS *
                    ********************************

--------------------------------------------
MULLIKEN ATOMIC CHARGES AND SPIN POPULATIONS
--------------------------------------------
   0 P :    0.000000    3.000000
Sum of atomic charges         :    0.0000000
Sum of atomic spin populations:    3.0000000

-----------------------------------------------------
MULLIKEN REDUCED ORBITAL CHARGES AND SPIN POPULATIONS
-----------------------------------------------------
CHARGE
  0 P s       :     6.000000  s :     6.000000
      pz      :     3.000000  p :     9.000000
      px      :     3.000000
      py      :     3.000000
      dz2     :     0.000000  d :     0.000000
      dxz     :     0.000000
      dyz     :     0.000000
      dx2y2   :     0.000000
      dxy     :     0.000000
      f0      :     0.000000  f :     0.000000
      f+1     :     0.000000
      f-1     :     0.000000
      f+2     :     0.000000
      f-2     :     0.000000
      f+3     :     0.000000
      f-3     :     0.000000
      g0      :     0.000000  g :     0.000000
      g+1     :     0.000000
      g-1     :     0.000000
      g+2     :     0.000000
      g-2     :     0.000000
      g+3     :     0.000000
      g-3     :     0.000000
      g+4     :     0.000000
      g-4     :     0.000000
      h0      :     0.000000  h :     0.000000
      h+1     :     0.000000
      h-1     :     0.000000
      h+2     :     0.000000
      h-2     :     0.000000
      h+3     :     0.000000
      h-3     :     0.000000
      h+4     :     0.000000
      h-4     :     0.000000
      h+5     :     0.000000
      h-5     :     0.000000

SPIN
  0 P s       :     0.000000  s :     0.000000
      pz      :     1.000000  p :     3.000000
      px      :     1.000000
      py      :     1.000000
      dz2     :     0.000000  d :     0.000000
      dxz     :     0.000000
      dyz     :     0.000000
      dx2y2   :     0.000000
      dxy     :     0.000000
      f0      :     0.000000  f :     0.000000
      f+1     :     0.000000
      f-1     :     0.000000
      f+2     :    -0.000000
      f-2     :     0.000000
      f+3     :     0.000000
      f-3     :     0.000000
      g0      :     0.000000  g :     0.000000
      g+1     :     0.000000
      g-1     :    -0.000000
      g+2     :    -0.000000
      g-2     :     0.000000
      g+3     :     0.000000
      g-3     :     0.000000
      g+4     :     0.000000
      g-4     :     0.000000
      h0      :     0.000000  h :     0.000000
      h+1     :     0.000000
      h-1     :     0.000000
      h+2     :     0.000000
      h-2     :     0.000000
      h+3     :     0.000000
      h-3     :     0.000000
      h+4     :     0.000000
      h-4     :     0.000000
      h+5     :     0.000000
      h-5     :     0.000000


                     *******************************
                     * LOEWDIN POPULATION ANALYSIS *
                     *******************************

-------------------------------------------
LOEWDIN ATOMIC CHARGES AND SPIN POPULATIONS
-------------------------------------------
   0 P :   -0.000000    3.000000

----------------------------------------------------
LOEWDIN REDUCED ORBITAL CHARGES AND SPIN POPULATIONS
----------------------------------------------------
CHARGE
  0 P s       :     6.000000  s :     6.000000
      pz      :     3.000000  p :     9.000000
      px      :     3.000000
      py      :     3.000000
      dz2     :     0.000000  d :     0.000000
      dxz     :     0.000000
      dyz     :     0.000000
      dx2y2   :     0.000000
      dxy     :     0.000000
      f0      :     0.000000  f :     0.000000
      f+1     :     0.000000
      f-1     :     0.000000
      f+2     :     0.000000
      f-2     :     0.000000
      f+3     :     0.000000
      f-3     :     0.000000
      g0      :     0.000000  g :     0.000000
      g+1     :     0.000000
      g-1     :     0.000000
      g+2     :     0.000000
      g-2     :     0.000000
      g+3     :     0.000000
      g-3     :     0.000000
      g+4     :     0.000000
      g-4     :     0.000000
      h0      :     0.000000  h :     0.000000
      h+1     :     0.000000
      h-1     :     0.000000
      h+2     :     0.000000
      h-2     :     0.000000
      h+3     :     0.000000
      h-3     :     0.000000
      h+4     :     0.000000
      h-4     :     0.000000
      h+5     :     0.000000
      h-5     :     0.000000

SPIN
  0 P s       :     0.000000  s :     0.000000
      pz      :     1.000000  p :     3.000000
      px      :     1.000000
      py      :     1.000000
      dz2     :     0.000000  d :     0.000000
      dxz     :     0.000000
      dyz     :     0.000000
      dx2y2   :     0.000000
      dxy     :     0.000000
      f0      :     0.000000  f :     0.000000
      f+1     :     0.000000
      f-1     :     0.000000
      f+2     :    -0.000000
      f-2     :     0.000000
      f+3     :     0.000000
      f-3     :     0.000000
      g0      :     0.000000  g :     0.000000
      g+1     :     0.000000
      g-1     :    -0.000000
      g+2     :    -0.000000
      g-2     :     0.000000
      g+3     :     0.000000
      g-3     :     0.000000
      g+4     :     0.000000
      g-4     :     0.000000
      h0      :     0.000000  h :     0.000000
      h+1     :     0.000000
      h-1     :     0.000000
      h+2     :     0.000000
      h-2     :     0.000000
      h+3     :     0.000000
      h-3     :     0.000000
      h+4     :     0.000000
      h-4     :     0.000000
      h+5     :     0.000000
      h-5     :     0.000000


                      *****************************
                      * MAYER POPULATION ANALYSIS *
                      *****************************

  NA   - Mulliken gross atomic population
  ZA   - Total nuclear charge
  QA   - Mulliken gross atomic charge
  VA   - Mayer's total valence
  BVA  - Mayer's bonded valence
  FA   - Mayer's free valence

  ATOM       NA         ZA         QA         VA         BVA        FA
  0 P     15.0000    15.0000     0.0000     3.0009     0.0000     3.0009

  Mayer bond orders larger than 0.1


-------
TIMINGS
-------

Total SCF time: 0 days 0 hours 0 min 9 sec 

Total time                  ....       9.562 sec
Sum of individual times     ....       8.874 sec  ( 92.8%)

Fock matrix formation       ....       8.380 sec  ( 87.6%)
  XC integration            ....       0.954 sec  ( 11.4% of F)
    Basis function eval.    ....       0.115 sec  ( 12.1% of XC)
    Density eval.           ....       0.139 sec  ( 14.5% of XC)
    XC-Functional eval.     ....       0.037 sec  (  3.9% of XC)
    XC-Potential eval.      ....       0.440 sec  ( 46.1% of XC)
Diagonalization             ....       0.094 sec  (  1.0%)
Density matrix formation    ....       0.003 sec  (  0.0%)
Population analysis         ....       0.035 sec  (  0.4%)
Initial guess               ....       0.152 sec  (  1.6%)
Orbital Transformation      ....       0.000 sec  (  0.0%)
Orbital Orthonormalization  ....       0.000 sec  (  0.0%)
DIIS solution               ....       0.068 sec  (  0.7%)
Grid generation             ....       0.141 sec  (  1.5%)

-------------------------   --------------------
FINAL SINGLE POINT ENERGY      -341.115477089269
-------------------------   --------------------


                            ***************************************
                            *     ORCA property calculations      *
                            ***************************************

                                    ---------------------
                                    Active property flags
                                    ---------------------
   (+) Dipole Moment
   (+) Polarizability


------------------------------------------------------------------------------
                       ORCA ELECTRIC PROPERTIES CALCULATION
------------------------------------------------------------------------------

Dipole Moment Calculation                       ... on
Quadrupole Moment Calculation                   ... off
Polarizability Calculation                      ... Analytic (CP-SCF)
GBWName                                         ... p_pbe.gbw
Electron density file                           ... p_pbe.scfp.tmp
The origin for moment calculation is the CENTER OF MASS  = ( 0.000000,  0.000000  0.000000)

-------------
DIPOLE MOMENT
-------------
                                X             Y             Z
Electronic contribution:      0.00000       0.00000       0.00000
Nuclear contribution   :      0.00000       0.00000       0.00000
                        -----------------------------------------
Total Dipole Moment    :      0.00000       0.00000       0.00000
                        -----------------------------------------
Magnitude (a.u.)       :      0.00000
Magnitude (Debye)      :      0.00000



--------------------
Rotational spectrum 
--------------------
 
Rotational constants in cm-1:     0.000000     0.000000     0.000000 
Rotational constants in MHz :     0.000000     0.000000     0.000000 

 Dipole components along the rotational axes: 
x,y,z [a.u.] :     0.000000     0.000000     0.000000 
x,y,z [Debye]:     0.000000     0.000000     0.000000 

 
Transforming and storing MO dipole integrals   ... done

                ... starting polarizability calculation

Opening the Dipole integral file               ... (p_pbe.dmo.tmp) done
Reading Dipole-MO integrals                    ... done
Solving CP-SCF equations                       ... 

           ************************************************************
           *        Program running with 4 parallel MPI-processes     *
           *              working on a common directory               *
           ************************************************************

------------------------------------------------------------------------------
                           ORCA CP-SCF CALCULATION
------------------------------------------------------------------------------

Input orbitals are from        ... p_pbe.gbw
Input Perturbation             ... p_pbe.cpv.tmp
Wavefunction output            ... p_pbe.cpu.tmp
Perturbation mode              ... Real perturbation (singlet)
Solver                         ... POPLE
Max. number of iterations      ... 200
Convergence tolerance          ... 1.000e-06
Integral handling              ... Direct
Number of perturbations        ... 3
Number of operators            ... 2
Orbital ranges used for CP-SCF:
 Operator 0:  Orbitals   0...  8  to   9...140
 Operator 1:  Orbitals   0...  5  to   6...140
DFT calculation                         ... on
Exchange functional (SCF)               ... PBE
Exchange functional (CP-SCF)            ... PBE
   PBE kappa parameter  XKappa (SCF)    ...  0.804000
   PBE kappa parameter  XKappa (CP-SCF) ...  0.804000
   PBE mue parameter   XMuePBE (SCF)    ...  0.219520
   PBE mue parameter   XMuePBE (CP-SCF) ...  0.219520
Correlation functional (SCF)            ... PBE
Correlation functional (CP-SCF)         ... PBE
   PBE beta parameter CBetaPBE (SCF)    ...  0.066725
   PBE beta parameter CBetaPBE (CP-SCF) ...  0.066725
 LDA part of GGA corr.  LDAOpt (SCF)    ... PW91-LDA
 LDA part of GGA corr.  LDAOpt (CP-SCF) ... PW91-LDA
Variables per vector in CP-SCF ... 1998
Number of vectors sought       ... 3
Recalculating density on grid  ... done
Calculating the xc-kernel      ... done
     CP-SCF ITERATION   0: 
     CP-SCF ITERATION   1:      0.010831669139
     CP-SCF ITERATION   2:      0.000363974155
     CP-SCF ITERATION   3:      0.000016338413
     CP-SCF ITERATION   4:      0.000000054390
done
Reading CP-SCF coefficients                    ... done
Doing the polarizability tensor   ... done
Cleaning up                                    ... done

-------------------------
THE POLARIZABILITY TENSOR
-------------------------

The raw cartesian tensor (atomic units):
   27.77591     -0.00000      0.00000  
   -0.00000     27.77591     -0.00000  
    0.00000     -0.00000     27.77591  
diagonalized tensor: 
   27.77591     27.77591     27.77591  

    0.03149      0.99542      0.09031  
    0.83131      0.02408     -0.55529  
    0.55492     -0.09256      0.82674  

Isotropic polarizability :  27.77591


Timings for individual modules:

Sum of individual times         ...       39.931 sec (=   0.666 min)
GTO integral calculation        ...        6.721 sec (=   0.112 min)  16.8 %
SCF iterations                  ...       15.120 sec (=   0.252 min)  37.9 %
Solution of CP-SCF eqns.        ...       18.090 sec (=   0.302 min)  45.3 %
                             ****ORCA TERMINATED NORMALLY****
TOTAL RUN TIME: 0 days 0 hours 0 minutes 41 seconds 845 msec
