
                                 *****************
                                 * O   R   C   A *
                                 *****************

           --- An Ab Initio, DFT and Semiempirical electronic structure package ---

                  #######################################################
                  #                        -***-                        #
                  #          Department of theory and spectroscopy      #
                  #               Directorship: Frank Neese             #
                  #        Max Planck Institute fuer Kohlenforschung    #
                  #                Kaiser Wilhelm Platz 1               #
                  #                 D-45470 Muelheim/Ruhr               #
                  #                      Germany                        #
                  #                                                     #
                  #                  All rights reserved                #
                  #                        -***-                        #
                  #######################################################


                         Program Version 4.1.2  - RELEASE  -


 With contributions from (in alphabetic order):
   Daniel Aravena         : Magnetic Properties
   Michael Atanasov       : Ab Initio Ligand Field Theory
   Alexander A. Auer      : GIAO ZORA
   Ute Becker             : Parallelization
   Giovanni Bistoni       : ED, Open-shell LED
   Martin Brehm           : Molecular dynamics
   Dmytro Bykov           : SCF Hessian
   Vijay G. Chilkuri      : MRCI spin determinant printing
   Dipayan Datta          : RHF DLPNO-CCSD density
   Achintya Kumar Dutta   : EOM-CC, STEOM-CC
   Dmitry Ganyushin       : Spin-Orbit,Spin-Spin,Magnetic field MRCI
   Miquel Garcia          : C-PCM Hessian
   Yang Guo               : DLPNO-NEVPT2, CIM, IAO-localization
   Andreas Hansen         : Spin unrestricted coupled pair/coupled cluster methods
   Benjamin Helmich-Paris : CASSCF linear response (MC-RPA)
   Lee Huntington         : MR-EOM, pCC
   Robert Izsak           : Overlap fitted RIJCOSX, COSX-SCS-MP3, EOM
   Christian Kollmar      : KDIIS, OOCD, Brueckner-CCSD(T), CCSD density
   Simone Kossmann        : Meta GGA functionals, TD-DFT gradient, OOMP2, MP2 Hessian
   Martin Krupicka        : AUTO-CI
   Lucas Lang             : DCDCAS
   Dagmar Lenk            : GEPOL surface, SMD
   Dimitrios Liakos       : Extrapolation schemes; parallel MDCI
   Dimitrios Manganas     : ROCIS; embedding schemes
   Dimitrios Pantazis     : SARC Basis sets
   Taras Petrenko         : DFT Hessian,TD-DFT gradient, ASA, ECA, R-Raman, ABS, FL, XAS/XES, NRVS
   Peter Pinski           : DLPNO-MP2, DLPNO-MP2 Gradient
   Christoph Reimann      : Effective Core Potentials
   Marius Retegan         : Local ZFS, SOC
   Christoph Riplinger    : Optimizer, TS searches, QM/MM, DLPNO-CCSD(T), (RO)-DLPNO pert. Triples
   Tobias Risthaus        : Range-separated hybrids, TD-DFT gradient, RPA, STAB
   Michael Roemelt        : Restricted open shell CIS
   Masaaki Saitow         : Open-shell DLPNO
   Barbara Sandhoefer     : DKH picture change effects
   Avijit Sen             : IP-ROCIS
   Kantharuban Sivalingam : CASSCF convergence, NEVPT2, FIC-MRCI
   Bernardo de Souza      : ESD, SOC TD-DFT
   Georgi Stoychev        : AutoAux, RI-MP2 NMR
   Willem Van den Heuvel  : Paramagnetic NMR
   Boris Wezisla          : Elementary symmetry handling
   Frank Wennmohs         : Technical directorship


 We gratefully acknowledge several colleagues who have allowed us to
 interface, adapt or use parts of their codes:
   Stefan Grimme, W. Hujo, H. Kruse,             : VdW corrections, initial TS optimization,
                  C. Bannwarth                     DFT functionals, gCP, sTDA/sTD-DF
   Ed Valeev                                     : LibInt (2-el integral package), F12 methods
   Garnet Chan, S. Sharma, J. Yang, R. Olivares  : DMRG
   Ulf Ekstrom                                   : XCFun DFT Library
   Mihaly Kallay                                 : mrcc  (arbitrary order and MRCC methods)
   Andreas Klamt, Michael Diedenhofen            : otool_cosmo (COSMO solvation model)
   Jiri Pittner, Ondrej Demel                    : Mk-CCSD
   Frank Weinhold                                : gennbo (NPA and NBO analysis)
   Christopher J. Cramer and Donald G. Truhlar   : smd solvation model
   Lars Goerigk                                  : TD-DFT with DH, B97 family of functionals
   V. Asgeirsson, H. Jonsson                     : NEB implementation
   FAccTs GmbH                                   : IRC, NEB, NEB-TS, Multilevel


 Your calculation uses the libint2 library for the computation of 2-el integrals
 For citations please refer to: http://libint.valeyev.net

 This ORCA versions uses:
   CBLAS   interface :  Fast vector & matrix operations
   LAPACKE interface :  Fast linear algebra routines
   SCALAPACK package :  Parallel linear algebra routines


----- Orbital basis set information -----
Your calculation utilizes the basis: aug-pc-4
   H, C-F              : F. Jensen, J. Chem. Phys. 115, 9113 (2001).
                         F. Jensen, J. Chem. Phys. 116, 7372 (2002).
                         F. Jensen, J. Chem. Phys. 117, 9234 (2002).
   Si-Cl               : F. Jensen, T. Helgaker, J. Chem. Phys. 121, 3463 (2004).
   He-B, Ne-Mg, Al, Ar : F. Jensen, J. Phys. Chem. A 111, 11198 (2007).
   K, Ca, Ga-Kr        : F. Jensen, J. Chem. Phys. 136, 094110 (2012).
   Sc-Zn               : F. Jensen, J. Chem. Phys. 138, 014107 (2013).

================================================================================
                                        WARNINGS
                       Please study these warnings very carefully!
================================================================================


INFO   : the flag for use of LIBINT has been found!

================================================================================
                                       INPUT FILE
================================================================================
NAME = ph2_pbe.inp
|  1> !uks pbe nori aug-pc-4 grid5 nofinalgrid verytightscf
|  2> 
|  3> %maxcore 1500
|  4> 
|  5> %pal nprocs 4 end
|  6> 
|  7> %scf
|  8> 	maxiter 200
|  9> end
| 10> %elprop
| 11> 	dipole true
| 12> 	 polar 1
| 13> 	 maxiter 200
| 14> end
| 15> 
| 16> * xyz 0 2
| 17> P 0.0000 0.0000 0.0000
| 18> H 0.0000 1.0229 0.9964
| 19> H 0.0000 -1.0229 0.9964
| 20> *
| 21> 
| 22>                          ****END OF INPUT****
================================================================================

                       ****************************
                       * Single Point Calculation *
                       ****************************

---------------------------------
CARTESIAN COORDINATES (ANGSTROEM)
---------------------------------
  P      0.000000    0.000000    0.000000
  H      0.000000    1.022900    0.996400
  H      0.000000   -1.022900    0.996400

----------------------------
CARTESIAN COORDINATES (A.U.)
----------------------------
  NO LB      ZA    FRAG     MASS         X           Y           Z
   0 P    15.0000    0    30.974    0.000000    0.000000    0.000000
   1 H     1.0000    0     1.008    0.000000    1.933001    1.882923
   2 H     1.0000    0     1.008    0.000000   -1.933001    1.882923

--------------------------------
INTERNAL COORDINATES (ANGSTROEM)
--------------------------------
 P      0   0   0     0.000000000000     0.00000000     0.00000000
 H      1   0   0     1.427983672876     0.00000000     0.00000000
 H      1   2   0     1.427983672876    91.50373991     0.00000000

---------------------------
INTERNAL COORDINATES (A.U.)
---------------------------
 P      0   0   0     0.000000000000     0.00000000     0.00000000
 H      1   0   0     2.698498065446     0.00000000     0.00000000
 H      1   2   0     2.698498065446    91.50373991     0.00000000

---------------------
BASIS SET INFORMATION
---------------------
There are 2 groups of distinct atoms

 Group   1 Type P   : 44s27p7d4f3g2h contracted to 8s7p7d4f3g2h pattern {15121211111/111111111/1111111/1111/111/11}
 Group   2 Type H   : 12s7p4d3f2g contracted to 8s7p4d3f2g pattern {51111111/1111111/1111/111/11}

Atom   0P    basis set group =>   1
Atom   1H    basis set group =>   2
Atom   2H    basis set group =>   2


           ************************************************************
           *        Program running with 4 parallel MPI-processes     *
           *              working on a common directory               *
           ************************************************************
------------------------------------------------------------------------------
                           ORCA GTO INTEGRAL CALCULATION
------------------------------------------------------------------------------

                         BASIS SET STATISTICS AND STARTUP INFO

 # of primitive gaussian shells          ...  143
 # of primitive gaussian functions       ...  421
 # of contracted shells                  ...   79
 # of contracted basis functions         ...  317
 Highest angular momentum                ...    5
 Maximum contraction depth               ...   15
 Integral package used                   ... LIBINT
 Integral threshhold            Thresh   ...  1.000e-12
 Primitive cut-off              TCut     ...  1.000e-14


------------------------------ INTEGRAL EVALUATION ----------------------------


 * One electron integrals 
 Pre-screening matrix                    ... done
 Shell pair data                         ... done (   0.001 sec)



           ************************************************************
           *        Program running with 4 parallel MPI-processes     *
           *              working on a common directory               *
           ************************************************************
-------------------------------------------------------------------------------
                                 ORCA SCF
-------------------------------------------------------------------------------

------------
SCF SETTINGS
------------
Hamiltonian:
 Density Functional     Method          .... DFT(GTOs)
 Exchange Functional    Exchange        .... PBE
   PBE kappa parameter   XKappa         ....  0.804000
   PBE mue parameter    XMuePBE         ....  0.219520
 Correlation Functional Correlation     .... PBE
   PBE beta parameter  CBetaPBE         ....  0.066725
 LDA part of GGA corr.  LDAOpt          .... PW91-LDA
 Gradients option       PostSCFGGA      .... off
   Density functional embedding theory  .... OFF
   NL short-range parameter             ....  6.400000


General Settings:
 Integral files         IntName         .... ph2_pbe
 Hartree-Fock type      HFTyp           .... UHF
 Total Charge           Charge          ....    0
 Multiplicity           Mult            ....    2
 Number of Electrons    NEL             ....   17
 Basis Dimension        Dim             ....  317
 Nuclear Repulsion      ENuc            ....     11.3759605236 Eh

Convergence Acceleration:
 DIIS                   CNVDIIS         .... on
   Start iteration      DIISMaxIt       ....    12
   Startup error        DIISStart       ....  0.200000
   # of expansion vecs  DIISMaxEq       ....     5
   Bias factor          DIISBfac        ....   1.050
   Max. coefficient     DIISMaxC        ....  10.000
 Newton-Raphson         CNVNR           .... off
 SOSCF                  CNVSOSCF        .... off
 Level Shifting         CNVShift        .... on
   Level shift para.    LevelShift      ....    0.2500
   Turn off err/grad.   ShiftErr        ....    0.0010
 Zerner damping         CNVZerner       .... off
 Static damping         CNVDamp         .... on
   Fraction old density DampFac         ....    0.7000
   Max. Damping (<1)    DampMax         ....    0.9800
   Min. Damping (>=0)   DampMin         ....    0.0000
   Turn off err/grad.   DampErr         ....    0.1000
 Fernandez-Rico         CNVRico         .... off

SCF Procedure:
 Maximum # iterations   MaxIter         ....   200
 SCF integral mode      SCFMode         .... Direct
   Integral package                     .... LIBINT
 Reset frequency        DirectResetFreq ....    20
 Integral Threshold     Thresh          ....  1.000e-12 Eh
 Primitive CutOff       TCut            ....  1.000e-14 Eh

Convergence Tolerance:
 Convergence Check Mode ConvCheckMode   .... Total+1el-Energy
 Convergence forced     ConvForced      .... 0
 Energy Change          TolE            ....  1.000e-09 Eh
 1-El. energy change                    ....  1.000e-06 Eh
 DIIS Error             TolErr          ....  1.000e-08


Diagonalization of the overlap matrix:
Smallest eigenvalue                        ... 4.004e-06
Time for diagonalization                   ...    0.020 sec
Threshold for overlap eigenvalues          ... 1.000e-08
Number of eigenvalues below threshold      ... 0
Time for construction of square roots      ...    0.022 sec
Total time needed                          ...    0.043 sec

-------------------
DFT GRID GENERATION
-------------------

General Integration Accuracy     IntAcc      ...  5.010
Radial Grid Type                 RadialGrid  ... Gauss-Chebyshev
Angular Grid (max. acc.)         AngularGrid ... Lebedev-434
Angular grid pruning method      GridPruning ... 3 (G Style)
Weight generation scheme         WeightScheme... Becke
Basis function cutoff            BFCut       ...    1.0000e-12
Integration weight cutoff        WCut        ...    1.0000e-14
Grids for H and He will be reduced by one unit

# of grid points (after initial pruning)     ...  25016 (   0.0 sec)
# of grid points (after weights+screening)   ...  24866 (   0.0 sec)
nearest neighbour list constructed           ...    0.0 sec
Grid point re-assignment to atoms done       ...    0.0 sec
Grid point division into batches done        ...    0.2 sec
Reduced shell lists constructed in    0.2 sec

Total number of grid points                  ...    24866
Total number of batches                      ...      391
Average number of points per batch           ...       63
Average number of grid points per atom       ...     8289
Average number of shells per batch           ...    59.26 (75.02%)
Average number of basis functions per batch  ...   244.33 (77.08%)
Average number of large shells per batch     ...    53.38 (90.08%)
Average number of large basis fcns per batch ...   221.79 (90.77%)
Maximum spatial batch extension              ...  20.58, 20.58, 16.72 au
Average spatial batch extension              ...   1.01,  0.98,  0.90 au

Time for grid setup =    0.251 sec

------------------------------
INITIAL GUESS: MODEL POTENTIAL
------------------------------
Loading Hartree-Fock densities                     ... done
Calculating cut-offs                               ... done
Setting up the integral package                    ... done
Initializing the effective Hamiltonian             ... done
Starting the Coulomb interaction                   ... done (   0.0 sec)
Reading the grid                                   ... done
Mapping shells                                     ... done
Starting the XC term evaluation                    ... done (   0.3 sec)
  promolecular density results
     # of electrons  =     16.999022441
     EX              =    -23.052939767
     EC              =     -0.609763054
     EX+EC           =    -23.662702820
Transforming the Hamiltonian                       ... done (   0.0 sec)
Diagonalizing the Hamiltonian                      ... done (   0.0 sec)
Back transforming the eigenvectors                 ... done (   0.0 sec)
Now organizing SCF variables                       ... done
                      ------------------
                      INITIAL GUESS DONE (   0.7 sec)
                      ------------------
--------------
SCF ITERATIONS
--------------
ITER       Energy         Delta-E        Max-DP      RMS-DP      [F,P]     Damp
               ***  Starting incremental Fock matrix formation  ***
  0   -342.3548069167   0.000000000000 0.01492899  0.00009567  0.0370952 0.7000
  1   -342.3572786873  -0.002471770607 0.01216790  0.00007408  0.0245900 0.7000
                               ***Turning on DIIS***
  2   -342.3588391276  -0.001560440352 0.02868043  0.00016019  0.0143940 0.0000
  3   -342.3616364516  -0.002797324005 0.00583270  0.00004953  0.0096894 0.0000
  4   -342.3619464870  -0.000310035346 0.00178057  0.00001267  0.0020263 0.0000
  5   -342.3619742408  -0.000027753801 0.00104688  0.00000964  0.0005674 0.0000
  6   -342.3619800458  -0.000005805038 0.00030224  0.00000254  0.0001319 0.0000
  7   -342.3619801999  -0.000000154064 0.00007471  0.00000048  0.0000464 0.0000
  8   -342.3619802103  -0.000000010428 0.00003249  0.00000030  0.0000187 0.0000
  9   -342.3619802137  -0.000000003419 0.00000748  0.00000008  0.0000015 0.0000
 10   -342.3619802139  -0.000000000121 0.00000218  0.00000002  0.0000005 0.0000
                 **** Energy Check signals convergence ****

               *****************************************************
               *                     SUCCESS                       *
               *           SCF CONVERGED AFTER  11 CYCLES          *
               *****************************************************


----------------
TOTAL SCF ENERGY
----------------

Total Energy       :         -342.36198021 Eh           -9316.14311 eV

Components:
Nuclear Repulsion  :           11.37596052 Eh             309.55562 eV
Electronic Energy  :         -353.73794074 Eh           -9625.69873 eV
One Electron Energy:         -495.64089144 Eh          -13487.07433 eV
Two Electron Energy:          141.90295070 Eh            3861.37560 eV

Virial components:
Potential Energy   :         -684.41237681 Eh          -18623.80759 eV
Kinetic Energy     :          342.05039660 Eh            9307.66448 eV
Virial Ratio       :            2.00091093


DFT components:
N(Alpha)           :        9.000000070671 electrons
N(Beta)            :        8.000000048306 electrons
N(Total)           :       17.000000118978 electrons
E(X)               :      -23.158769502917 Eh       
E(C)               :       -0.604296430506 Eh       
E(XC)              :      -23.763065933423 Eh       
DFET-embed. en.    :        0.000000000000 Eh       

---------------
SCF CONVERGENCE
---------------

  Last Energy change         ...   -3.1832e-12  Tolerance :   1.0000e-09
  Last MAX-Density change    ...    4.9198e-06  Tolerance :   1.0000e-08
  Last RMS-Density change    ...    3.3660e-08  Tolerance :   1.0000e-09
  Last DIIS Error            ...    1.0745e-07  Tolerance :   1.0000e-08

             **** THE GBW FILE WAS UPDATED (ph2_pbe.gbw) ****
             **** DENSITY FILE WAS UPDATED (ph2_pbe.scfp.tmp) ****
             **** ENERGY FILE WAS UPDATED (ph2_pbe.en.tmp) ****
----------------------
UHF SPIN CONTAMINATION
----------------------

Warning: in a DFT calculation there is little theoretical justification to 
         calculate <S**2> as in Hartree-Fock theory. We will do it anyways
         but you should keep in mind that the values have only limited relevance

Expectation value of <S**2>     :     0.755474
Ideal value S*(S+1) for S=0.5   :     0.750000
Deviation                       :     0.005474

----------------
ORBITAL ENERGIES
----------------
                 SPIN UP ORBITALS
  NO   OCC          E(Eh)            E(eV) 
   0   1.0000     -76.299721     -2076.2210 
   1   1.0000      -6.318006      -171.9217 
   2   1.0000      -4.538060      -123.4869 
   3   1.0000      -4.532189      -123.3271 
   4   1.0000      -4.528984      -123.2399 
   5   1.0000      -0.578579       -15.7439 
   6   1.0000      -0.349319        -9.5054 
   7   1.0000      -0.278757        -7.5854 
   8   1.0000      -0.222109        -6.0439 
   9   0.0000      -0.025751        -0.7007 
  10   0.0000      -0.017443        -0.4747 
  11   0.0000       0.012698         0.3455 
  12   0.0000       0.014234         0.3873 
  13   0.0000       0.015235         0.4146 
  14   0.0000       0.024681         0.6716 
  15   0.0000       0.041994         1.1427 
  16   0.0000       0.043181         1.1750 
  17   0.0000       0.050942         1.3862 
  18   0.0000       0.051302         1.3960 
  19   0.0000       0.054086         1.4718 
  20   0.0000       0.076767         2.0889 
  21   0.0000       0.082107         2.2343 
  22   0.0000       0.085503         2.3267 
  23   0.0000       0.111351         3.0300 
  24   0.0000       0.120403         3.2763 
  25   0.0000       0.121925         3.3177 
  26   0.0000       0.125389         3.4120 
  27   0.0000       0.126014         3.4290 
  28   0.0000       0.133619         3.6359 
  29   0.0000       0.135179         3.6784 
  30   0.0000       0.140838         3.8324 
  31   0.0000       0.147086         4.0024 
  32   0.0000       0.153270         4.1707 
  33   0.0000       0.156523         4.2592 
  34   0.0000       0.160785         4.3752 
  35   0.0000       0.189528         5.1573 
  36   0.0000       0.216326         5.8865 
  37   0.0000       0.221529         6.0281 
  38   0.0000       0.221568         6.0292 
  39   0.0000       0.231818         6.3081 
  40   0.0000       0.235792         6.4162 
  41   0.0000       0.239057         6.5051 
  42   0.0000       0.242625         6.6022 
  43   0.0000       0.246960         6.7201 
  44   0.0000       0.254888         6.9359 
  45   0.0000       0.262577         7.1451 
  46   0.0000       0.266075         7.2403 
  47   0.0000       0.270056         7.3486 
  48   0.0000       0.271716         7.3938 
  49   0.0000       0.279069         7.5938 
  50   0.0000       0.282092         7.6761 
  51   0.0000       0.287478         7.8227 
  52   0.0000       0.298141         8.1128 
  53   0.0000       0.325696         8.8627 
  54   0.0000       0.344207         9.3664 
  55   0.0000       0.344902         9.3853 
  56   0.0000       0.347870         9.4660 
  57   0.0000       0.364208         9.9106 
  58   0.0000       0.365764         9.9529 
  59   0.0000       0.380444        10.3524 
  60   0.0000       0.381077        10.3696 
  61   0.0000       0.399082        10.8596 
  62   0.0000       0.402349        10.9485 
  63   0.0000       0.406122        11.0511 
  64   0.0000       0.425403        11.5758 
  65   0.0000       0.427001        11.6193 
  66   0.0000       0.428825        11.6689 
  67   0.0000       0.428852        11.6696 
  68   0.0000       0.437506        11.9051 
  69   0.0000       0.449431        12.2296 
  70   0.0000       0.457389        12.4462 
  71   0.0000       0.466506        12.6943 
  72   0.0000       0.470217        12.7953 
  73   0.0000       0.480048        13.0628 
  74   0.0000       0.480767        13.0823 
  75   0.0000       0.485746        13.2178 
  76   0.0000       0.491726        13.3806 
  77   0.0000       0.503670        13.7056 
  78   0.0000       0.510163        13.8822 
  79   0.0000       0.520849        14.1730 
  80   0.0000       0.529623        14.4118 
  81   0.0000       0.539167        14.6715 
  82   0.0000       0.546430        14.8691 
  83   0.0000       0.551572        15.0090 
  84   0.0000       0.572333        15.5740 
  85   0.0000       0.579791        15.7769 
  86   0.0000       0.596776        16.2391 
  87   0.0000       0.598958        16.2985 
  88   0.0000       0.605757        16.4835 
  89   0.0000       0.607381        16.5277 
  90   0.0000       0.617336        16.7986 
  91   0.0000       0.620513        16.8850 
  92   0.0000       0.621091        16.9007 
  93   0.0000       0.623257        16.9597 
  94   0.0000       0.635758        17.2999 
  95   0.0000       0.636871        17.3302 
  96   0.0000       0.651963        17.7408 
  97   0.0000       0.653284        17.7768 
  98   0.0000       0.664515        18.0824 
  99   0.0000       0.664727        18.0881 
 100   0.0000       0.668276        18.1847 
 101   0.0000       0.682605        18.5746 
 102   0.0000       0.711023        19.3479 
 103   0.0000       0.718595        19.5540 
 104   0.0000       0.733262        19.9531 
 105   0.0000       0.743790        20.2396 
 106   0.0000       0.745254        20.2794 
 107   0.0000       0.749018        20.3818 
 108   0.0000       0.756745        20.5921 
 109   0.0000       0.760239        20.6872 
 110   0.0000       0.762882        20.7591 
 111   0.0000       0.766805        20.8658 
 112   0.0000       0.791618        21.5410 
 113   0.0000       0.800360        21.7789 
 114   0.0000       0.818783        22.2802 
 115   0.0000       0.829441        22.5702 
 116   0.0000       0.844549        22.9813 
 117   0.0000       0.854561        23.2538 
 118   0.0000       0.889141        24.1948 
 119   0.0000       0.920109        25.0374 
 120   0.0000       0.920972        25.0609 
 121   0.0000       0.945970        25.7411 
 122   0.0000       0.963417        26.2159 
 123   0.0000       0.988353        26.8944 
 124   0.0000       1.040749        28.3202 
 125   0.0000       1.087745        29.5990 
 126   0.0000       1.114530        30.3279 
 127   0.0000       1.163705        31.6660 
 128   0.0000       1.167874        31.7795 
 129   0.0000       1.182685        32.1825 
 130   0.0000       1.182741        32.1840 
 131   0.0000       1.213907        33.0321 
 132   0.0000       1.227328        33.3973 
 133   0.0000       1.243452        33.8361 
 134   0.0000       1.267782        34.4981 
 135   0.0000       1.296971        35.2924 
 136   0.0000       1.325882        36.0791 
 137   0.0000       1.380581        37.5675 
 138   0.0000       1.399250        38.0755 
 139   0.0000       1.424035        38.7500 
 140   0.0000       1.436445        39.0877 
 141   0.0000       1.440973        39.2109 
 142   0.0000       1.444300        39.3014 
 143   0.0000       1.488151        40.4947 
 144   0.0000       1.506348        40.9898 
 145   0.0000       1.593585        43.3637 
 146   0.0000       1.597314        43.4651 
 147   0.0000       1.605017        43.6747 
 148   0.0000       1.656311        45.0705 
 149   0.0000       1.686003        45.8785 
 150   0.0000       1.696862        46.1740 
 151   0.0000       2.113742        57.5178 
 152   0.0000       2.125215        57.8301 
 153   0.0000       2.135373        58.1065 
 154   0.0000       2.140154        58.2366 
 155   0.0000       2.177543        59.2540 
 156   0.0000       2.271404        61.8081 
 157   0.0000       2.329851        63.3985 
 158   0.0000       2.330121        63.4058 
 159   0.0000       2.369808        64.4857 
 160   0.0000       2.437100        66.3169 
 161   0.0000       2.514468        68.4221 
 162   0.0000       2.580459        70.2178 
 163   0.0000       2.622776        71.3694 
 164   0.0000       2.627531        71.4987 
 165   0.0000       2.634075        71.6768 
 166   0.0000       2.786288        75.8188 
 167   0.0000       2.844764        77.4100 
 168   0.0000       2.853620        77.6510 
 169   0.0000       2.856693        77.7346 
 170   0.0000       2.906179        79.0811 
 171   0.0000       2.911971        79.2388 
 172   0.0000       2.944374        80.1205 
 173   0.0000       2.978492        81.0489 
 174   0.0000       2.987558        81.2956 
 175   0.0000       3.038661        82.6862 
 176   0.0000       3.052412        83.0603 
 177   0.0000       3.078158        83.7609 
 178   0.0000       3.154811        85.8468 
 179   0.0000       3.230419        87.9042 
 180   0.0000       3.332499        90.6819 
 181   0.0000       3.378498        91.9336 
 182   0.0000       3.413286        92.8802 
 183   0.0000       3.422251        93.1242 
 184   0.0000       3.427051        93.2548 
 185   0.0000       3.468613        94.3858 
 186   0.0000       3.468834        94.3918 
 187   0.0000       3.542709        96.4020 
 188   0.0000       3.553548        96.6970 
 189   0.0000       3.602879        98.0393 
 190   0.0000       3.657371        99.5221 
 191   0.0000       3.678131       100.0870 
 192   0.0000       3.704200       100.7964 
 193   0.0000       3.720493       101.2397 
 194   0.0000       3.757712       102.2525 
 195   0.0000       3.793360       103.2226 
 196   0.0000       3.956668       107.6664 
 197   0.0000       3.960929       107.7824 
 198   0.0000       4.029618       109.6515 
 199   0.0000       4.211410       114.5983 
 200   0.0000       4.284465       116.5862 
 201   0.0000       4.476221       121.8042 
 202   0.0000       4.850077       131.9773 
 203   0.0000       4.852707       132.0489 
 204   0.0000       4.872788       132.5953 
 205   0.0000       4.881452       132.8311 
 206   0.0000       4.974830       135.3720 
 207   0.0000       4.978700       135.4773 
 208   0.0000       4.984229       135.6278 
 209   0.0000       5.196971       141.4168 
 210   0.0000       5.197229       141.4238 
 211   0.0000       5.306263       144.3908 
 212   0.0000       5.335896       145.1971 
 213   0.0000       5.353850       145.6857 
 214   0.0000       5.430053       147.7592 
 215   0.0000       5.469709       148.8384 
 216   0.0000       5.647662       153.6807 
 217   0.0000       5.672149       154.3470 
 218   0.0000       5.774734       157.1385 
 219   0.0000       5.789906       157.5514 
 220   0.0000       6.041214       164.3898 
 221   0.0000       6.239217       169.7777 
 222   0.0000       6.280369       170.8975 
 223   0.0000       6.320625       171.9930 
 224   0.0000       6.668018       181.4460 
 225   0.0000       7.059374       192.0953 
 226   0.0000       7.410947       201.6621 
 227   0.0000       7.413314       201.7265 
 228   0.0000       7.418613       201.8707 
 229   0.0000       7.516186       204.5258 
 230   0.0000       7.600935       206.8320 
 231   0.0000       7.621269       207.3853 
 232   0.0000       7.779006       211.6775 
 233   0.0000       7.928054       215.7333 
 234   0.0000       7.967842       216.8160 
 235   0.0000       8.414858       228.9799 
 236   0.0000       8.445421       229.8116 
 237   0.0000       8.469147       230.4572 
 238   0.0000       8.479285       230.7331 
 239   0.0000       8.817683       239.9413 
 240   0.0000       8.819721       239.9968 
 241   0.0000       8.861727       241.1399 
 242   0.0000       8.868287       241.3184 
 243   0.0000       9.033376       245.8107 
 244   0.0000       9.067005       246.7258 
 245   0.0000       9.074963       246.9423 
 246   0.0000       9.155362       249.1301 
 247   0.0000       9.208489       250.5757 
 248   0.0000       9.272695       252.3229 
 249   0.0000       9.548587       259.8303 
 250   0.0000       9.569958       260.4118 
 251   0.0000      10.333524       281.1895 
 252   0.0000      10.662607       290.1443 
 253   0.0000      10.731055       292.0069 
 254   0.0000      10.759749       292.7877 
 255   0.0000      10.922990       297.2297 
 256   0.0000      11.184756       304.3527 
 257   0.0000      11.285393       307.0912 
 258   0.0000      11.542101       314.0765 
 259   0.0000      11.765442       320.1540 
 260   0.0000      12.264466       333.7331 
 261   0.0000      12.272811       333.9602 
 262   0.0000      12.317112       335.1657 
 263   0.0000      12.324955       335.3791 
 264   0.0000      12.534498       341.0810 
 265   0.0000      12.543041       341.3135 
 266   0.0000      12.614342       343.2537 
 267   0.0000      12.735172       346.5416 
 268   0.0000      12.906923       351.2152 
 269   0.0000      12.936837       352.0292 
 270   0.0000      12.970814       352.9538 
 271   0.0000      13.119572       357.0017 
 272   0.0000      13.346856       363.1864 
 273   0.0000      13.511698       367.6720 
 274   0.0000      16.093438       437.9247 
 275   0.0000      16.095409       437.9783 
 276   0.0000      16.098233       438.0552 
 277   0.0000      16.521704       449.5784 
 278   0.0000      16.717206       454.8983 
 279   0.0000      16.724085       455.0855 
 280   0.0000      16.724145       455.0871 
 281   0.0000      16.724732       455.1031 
 282   0.0000      16.727406       455.1759 
 283   0.0000      16.749342       455.7728 
 284   0.0000      16.776757       456.5188 
 285   0.0000      16.786220       456.7763 
 286   0.0000      16.873450       459.1499 
 287   0.0000      16.967209       461.7012 
 288   0.0000      16.989636       462.3115 
 289   0.0000      17.102669       465.3873 
 290   0.0000      17.145358       466.5489 
 291   0.0000      17.649977       480.2803 
 292   0.0000      17.695851       481.5286 
 293   0.0000      17.703700       481.7422 
 294   0.0000      17.716730       482.0967 
 295   0.0000      17.857144       485.9176 
 296   0.0000      18.873368       513.5704 
 297   0.0000      23.115087       628.9935 
 298   0.0000      23.250649       632.6823 
 299   0.0000      23.270999       633.2361 
 300   0.0000      23.307004       634.2158 
 301   0.0000      23.333284       634.9309 
 302   0.0000      23.966354       652.1577 
 303   0.0000      24.886946       677.2082 
 304   0.0000      39.574567      1076.8787 
 305   0.0000      39.729495      1081.0945 
 306   0.0000      58.942713      1603.9128 
 307   0.0000      58.946619      1604.0191 
 308   0.0000      59.026207      1606.1847 
 309   0.0000      59.188609      1610.6039 
 310   0.0000      59.762159      1626.2110 
 311   0.0000      90.887461      2473.1736 
 312   0.0000      90.901515      2473.5560 
 313   0.0000      90.927028      2474.2502 
 314   0.0000      90.929012      2474.3042 
 315   0.0000      91.390285      2486.8561 
 316   0.0000      91.430746      2487.9571 

                 SPIN DOWN ORBITALS
  NO   OCC          E(Eh)            E(eV) 
   0   1.0000     -76.296170     -2076.1243 
   1   1.0000      -6.314066      -171.8145 
   2   1.0000      -4.529775      -123.2615 
   3   1.0000      -4.527079      -123.1881 
   4   1.0000      -4.526735      -123.1787 
   5   1.0000      -0.553272       -15.0553 
   6   1.0000      -0.342871        -9.3300 
   7   1.0000      -0.266168        -7.2428 
   8   0.0000      -0.154185        -4.1956 
   9   0.0000      -0.018337        -0.4990 
  10   0.0000      -0.012390        -0.3372 
  11   0.0000       0.015400         0.4190 
  12   0.0000       0.017482         0.4757 
  13   0.0000       0.023972         0.6523 
  14   0.0000       0.037355         1.0165 
  15   0.0000       0.044088         1.1997 
  16   0.0000       0.051377         1.3980 
  17   0.0000       0.061194         1.6652 
  18   0.0000       0.066455         1.8083 
  19   0.0000       0.067735         1.8432 
  20   0.0000       0.079544         2.1645 
  21   0.0000       0.088632         2.4118 
  22   0.0000       0.098134         2.6704 
  23   0.0000       0.121001         3.2926 
  24   0.0000       0.121936         3.3180 
  25   0.0000       0.128463         3.4957 
  26   0.0000       0.133110         3.6221 
  27   0.0000       0.136141         3.7046 
  28   0.0000       0.138945         3.7809 
  29   0.0000       0.139597         3.7986 
  30   0.0000       0.151560         4.1242 
  31   0.0000       0.154833         4.2132 
  32   0.0000       0.164377         4.4729 
  33   0.0000       0.176153         4.7934 
  34   0.0000       0.180816         4.9202 
  35   0.0000       0.198006         5.3880 
  36   0.0000       0.219653         5.9771 
  37   0.0000       0.225433         6.1343 
  38   0.0000       0.225919         6.1476 
  39   0.0000       0.240223         6.5368 
  40   0.0000       0.243306         6.6207 
  41   0.0000       0.245388         6.6773 
  42   0.0000       0.248723         6.7681 
  43   0.0000       0.263196         7.1619 
  44   0.0000       0.267026         7.2662 
  45   0.0000       0.269628         7.3369 
  46   0.0000       0.271993         7.4013 
  47   0.0000       0.273527         7.4431 
  48   0.0000       0.281240         7.6529 
  49   0.0000       0.290763         7.9121 
  50   0.0000       0.293291         7.9809 
  51   0.0000       0.297272         8.0892 
  52   0.0000       0.300235         8.1698 
  53   0.0000       0.334181         9.0935 
  54   0.0000       0.346840         9.4380 
  55   0.0000       0.359179         9.7738 
  56   0.0000       0.359504         9.7826 
  57   0.0000       0.379327        10.3220 
  58   0.0000       0.383730        10.4418 
  59   0.0000       0.393389        10.7047 
  60   0.0000       0.402680        10.9575 
  61   0.0000       0.411443        11.1959 
  62   0.0000       0.412403        11.2221 
  63   0.0000       0.418168        11.3789 
  64   0.0000       0.428857        11.6698 
  65   0.0000       0.438807        11.9406 
  66   0.0000       0.444085        12.0842 
  67   0.0000       0.445021        12.1096 
  68   0.0000       0.451756        12.2929 
  69   0.0000       0.459984        12.5168 
  70   0.0000       0.469453        12.7745 
  71   0.0000       0.470852        12.8125 
  72   0.0000       0.473856        12.8943 
  73   0.0000       0.485611        13.2142 
  74   0.0000       0.486593        13.2409 
  75   0.0000       0.495585        13.4855 
  76   0.0000       0.496034        13.4978 
  77   0.0000       0.513776        13.9806 
  78   0.0000       0.517117        14.0715 
  79   0.0000       0.527322        14.3492 
  80   0.0000       0.540484        14.7073 
  81   0.0000       0.548843        14.9348 
  82   0.0000       0.555610        15.1189 
  83   0.0000       0.574232        15.6256 
  84   0.0000       0.587701        15.9921 
  85   0.0000       0.590049        16.0560 
  86   0.0000       0.601885        16.3781 
  87   0.0000       0.604752        16.4561 
  88   0.0000       0.611987        16.6530 
  89   0.0000       0.612630        16.6705 
  90   0.0000       0.631913        17.1952 
  91   0.0000       0.632739        17.2177 
  92   0.0000       0.633014        17.2252 
  93   0.0000       0.635128        17.2827 
  94   0.0000       0.646816        17.6008 
  95   0.0000       0.647433        17.6176 
  96   0.0000       0.662876        18.0378 
  97   0.0000       0.667391        18.1606 
  98   0.0000       0.677048        18.4234 
  99   0.0000       0.678719        18.4689 
 100   0.0000       0.680009        18.5040 
 101   0.0000       0.692380        18.8406 
 102   0.0000       0.720898        19.6166 
 103   0.0000       0.724326        19.7099 
 104   0.0000       0.747640        20.3443 
 105   0.0000       0.749105        20.3842 
 106   0.0000       0.753210        20.4959 
 107   0.0000       0.754911        20.5422 
 108   0.0000       0.766707        20.8632 
 109   0.0000       0.767269        20.8785 
 110   0.0000       0.772484        21.0204 
 111   0.0000       0.774683        21.0802 
 112   0.0000       0.796893        21.6846 
 113   0.0000       0.812537        22.1103 
 114   0.0000       0.827743        22.5240 
 115   0.0000       0.831846        22.6357 
 116   0.0000       0.847928        23.0733 
 117   0.0000       0.864733        23.5306 
 118   0.0000       0.893682        24.3183 
 119   0.0000       0.929595        25.2956 
 120   0.0000       0.948095        25.7990 
 121   0.0000       0.970512        26.4090 
 122   0.0000       0.989186        26.9171 
 123   0.0000       0.992834        27.0164 
 124   0.0000       1.060281        28.8517 
 125   0.0000       1.106092        30.0983 
 126   0.0000       1.120235        30.4831 
 127   0.0000       1.182949        32.1897 
 128   0.0000       1.203684        32.7539 
 129   0.0000       1.205243        32.7963 
 130   0.0000       1.208498        32.8849 
 131   0.0000       1.234821        33.6012 
 132   0.0000       1.252464        34.0813 
 133   0.0000       1.252936        34.0941 
 134   0.0000       1.283887        34.9364 
 135   0.0000       1.318278        35.8722 
 136   0.0000       1.351979        36.7892 
 137   0.0000       1.390402        37.8348 
 138   0.0000       1.404593        38.2209 
 139   0.0000       1.435754        39.0688 
 140   0.0000       1.443785        39.2874 
 141   0.0000       1.447255        39.3818 
 142   0.0000       1.447798        39.3966 
 143   0.0000       1.497242        40.7420 
 144   0.0000       1.508763        41.0555 
 145   0.0000       1.607128        43.7322 
 146   0.0000       1.611241        43.8441 
 147   0.0000       1.622200        44.1423 
 148   0.0000       1.679587        45.7039 
 149   0.0000       1.697196        46.1830 
 150   0.0000       1.700546        46.2742 
 151   0.0000       2.144897        58.3656 
 152   0.0000       2.174701        59.1766 
 153   0.0000       2.182183        59.3802 
 154   0.0000       2.184940        59.4552 
 155   0.0000       2.193364        59.6845 
 156   0.0000       2.286692        62.2240 
 157   0.0000       2.344857        63.8068 
 158   0.0000       2.358227        64.1706 
 159   0.0000       2.402681        65.3803 
 160   0.0000       2.465130        67.0796 
 161   0.0000       2.526075        68.7380 
 162   0.0000       2.602308        70.8124 
 163   0.0000       2.642760        71.9132 
 164   0.0000       2.656021        72.2740 
 165   0.0000       2.666170        72.5502 
 166   0.0000       2.817835        76.6772 
 167   0.0000       2.852216        77.6127 
 168   0.0000       2.879202        78.3471 
 169   0.0000       2.892244        78.7020 
 170   0.0000       2.942710        80.0752 
 171   0.0000       2.945459        80.1500 
 172   0.0000       2.973235        80.9058 
 173   0.0000       2.994061        81.4725 
 174   0.0000       3.003565        81.7312 
 175   0.0000       3.047959        82.9392 
 176   0.0000       3.064049        83.3770 
 177   0.0000       3.093387        84.1753 
 178   0.0000       3.161721        86.0348 
 179   0.0000       3.276651        89.1622 
 180   0.0000       3.336016        90.7776 
 181   0.0000       3.382679        92.0474 
 182   0.0000       3.420363        93.0728 
 183   0.0000       3.426839        93.2490 
 184   0.0000       3.439433        93.5917 
 185   0.0000       3.471948        94.4765 
 186   0.0000       3.478968        94.6675 
 187   0.0000       3.545054        96.4658 
 188   0.0000       3.570412        97.1559 
 189   0.0000       3.608881        98.2027 
 190   0.0000       3.677391       100.0669 
 191   0.0000       3.678676       100.1019 
 192   0.0000       3.706815       100.8676 
 193   0.0000       3.724243       101.3418 
 194   0.0000       3.761962       102.3682 
 195   0.0000       3.803741       103.5051 
 196   0.0000       3.975201       108.1707 
 197   0.0000       3.975966       108.1915 
 198   0.0000       4.036871       109.8488 
 199   0.0000       4.243116       115.4610 
 200   0.0000       4.297709       116.9466 
 201   0.0000       4.486773       122.0913 
 202   0.0000       4.861200       132.2800 
 203   0.0000       4.865191       132.3886 
 204   0.0000       4.898101       133.2841 
 205   0.0000       4.900844       133.3587 
 206   0.0000       4.998021       136.0031 
 207   0.0000       5.002735       136.1313 
 208   0.0000       5.024158       136.7143 
 209   0.0000       5.204442       141.6201 
 210   0.0000       5.218973       142.0155 
 211   0.0000       5.325398       144.9114 
 212   0.0000       5.369870       146.1216 
 213   0.0000       5.399181       146.9192 
 214   0.0000       5.480525       149.1327 
 215   0.0000       5.508437       149.8922 
 216   0.0000       5.686026       154.7246 
 217   0.0000       5.712322       155.4402 
 218   0.0000       5.795663       157.7080 
 219   0.0000       5.798161       157.7760 
 220   0.0000       6.072472       165.2404 
 221   0.0000       6.272067       170.6716 
 222   0.0000       6.292241       171.2206 
 223   0.0000       6.322636       172.0477 
 224   0.0000       6.679247       181.7516 
 225   0.0000       7.085465       192.8053 
 226   0.0000       7.442307       202.5155 
 227   0.0000       7.445710       202.6081 
 228   0.0000       7.451356       202.7617 
 229   0.0000       7.550382       205.4563 
 230   0.0000       7.625084       207.4891 
 231   0.0000       7.647533       208.1000 
 232   0.0000       7.776326       211.6046 
 233   0.0000       7.937986       216.0036 
 234   0.0000       7.968784       216.8416 
 235   0.0000       8.416176       229.0158 
 236   0.0000       8.447048       229.8558 
 237   0.0000       8.464916       230.3421 
 238   0.0000       8.475127       230.6199 
 239   0.0000       8.815438       239.8803 
 240   0.0000       8.817029       239.9235 
 241   0.0000       8.859678       241.0841 
 242   0.0000       8.865168       241.2335 
 243   0.0000       9.033281       245.8081 
 244   0.0000       9.065709       246.6905 
 245   0.0000       9.075883       246.9673 
 246   0.0000       9.157024       249.1753 
 247   0.0000       9.205273       250.4882 
 248   0.0000       9.268500       252.2087 
 249   0.0000       9.547117       259.7903 
 250   0.0000       9.568551       260.3735 
 251   0.0000      10.339366       281.3485 
 252   0.0000      10.667763       290.2846 
 253   0.0000      10.736967       292.1677 
 254   0.0000      10.771162       293.0982 
 255   0.0000      10.929080       297.3954 
 256   0.0000      11.182841       304.3006 
 257   0.0000      11.283974       307.0525 
 258   0.0000      11.543065       314.1028 
 259   0.0000      11.768512       320.2375 
 260   0.0000      12.261465       333.6514 
 261   0.0000      12.270122       333.8870 
 262   0.0000      12.313858       335.0771 
 263   0.0000      12.321861       335.2949 
 264   0.0000      12.531190       340.9910 
 265   0.0000      12.539736       341.2236 
 266   0.0000      12.611291       343.1707 
 267   0.0000      12.731042       346.4293 
 268   0.0000      12.905091       351.1654 
 269   0.0000      12.935306       351.9876 
 270   0.0000      12.965615       352.8123 
 271   0.0000      13.115052       356.8787 
 272   0.0000      13.343015       363.0819 
 273   0.0000      13.508630       367.5885 
 274   0.0000      16.094864       437.9635 
 275   0.0000      16.101353       438.1401 
 276   0.0000      16.106029       438.2673 
 277   0.0000      16.531174       449.8361 
 278   0.0000      16.713207       454.7895 
 279   0.0000      16.720293       454.9823 
 280   0.0000      16.720452       454.9866 
 281   0.0000      16.720957       455.0004 
 282   0.0000      16.723687       455.0746 
 283   0.0000      16.745343       455.6639 
 284   0.0000      16.772776       456.4104 
 285   0.0000      16.782227       456.6676 
 286   0.0000      16.870738       459.0761 
 287   0.0000      16.963278       461.5943 
 288   0.0000      16.986761       462.2333 
 289   0.0000      17.098922       465.2853 
 290   0.0000      17.141825       466.4528 
 291   0.0000      17.652636       480.3526 
 292   0.0000      17.690075       481.3714 
 293   0.0000      17.702981       481.7226 
 294   0.0000      17.716032       482.0777 
 295   0.0000      17.853093       485.8073 
 296   0.0000      18.872903       513.5578 
 297   0.0000      23.117442       629.0576 
 298   0.0000      23.246052       632.5572 
 299   0.0000      23.266422       633.1115 
 300   0.0000      23.300561       634.0405 
 301   0.0000      23.327591       634.7760 
 302   0.0000      23.960956       652.0108 
 303   0.0000      24.888252       677.2438 
 304   0.0000      39.570298      1076.7626 
 305   0.0000      39.725327      1080.9811 
 306   0.0000      58.954646      1604.2375 
 307   0.0000      58.958334      1604.3378 
 308   0.0000      59.028542      1606.2483 
 309   0.0000      59.203715      1611.0150 
 310   0.0000      59.764449      1626.2733 
 311   0.0000      90.881417      2473.0091 
 312   0.0000      90.895473      2473.3916 
 313   0.0000      90.920467      2474.0717 
 314   0.0000      90.922455      2474.1258 
 315   0.0000      91.383959      2486.6839 
 316   0.0000      91.424453      2487.7858 

                    ********************************
                    * MULLIKEN POPULATION ANALYSIS *
                    ********************************

--------------------------------------------
MULLIKEN ATOMIC CHARGES AND SPIN POPULATIONS
--------------------------------------------
   0 P :   -0.005575    1.092848
   1 H :    0.002787   -0.046424
   2 H :    0.002788   -0.046424
Sum of atomic charges         :    0.0000000
Sum of atomic spin populations:    1.0000000

-----------------------------------------------------
MULLIKEN REDUCED ORBITAL CHARGES AND SPIN POPULATIONS
-----------------------------------------------------
CHARGE
  0 P s       :     5.863676  s :     5.863676
      pz      :     3.187330  p :     9.050107
      px      :     2.946444
      py      :     2.916333
      dz2     :     0.007494  d :     0.086818
      dxz     :     0.001409
      dyz     :     0.064761
      dx2y2   :     0.013153
      dxy     :     0.000000
      f0      :     0.000274  f :     0.004209
      f+1     :    -0.000002
      f-1     :     0.001464
      f+2     :     0.001895
      f-2     :    -0.000000
      f+3     :    -0.000037
      f-3     :     0.000616
      g0      :     0.000110  g :     0.000641
      g+1     :     0.000001
      g-1     :    -0.000002
      g+2     :     0.000281
      g-2     :     0.000000
      g+3     :     0.000026
      g-3     :     0.000228
      g+4     :    -0.000002
      g-4     :     0.000000
      h0      :     0.000027  h :     0.000124
      h+1     :     0.000000
      h-1     :     0.000019
      h+2     :     0.000027
      h-2     :    -0.000000
      h+3     :     0.000008
      h-3     :     0.000044
      h+4     :    -0.000002
      h-4     :    -0.000000
      h+5     :     0.000001
      h-5     :    -0.000000
  1 H s       :     0.954897  s :     0.954897
      pz      :     0.018639  p :     0.048020
      px      :     0.024861
      py      :     0.004520
      dz2     :     0.002381  d :     0.000779
      dxz     :     0.002348
      dyz     :    -0.004855
      dx2y2   :    -0.000102
      dxy     :     0.001007
      f0      :    -0.000103  f :    -0.005481
      f+1     :    -0.000089
      f-1     :    -0.001683
      f+2     :    -0.001073
      f-2     :    -0.000526
      f+3     :    -0.001105
      f-3     :    -0.000902
      g0      :    -0.000112  g :    -0.001004
      g+1     :    -0.000003
      g-1     :    -0.000045
      g+2     :    -0.000156
      g-2     :    -0.000065
      g+3     :    -0.000186
      g-3     :    -0.000088
      g+4     :    -0.000182
      g-4     :    -0.000167
  2 H s       :     0.954896  s :     0.954896
      pz      :     0.018640  p :     0.048021
      px      :     0.024861
      py      :     0.004520
      dz2     :     0.002381  d :     0.000779
      dxz     :     0.002348
      dyz     :    -0.004855
      dx2y2   :    -0.000102
      dxy     :     0.001007
      f0      :    -0.000103  f :    -0.005481
      f+1     :    -0.000089
      f-1     :    -0.001683
      f+2     :    -0.001073
      f-2     :    -0.000526
      f+3     :    -0.001105
      f-3     :    -0.000902
      g0      :    -0.000112  g :    -0.001004
      g+1     :    -0.000003
      g-1     :    -0.000045
      g+2     :    -0.000156
      g-2     :    -0.000065
      g+3     :    -0.000186
      g-3     :    -0.000088
      g+4     :    -0.000182
      g-4     :    -0.000167

SPIN
  0 P s       :     0.061585  s :     0.061585
      pz      :     0.026839  p :     1.021412
      px      :     0.946438
      py      :     0.048135
      dz2     :     0.002911  d :     0.012274
      dxz     :     0.001407
      dyz     :     0.006065
      dx2y2   :     0.001891
      dxy     :     0.000000
      f0      :     0.000394  f :    -0.002399
      f+1     :    -0.000002
      f-1     :    -0.000351
      f+2     :    -0.001414
      f-2     :     0.000000
      f+3     :    -0.000037
      f-3     :    -0.000988
      g0      :     0.000066  g :    -0.000054
      g+1     :     0.000001
      g-1     :    -0.000021
      g+2     :    -0.000020
      g-2     :    -0.000000
      g+3     :     0.000026
      g-3     :    -0.000077
      g+4     :    -0.000028
      g-4     :    -0.000000
      h0      :    -0.000004  h :     0.000030
      h+1     :     0.000000
      h-1     :     0.000004
      h+2     :     0.000012
      h-2     :     0.000000
      h+3     :     0.000008
      h-3     :     0.000010
      h+4     :    -0.000001
      h-4     :     0.000000
      h+5     :     0.000001
      h-5     :     0.000000
  1 H s       :    -0.068661  s :    -0.068661
      pz      :    -0.006103  p :     0.019179
      px      :     0.024795
      py      :     0.000487
      dz2     :     0.000295  d :     0.005193
      dxz     :     0.002319
      dyz     :     0.000441
      dx2y2   :     0.001126
      dxy     :     0.001012
      f0      :    -0.000100  f :    -0.001622
      f+1     :    -0.000092
      f-1     :     0.000432
      f+2     :    -0.000059
      f-2     :    -0.000482
      f+3     :    -0.001083
      f-3     :    -0.000238
      g0      :     0.000046  g :    -0.000513
      g+1     :    -0.000003
      g-1     :    -0.000032
      g+2     :    -0.000044
      g-2     :    -0.000055
      g+3     :    -0.000169
      g-3     :    -0.000009
      g+4     :    -0.000084
      g-4     :    -0.000162
  2 H s       :    -0.068661  s :    -0.068661
      pz      :    -0.006103  p :     0.019179
      px      :     0.024795
      py      :     0.000487
      dz2     :     0.000295  d :     0.005193
      dxz     :     0.002319
      dyz     :     0.000441
      dx2y2   :     0.001126
      dxy     :     0.001012
      f0      :    -0.000100  f :    -0.001621
      f+1     :    -0.000092
      f-1     :     0.000432
      f+2     :    -0.000059
      f-2     :    -0.000482
      f+3     :    -0.001083
      f-3     :    -0.000238
      g0      :     0.000046  g :    -0.000513
      g+1     :    -0.000003
      g-1     :    -0.000032
      g+2     :    -0.000044
      g-2     :    -0.000055
      g+3     :    -0.000169
      g-3     :    -0.000009
      g+4     :    -0.000084
      g-4     :    -0.000162


                     *******************************
                     * LOEWDIN POPULATION ANALYSIS *
                     *******************************

-------------------------------------------
LOEWDIN ATOMIC CHARGES AND SPIN POPULATIONS
-------------------------------------------
   0 P :    1.620857    0.619255
   1 H :   -0.810429    0.190373
   2 H :   -0.810429    0.190373

----------------------------------------------------
LOEWDIN REDUCED ORBITAL CHARGES AND SPIN POPULATIONS
----------------------------------------------------
CHARGE
  0 P s       :     4.862197  s :     4.862197
      pz      :     2.978111  p :     8.321936
      px      :     2.599459
      py      :     2.744366
      dz2     :     0.007475  d :     0.152678
      dxz     :     0.000922
      dyz     :     0.116887
      dx2y2   :     0.027395
      dxy     :     0.000000
      f0      :     0.003093  f :     0.035417
      f+1     :     0.000635
      f-1     :     0.015841
      f+2     :     0.013336
      f-2     :    -0.000000
      f+3     :     0.000926
      f-3     :     0.001586
      g0      :     0.000960  g :     0.005842
      g+1     :     0.000003
      g-1     :     0.000892
      g+2     :     0.001929
      g-2     :    -0.000000
      g+3     :     0.000384
      g-3     :     0.001201
      g+4     :     0.000472
      g-4     :     0.000000
      h0      :     0.000107  h :     0.001074
      h+1     :     0.000002
      h-1     :     0.000094
      h+2     :     0.000179
      h-2     :    -0.000000
      h+3     :     0.000089
      h-3     :     0.000383
      h+4     :     0.000172
      h-4     :    -0.000000
      h+5     :     0.000010
      h-5     :     0.000039
  1 H s       :     0.861133  s :     0.861133
      pz      :     0.203817  p :     0.461124
      px      :     0.090681
      py      :     0.166625
      dz2     :     0.084682  d :     0.322750
      dxz     :     0.032777
      dyz     :     0.096802
      dx2y2   :     0.068262
      dxy     :     0.040227
      f0      :     0.006579  f :     0.126018
      f+1     :     0.002622
      f-1     :     0.052086
      f+2     :     0.017925
      f-2     :     0.016897
      f+3     :     0.007099
      f-3     :     0.022810
      g0      :     0.002650  g :     0.039404
      g+1     :     0.000010
      g-1     :     0.006758
      g+2     :     0.011516
      g-2     :     0.002882
      g+3     :     0.004727
      g-3     :     0.003074
      g+4     :     0.006924
      g-4     :     0.000863
  2 H s       :     0.861133  s :     0.861133
      pz      :     0.203817  p :     0.461124
      px      :     0.090681
      py      :     0.166625
      dz2     :     0.084682  d :     0.322750
      dxz     :     0.032777
      dyz     :     0.096802
      dx2y2   :     0.068262
      dxy     :     0.040227
      f0      :     0.006579  f :     0.126018
      f+1     :     0.002622
      f-1     :     0.052086
      f+2     :     0.017925
      f-2     :     0.016897
      f+3     :     0.007099
      f-3     :     0.022810
      g0      :     0.002650  g :     0.039404
      g+1     :     0.000010
      g-1     :     0.006758
      g+2     :     0.011516
      g-2     :     0.002882
      g+3     :     0.004727
      g-3     :     0.003074
      g+4     :     0.006924
      g-4     :     0.000863

SPIN
  0 P s       :     0.005685  s :     0.005685
      pz      :    -0.002987  p :     0.612977
      px      :     0.603815
      py      :     0.012149
      dz2     :     0.001213  d :     0.002379
      dxz     :     0.000910
      dyz     :    -0.002755
      dx2y2   :     0.003011
      dxy     :    -0.000000
      f0      :     0.000773  f :    -0.001869
      f+1     :     0.000632
      f-1     :    -0.001190
      f+2     :    -0.002220
      f-2     :    -0.000000
      f+3     :     0.000919
      f-3     :    -0.000783
      g0      :     0.000011  g :     0.000012
      g+1     :     0.000003
      g-1     :    -0.000025
      g+2     :    -0.000164
      g-2     :    -0.000000
      g+3     :     0.000373
      g-3     :    -0.000163
      g+4     :    -0.000023
      g-4     :    -0.000000
      h0      :    -0.000005  h :     0.000072
      h+1     :     0.000002
      h-1     :    -0.000002
      h+2     :    -0.000003
      h-2     :    -0.000000
      h+3     :     0.000084
      h-3     :    -0.000012
      h+4     :     0.000001
      h-4     :    -0.000000
      h+5     :     0.000009
      h-5     :    -0.000002
  1 H s       :    -0.010736  s :    -0.010736
      pz      :     0.000617  p :     0.093908
      px      :     0.090544
      py      :     0.002746
      dz2     :    -0.000555  d :     0.073797
      dxz     :     0.032200
      dyz     :     0.002181
      dx2y2   :     0.000368
      dxy     :     0.039603
      f0      :     0.000080  f :     0.025880
      f+1     :     0.002569
      f-1     :     0.000259
      f+2     :    -0.000178
      f-2     :     0.016617
      f+3     :     0.006989
      f-3     :    -0.000456
      g0      :     0.000362  g :     0.007523
      g+1     :     0.000008
      g-1     :    -0.000045
      g+2     :    -0.000426
      g-2     :     0.002745
      g+3     :     0.004537
      g-3     :    -0.000126
      g+4     :    -0.000346
      g-4     :     0.000815
  2 H s       :    -0.010736  s :    -0.010736
      pz      :     0.000617  p :     0.093908
      px      :     0.090544
      py      :     0.002746
      dz2     :    -0.000555  d :     0.073797
      dxz     :     0.032200
      dyz     :     0.002181
      dx2y2   :     0.000368
      dxy     :     0.039603
      f0      :     0.000080  f :     0.025880
      f+1     :     0.002569
      f-1     :     0.000259
      f+2     :    -0.000178
      f-2     :     0.016617
      f+3     :     0.006989
      f-3     :    -0.000456
      g0      :     0.000362  g :     0.007523
      g+1     :     0.000008
      g-1     :    -0.000045
      g+2     :    -0.000426
      g-2     :     0.002745
      g+3     :     0.004537
      g-3     :    -0.000126
      g+4     :    -0.000346
      g-4     :     0.000815


                      *****************************
                      * MAYER POPULATION ANALYSIS *
                      *****************************

  NA   - Mulliken gross atomic population
  ZA   - Total nuclear charge
  QA   - Mulliken gross atomic charge
  VA   - Mayer's total valence
  BVA  - Mayer's bonded valence
  FA   - Mayer's free valence

  ATOM       NA         ZA         QA         VA         BVA        FA
  0 P     15.0056    15.0000    -0.0056     2.8879     1.9714     0.9166
  1 H      0.9972     1.0000     0.0028     1.0098     1.0043     0.0056
  2 H      0.9972     1.0000     0.0028     1.0098     1.0043     0.0056

  Mayer bond orders larger than 0.1
B(  0-P ,  1-H ) :   0.9857 B(  0-P ,  2-H ) :   0.9857 

-------
TIMINGS
-------

Total SCF time: 0 days 0 hours 5 min 55 sec 

Total time                  ....     355.130 sec
Sum of individual times     ....     354.035 sec  ( 99.7%)

Fock matrix formation       ....     351.662 sec  ( 99.0%)
  XC integration            ....       7.879 sec  (  2.2% of F)
    Basis function eval.    ....       0.611 sec  (  7.8% of XC)
    Density eval.           ....       1.574 sec  ( 20.0% of XC)
    XC-Functional eval.     ....       0.108 sec  (  1.4% of XC)
    XC-Potential eval.      ....       5.080 sec  ( 64.5% of XC)
Diagonalization             ....       0.732 sec  (  0.2%)
Density matrix formation    ....       0.013 sec  (  0.0%)
Population analysis         ....       0.080 sec  (  0.0%)
Initial guess               ....       0.469 sec  (  0.1%)
Orbital Transformation      ....       0.000 sec  (  0.0%)
Orbital Orthonormalization  ....       0.000 sec  (  0.0%)
DIIS solution               ....       0.827 sec  (  0.2%)
Grid generation             ....       0.251 sec  (  0.1%)

-------------------------   --------------------
FINAL SINGLE POINT ENERGY      -342.361980213858
-------------------------   --------------------


                            ***************************************
                            *     ORCA property calculations      *
                            ***************************************

                                    ---------------------
                                    Active property flags
                                    ---------------------
   (+) Dipole Moment
   (+) Polarizability


------------------------------------------------------------------------------
                       ORCA ELECTRIC PROPERTIES CALCULATION
------------------------------------------------------------------------------

Dipole Moment Calculation                       ... on
Quadrupole Moment Calculation                   ... off
Polarizability Calculation                      ... Analytic (CP-SCF)
GBWName                                         ... ph2_pbe.gbw
Electron density file                           ... ph2_pbe.scfp.tmp
The origin for moment calculation is the CENTER OF MASS  = ( 0.000000,  0.000000  0.115064)

-------------
DIPOLE MOMENT
-------------
                                X             Y             Z
Electronic contribution:     -0.00000      -0.00000      -1.59898
Nuclear contribution   :      0.00000       0.00000       1.80975
                        -----------------------------------------
Total Dipole Moment    :     -0.00000      -0.00000       0.21077
                        -----------------------------------------
Magnitude (a.u.)       :      0.21077
Magnitude (Debye)      :      0.53574



--------------------
Rotational spectrum 
--------------------
 
Rotational constants in cm-1:     8.970651     7.991716     4.226467 
Rotational constants in MHz : 268933.348911 239585.603970 126706.307526 

 Dipole components along the rotational axes: 
x,y,z [a.u.] :    -0.000000     0.210773    -0.000000 
x,y,z [Debye]:    -0.000000     0.535744    -0.000000 

 
Transforming and storing MO dipole integrals   ... done

                ... starting polarizability calculation

Opening the Dipole integral file               ... (ph2_pbe.dmo.tmp) done
Reading Dipole-MO integrals                    ... done
Solving CP-SCF equations                       ... 

           ************************************************************
           *        Program running with 4 parallel MPI-processes     *
           *              working on a common directory               *
           ************************************************************

------------------------------------------------------------------------------
                           ORCA CP-SCF CALCULATION
------------------------------------------------------------------------------

Input orbitals are from        ... ph2_pbe.gbw
Input Perturbation             ... ph2_pbe.cpv.tmp
Wavefunction output            ... ph2_pbe.cpu.tmp
Perturbation mode              ... Real perturbation (singlet)
Solver                         ... POPLE
Max. number of iterations      ... 200
Convergence tolerance          ... 1.000e-06
Integral handling              ... Direct
Number of perturbations        ... 3
Number of operators            ... 2
Orbital ranges used for CP-SCF:
 Operator 0:  Orbitals   0...  8  to   9...316
 Operator 1:  Orbitals   0...  7  to   8...316
DFT calculation                         ... on
Exchange functional (SCF)               ... PBE
Exchange functional (CP-SCF)            ... PBE
   PBE kappa parameter  XKappa (SCF)    ...  0.804000
   PBE kappa parameter  XKappa (CP-SCF) ...  0.804000
   PBE mue parameter   XMuePBE (SCF)    ...  0.219520
   PBE mue parameter   XMuePBE (CP-SCF) ...  0.219520
Correlation functional (SCF)            ... PBE
Correlation functional (CP-SCF)         ... PBE
   PBE beta parameter CBetaPBE (SCF)    ...  0.066725
   PBE beta parameter CBetaPBE (CP-SCF) ...  0.066725
 LDA part of GGA corr.  LDAOpt (SCF)    ... PW91-LDA
 LDA part of GGA corr.  LDAOpt (CP-SCF) ... PW91-LDA
Variables per vector in CP-SCF ... 5244
Number of vectors sought       ... 3
Recalculating density on grid  ... done
Calculating the xc-kernel      ... done
     CP-SCF ITERATION   0: 
     CP-SCF ITERATION   1:      0.087842807373
     CP-SCF ITERATION   2:      0.003687423828
     CP-SCF ITERATION   3:      0.000202110836
     CP-SCF ITERATION   4:      0.000004245568
     CP-SCF ITERATION   5:      0.000000605982
done
Reading CP-SCF coefficients                    ... done
Doing the polarizability tensor   ... done
Cleaning up                                    ... done

-------------------------
THE POLARIZABILITY TENSOR
-------------------------

The raw cartesian tensor (atomic units):
   29.35683     -0.00000      0.00000  
   -0.00000     31.23248      0.00000  
    0.00000      0.00000     32.28247  
diagonalized tensor: 
   29.35683     31.23248     32.28247  

    1.00000     -0.00000      0.00000  
    0.00000      1.00000      0.00000  
   -0.00000     -0.00000      1.00000  

Isotropic polarizability :  30.95726


Timings for individual modules:

Sum of individual times         ...      634.204 sec (=  10.570 min)
GTO integral calculation        ...        1.395 sec (=   0.023 min)   0.2 %
SCF iterations                  ...      355.473 sec (=   5.925 min)  56.1 %
Solution of CP-SCF eqns.        ...      277.336 sec (=   4.622 min)  43.7 %
                             ****ORCA TERMINATED NORMALLY****
TOTAL RUN TIME: 0 days 0 hours 10 minutes 34 seconds 989 msec
