
                                 *****************
                                 * O   R   C   A *
                                 *****************

           --- An Ab Initio, DFT and Semiempirical electronic structure package ---

                  #######################################################
                  #                        -***-                        #
                  #          Department of theory and spectroscopy      #
                  #               Directorship: Frank Neese             #
                  #        Max Planck Institute fuer Kohlenforschung    #
                  #                Kaiser Wilhelm Platz 1               #
                  #                 D-45470 Muelheim/Ruhr               #
                  #                      Germany                        #
                  #                                                     #
                  #                  All rights reserved                #
                  #                        -***-                        #
                  #######################################################


                         Program Version 4.1.2  - RELEASE  -


 With contributions from (in alphabetic order):
   Daniel Aravena         : Magnetic Properties
   Michael Atanasov       : Ab Initio Ligand Field Theory
   Alexander A. Auer      : GIAO ZORA
   Ute Becker             : Parallelization
   Giovanni Bistoni       : ED, Open-shell LED
   Martin Brehm           : Molecular dynamics
   Dmytro Bykov           : SCF Hessian
   Vijay G. Chilkuri      : MRCI spin determinant printing
   Dipayan Datta          : RHF DLPNO-CCSD density
   Achintya Kumar Dutta   : EOM-CC, STEOM-CC
   Dmitry Ganyushin       : Spin-Orbit,Spin-Spin,Magnetic field MRCI
   Miquel Garcia          : C-PCM Hessian
   Yang Guo               : DLPNO-NEVPT2, CIM, IAO-localization
   Andreas Hansen         : Spin unrestricted coupled pair/coupled cluster methods
   Benjamin Helmich-Paris : CASSCF linear response (MC-RPA)
   Lee Huntington         : MR-EOM, pCC
   Robert Izsak           : Overlap fitted RIJCOSX, COSX-SCS-MP3, EOM
   Christian Kollmar      : KDIIS, OOCD, Brueckner-CCSD(T), CCSD density
   Simone Kossmann        : Meta GGA functionals, TD-DFT gradient, OOMP2, MP2 Hessian
   Martin Krupicka        : AUTO-CI
   Lucas Lang             : DCDCAS
   Dagmar Lenk            : GEPOL surface, SMD
   Dimitrios Liakos       : Extrapolation schemes; parallel MDCI
   Dimitrios Manganas     : ROCIS; embedding schemes
   Dimitrios Pantazis     : SARC Basis sets
   Taras Petrenko         : DFT Hessian,TD-DFT gradient, ASA, ECA, R-Raman, ABS, FL, XAS/XES, NRVS
   Peter Pinski           : DLPNO-MP2, DLPNO-MP2 Gradient
   Christoph Reimann      : Effective Core Potentials
   Marius Retegan         : Local ZFS, SOC
   Christoph Riplinger    : Optimizer, TS searches, QM/MM, DLPNO-CCSD(T), (RO)-DLPNO pert. Triples
   Tobias Risthaus        : Range-separated hybrids, TD-DFT gradient, RPA, STAB
   Michael Roemelt        : Restricted open shell CIS
   Masaaki Saitow         : Open-shell DLPNO
   Barbara Sandhoefer     : DKH picture change effects
   Avijit Sen             : IP-ROCIS
   Kantharuban Sivalingam : CASSCF convergence, NEVPT2, FIC-MRCI
   Bernardo de Souza      : ESD, SOC TD-DFT
   Georgi Stoychev        : AutoAux, RI-MP2 NMR
   Willem Van den Heuvel  : Paramagnetic NMR
   Boris Wezisla          : Elementary symmetry handling
   Frank Wennmohs         : Technical directorship


 We gratefully acknowledge several colleagues who have allowed us to
 interface, adapt or use parts of their codes:
   Stefan Grimme, W. Hujo, H. Kruse,             : VdW corrections, initial TS optimization,
                  C. Bannwarth                     DFT functionals, gCP, sTDA/sTD-DF
   Ed Valeev                                     : LibInt (2-el integral package), F12 methods
   Garnet Chan, S. Sharma, J. Yang, R. Olivares  : DMRG
   Ulf Ekstrom                                   : XCFun DFT Library
   Mihaly Kallay                                 : mrcc  (arbitrary order and MRCC methods)
   Andreas Klamt, Michael Diedenhofen            : otool_cosmo (COSMO solvation model)
   Jiri Pittner, Ondrej Demel                    : Mk-CCSD
   Frank Weinhold                                : gennbo (NPA and NBO analysis)
   Christopher J. Cramer and Donald G. Truhlar   : smd solvation model
   Lars Goerigk                                  : TD-DFT with DH, B97 family of functionals
   V. Asgeirsson, H. Jonsson                     : NEB implementation
   FAccTs GmbH                                   : IRC, NEB, NEB-TS, Multilevel


 Your calculation uses the libint2 library for the computation of 2-el integrals
 For citations please refer to: http://libint.valeyev.net

 This ORCA versions uses:
   CBLAS   interface :  Fast vector & matrix operations
   LAPACKE interface :  Fast linear algebra routines
   SCALAPACK package :  Parallel linear algebra routines


----- Orbital basis set information -----
Your calculation utilizes the basis: aug-pc-4
   H, C-F              : F. Jensen, J. Chem. Phys. 115, 9113 (2001).
                         F. Jensen, J. Chem. Phys. 116, 7372 (2002).
                         F. Jensen, J. Chem. Phys. 117, 9234 (2002).
   Si-Cl               : F. Jensen, T. Helgaker, J. Chem. Phys. 121, 3463 (2004).
   He-B, Ne-Mg, Al, Ar : F. Jensen, J. Phys. Chem. A 111, 11198 (2007).
   K, Ca, Ga-Kr        : F. Jensen, J. Chem. Phys. 136, 094110 (2012).
   Sc-Zn               : F. Jensen, J. Chem. Phys. 138, 014107 (2013).

================================================================================
                                        WARNINGS
                       Please study these warnings very carefully!
================================================================================


INFO   : the flag for use of LIBINT has been found!

================================================================================
                                       INPUT FILE
================================================================================
NAME = ph_pbe.inp
|  1> !uks pbe nori aug-pc-4 grid5 nofinalgrid verytightscf
|  2> 
|  3> %maxcore 1500
|  4> 
|  5> %pal nprocs 4 end
|  6> 
|  7> %scf
|  8> 	maxiter 200
|  9> end
| 10> %elprop
| 11> 	dipole true
| 12> 	 polar 1
| 13> 	 maxiter 200
| 14> end
| 15> 
| 16> * xyz 0 3
| 17> H 0.0000 0.0000 0.0000
| 18> P 0.0000 0.0000 1.4223
| 19> *
| 20> 
| 21>                          ****END OF INPUT****
================================================================================

                       ****************************
                       * Single Point Calculation *
                       ****************************

---------------------------------
CARTESIAN COORDINATES (ANGSTROEM)
---------------------------------
  H      0.000000    0.000000    0.000000
  P      0.000000    0.000000    1.422300

----------------------------
CARTESIAN COORDINATES (A.U.)
----------------------------
  NO LB      ZA    FRAG     MASS         X           Y           Z
   0 H     1.0000    0     1.008    0.000000    0.000000    0.000000
   1 P    15.0000    0    30.974    0.000000    0.000000    2.687757

--------------------------------
INTERNAL COORDINATES (ANGSTROEM)
--------------------------------
 H      0   0   0     0.000000000000     0.00000000     0.00000000
 P      1   0   0     1.422300000000     0.00000000     0.00000000

---------------------------
INTERNAL COORDINATES (A.U.)
---------------------------
 H      0   0   0     0.000000000000     0.00000000     0.00000000
 P      1   0   0     2.687757480276     0.00000000     0.00000000

---------------------
BASIS SET INFORMATION
---------------------
There are 2 groups of distinct atoms

 Group   1 Type H   : 12s7p4d3f2g contracted to 8s7p4d3f2g pattern {51111111/1111111/1111/111/11}
 Group   2 Type P   : 44s27p7d4f3g2h contracted to 8s7p7d4f3g2h pattern {15121211111/111111111/1111111/1111/111/11}

Atom   0H    basis set group =>   1
Atom   1P    basis set group =>   2


           ************************************************************
           *        Program running with 4 parallel MPI-processes     *
           *              working on a common directory               *
           ************************************************************
------------------------------------------------------------------------------
                           ORCA GTO INTEGRAL CALCULATION
------------------------------------------------------------------------------

                         BASIS SET STATISTICS AND STARTUP INFO

 # of primitive gaussian shells          ...  115
 # of primitive gaussian functions       ...  329
 # of contracted shells                  ...   55
 # of contracted basis functions         ...  229
 Highest angular momentum                ...    5
 Maximum contraction depth               ...   15
 Integral package used                   ... LIBINT
 Integral threshhold            Thresh   ...  1.000e-12
 Primitive cut-off              TCut     ...  1.000e-14


------------------------------ INTEGRAL EVALUATION ----------------------------


 * One electron integrals 
 Pre-screening matrix                    ... done
 Shell pair data                         ... done (   0.001 sec)



           ************************************************************
           *        Program running with 4 parallel MPI-processes     *
           *              working on a common directory               *
           ************************************************************
-------------------------------------------------------------------------------
                                 ORCA SCF
-------------------------------------------------------------------------------

------------
SCF SETTINGS
------------
Hamiltonian:
 Density Functional     Method          .... DFT(GTOs)
 Exchange Functional    Exchange        .... PBE
   PBE kappa parameter   XKappa         ....  0.804000
   PBE mue parameter    XMuePBE         ....  0.219520
 Correlation Functional Correlation     .... PBE
   PBE beta parameter  CBetaPBE         ....  0.066725
 LDA part of GGA corr.  LDAOpt          .... PW91-LDA
 Gradients option       PostSCFGGA      .... off
   Density functional embedding theory  .... OFF
   NL short-range parameter             ....  6.400000


General Settings:
 Integral files         IntName         .... ph_pbe
 Hartree-Fock type      HFTyp           .... UHF
 Total Charge           Charge          ....    0
 Multiplicity           Mult            ....    3
 Number of Electrons    NEL             ....   16
 Basis Dimension        Dim             ....  229
 Nuclear Repulsion      ENuc            ....      5.5808606655 Eh

Convergence Acceleration:
 DIIS                   CNVDIIS         .... on
   Start iteration      DIISMaxIt       ....    12
   Startup error        DIISStart       ....  0.200000
   # of expansion vecs  DIISMaxEq       ....     5
   Bias factor          DIISBfac        ....   1.050
   Max. coefficient     DIISMaxC        ....  10.000
 Newton-Raphson         CNVNR           .... off
 SOSCF                  CNVSOSCF        .... off
 Level Shifting         CNVShift        .... on
   Level shift para.    LevelShift      ....    0.2500
   Turn off err/grad.   ShiftErr        ....    0.0010
 Zerner damping         CNVZerner       .... off
 Static damping         CNVDamp         .... on
   Fraction old density DampFac         ....    0.7000
   Max. Damping (<1)    DampMax         ....    0.9800
   Min. Damping (>=0)   DampMin         ....    0.0000
   Turn off err/grad.   DampErr         ....    0.1000
 Fernandez-Rico         CNVRico         .... off

SCF Procedure:
 Maximum # iterations   MaxIter         ....   200
 SCF integral mode      SCFMode         .... Direct
   Integral package                     .... LIBINT
 Reset frequency        DirectResetFreq ....    20
 Integral Threshold     Thresh          ....  1.000e-12 Eh
 Primitive CutOff       TCut            ....  1.000e-14 Eh

Convergence Tolerance:
 Convergence Check Mode ConvCheckMode   .... Total+1el-Energy
 Convergence forced     ConvForced      .... 0
 Energy Change          TolE            ....  1.000e-09 Eh
 1-El. energy change                    ....  1.000e-06 Eh
 DIIS Error             TolErr          ....  1.000e-08


Diagonalization of the overlap matrix:
Smallest eigenvalue                        ... 7.442e-06
Time for diagonalization                   ...    0.014 sec
Threshold for overlap eigenvalues          ... 1.000e-08
Number of eigenvalues below threshold      ... 0
Time for construction of square roots      ...    0.009 sec
Total time needed                          ...    0.023 sec

-------------------
DFT GRID GENERATION
-------------------

General Integration Accuracy     IntAcc      ...  5.010
Radial Grid Type                 RadialGrid  ... Gauss-Chebyshev
Angular Grid (max. acc.)         AngularGrid ... Lebedev-434
Angular grid pruning method      GridPruning ... 3 (G Style)
Weight generation scheme         WeightScheme... Becke
Basis function cutoff            BFCut       ...    1.0000e-12
Integration weight cutoff        WCut        ...    1.0000e-14
Grids for H and He will be reduced by one unit

# of grid points (after initial pruning)     ...  18324 (   0.0 sec)
# of grid points (after weights+screening)   ...  18270 (   0.0 sec)
nearest neighbour list constructed           ...    0.0 sec
Grid point re-assignment to atoms done       ...    0.0 sec
Grid point division into batches done        ...    0.1 sec
Reduced shell lists constructed in    0.2 sec

Total number of grid points                  ...    18270
Total number of batches                      ...      287
Average number of points per batch           ...       63
Average number of grid points per atom       ...     9135
Average number of shells per batch           ...    38.41 (69.84%)
Average number of basis functions per batch  ...   162.68 (71.04%)
Average number of large shells per batch     ...    34.34 (89.41%)
Average number of large basis fcns per batch ...   146.92 (90.31%)
Maximum spatial batch extension              ...  18.85, 18.85, 16.14 au
Average spatial batch extension              ...   1.63,  1.63,  1.29 au

Time for grid setup =    0.199 sec

------------------------------
INITIAL GUESS: MODEL POTENTIAL
------------------------------
Loading Hartree-Fock densities                     ... done
Calculating cut-offs                               ... done
Setting up the integral package                    ... done
Initializing the effective Hamiltonian             ... done
Starting the Coulomb interaction                   ... done (   0.0 sec)
Reading the grid                                   ... done
Mapping shells                                     ... done
Starting the XC term evaluation                    ... done (   0.1 sec)
  promolecular density results
     # of electrons  =     15.999511681
     EX              =    -22.734152327
     EC              =     -0.576703297
     EX+EC           =    -23.310855623
Transforming the Hamiltonian                       ... done (   0.0 sec)
Diagonalizing the Hamiltonian                      ... done (   0.0 sec)
Back transforming the eigenvectors                 ... done (   0.0 sec)
Now organizing SCF variables                       ... done
                      ------------------
                      INITIAL GUESS DONE (   0.5 sec)
                      ------------------
--------------
SCF ITERATIONS
--------------
ITER       Energy         Delta-E        Max-DP      RMS-DP      [F,P]     Damp
               ***  Starting incremental Fock matrix formation  ***
  0   -341.7296796521   0.000000000000 0.01985092  0.00013326  0.0497685 0.7000
  1   -341.7313057491  -0.001626096967 0.01555397  0.00010590  0.0320996 0.7000
                               ***Turning on DIIS***
  2   -341.7323815491  -0.001075799975 0.03786289  0.00025887  0.0174622 0.0000
  3   -341.7345785162  -0.002196967118 0.00215033  0.00003175  0.0130827 0.0000
  4   -341.7347903039  -0.000211787740 0.00216767  0.00002118  0.0017453 0.0000
  5   -341.7348128404  -0.000022536463 0.00118050  0.00001426  0.0005571 0.0000
  6   -341.7348188272  -0.000005986820 0.00035027  0.00000313  0.0001186 0.0000
  7   -341.7348189524  -0.000000125223 0.00004938  0.00000051  0.0000343 0.0000
  8   -341.7348189618  -0.000000009399 0.00001508  0.00000015  0.0000123 0.0000
  9   -341.7348189632  -0.000000001393 0.00000562  0.00000007  0.0000053 0.0000
 10   -341.7348189635  -0.000000000310 0.00000170  0.00000003  0.0000011 0.0000
 11   -341.7348189636  -0.000000000046 0.00000150  0.00000001  0.0000001 0.0000
 12   -341.7348189636  -0.000000000003 0.00000041  0.00000000  0.0000001 0.0000
                 **** Energy Check signals convergence ****

               *****************************************************
               *                     SUCCESS                       *
               *           SCF CONVERGED AFTER  13 CYCLES          *
               *****************************************************


----------------
TOTAL SCF ENERGY
----------------

Total Energy       :         -341.73481896 Eh           -9299.07718 eV

Components:
Nuclear Repulsion  :            5.58086067 Eh             151.86294 eV
Electronic Energy  :         -347.31567963 Eh           -9450.94012 eV
One Electron Energy:         -483.38458192 Eh          -13153.56319 eV
Two Electron Energy:          136.06890229 Eh            3702.62307 eV

Virial components:
Potential Energy   :         -683.18545830 Eh          -18590.42144 eV
Kinetic Energy     :          341.45063934 Eh            9291.34426 eV
Virial Ratio       :            2.00083227


DFT components:
N(Alpha)           :        9.000000359006 electrons
N(Beta)            :        7.000000349167 electrons
N(Total)           :       16.000000708173 electrons
E(X)               :      -22.824067869156 Eh       
E(C)               :       -0.565011504114 Eh       
E(XC)              :      -23.389079373270 Eh       
DFET-embed. en.    :        0.000000000000 Eh       

---------------
SCF CONVERGENCE
---------------

  Last Energy change         ...    2.2737e-13  Tolerance :   1.0000e-09
  Last MAX-Density change    ...    1.8937e-06  Tolerance :   1.0000e-08
  Last RMS-Density change    ...    1.8690e-08  Tolerance :   1.0000e-09
  Last DIIS Error            ...    2.0627e-08  Tolerance :   1.0000e-08

             **** THE GBW FILE WAS UPDATED (ph_pbe.gbw) ****
             **** DENSITY FILE WAS UPDATED (ph_pbe.scfp.tmp) ****
             **** ENERGY FILE WAS UPDATED (ph_pbe.en.tmp) ****
----------------------
UHF SPIN CONTAMINATION
----------------------

Warning: in a DFT calculation there is little theoretical justification to 
         calculate <S**2> as in Hartree-Fock theory. We will do it anyways
         but you should keep in mind that the values have only limited relevance

Expectation value of <S**2>     :     2.006822
Ideal value S*(S+1) for S=1.0   :     2.000000
Deviation                       :     0.006822

----------------
ORBITAL ENERGIES
----------------
                 SPIN UP ORBITALS
  NO   OCC          E(Eh)            E(eV) 
   0   1.0000     -76.316540     -2076.6786 
   1   1.0000      -6.332412      -172.3137 
   2   1.0000      -4.550888      -123.8360 
   3   1.0000      -4.550888      -123.8360 
   4   1.0000      -4.543481      -123.6344 
   5   1.0000      -0.565780       -15.3957 
   6   1.0000      -0.313878        -8.5411 
   7   1.0000      -0.227162        -6.1814 
   8   1.0000      -0.227162        -6.1814 
   9   0.0000      -0.024945        -0.6788 
  10   0.0000       0.005071         0.1380 
  11   0.0000       0.013836         0.3765 
  12   0.0000       0.013836         0.3765 
  13   0.0000       0.014143         0.3849 
  14   0.0000       0.042821         1.1652 
  15   0.0000       0.053859         1.4656 
  16   0.0000       0.053859         1.4656 
  17   0.0000       0.054935         1.4949 
  18   0.0000       0.054935         1.4949 
  19   0.0000       0.086031         2.3410 
  20   0.0000       0.086432         2.3519 
  21   0.0000       0.086432         2.3519 
  22   0.0000       0.104799         2.8517 
  23   0.0000       0.132225         3.5980 
  24   0.0000       0.134422         3.6578 
  25   0.0000       0.134422         3.6578 
  26   0.0000       0.155856         4.2410 
  27   0.0000       0.167047         4.5456 
  28   0.0000       0.167047         4.5456 
  29   0.0000       0.170662         4.6440 
  30   0.0000       0.170662         4.6440 
  31   0.0000       0.175528         4.7764 
  32   0.0000       0.175528         4.7764 
  33   0.0000       0.191698         5.2164 
  34   0.0000       0.191698         5.2164 
  35   0.0000       0.226567         6.1652 
  36   0.0000       0.244305         6.6479 
  37   0.0000       0.244305         6.6479 
  38   0.0000       0.267568         7.2809 
  39   0.0000       0.271157         7.3786 
  40   0.0000       0.271157         7.3786 
  41   0.0000       0.282617         7.6904 
  42   0.0000       0.282617         7.6904 
  43   0.0000       0.317315         8.6346 
  44   0.0000       0.342756         9.3269 
  45   0.0000       0.342756         9.3269 
  46   0.0000       0.343239         9.3400 
  47   0.0000       0.343239         9.3400 
  48   0.0000       0.347910         9.4671 
  49   0.0000       0.347910         9.4671 
  50   0.0000       0.348142         9.4734 
  51   0.0000       0.403535        10.9808 
  52   0.0000       0.403536        10.9808 
  53   0.0000       0.412223        11.2172 
  54   0.0000       0.412223        11.2172 
  55   0.0000       0.412367        11.2211 
  56   0.0000       0.426310        11.6005 
  57   0.0000       0.438447        11.9308 
  58   0.0000       0.438447        11.9308 
  59   0.0000       0.443538        12.0693 
  60   0.0000       0.443538        12.0693 
  61   0.0000       0.446645        12.1538 
  62   0.0000       0.446645        12.1538 
  63   0.0000       0.482764        13.1367 
  64   0.0000       0.508383        13.8338 
  65   0.0000       0.508383        13.8338 
  66   0.0000       0.527021        14.3410 
  67   0.0000       0.529528        14.4092 
  68   0.0000       0.529528        14.4092 
  69   0.0000       0.529725        14.4145 
  70   0.0000       0.529725        14.4145 
  71   0.0000       0.587840        15.9959 
  72   0.0000       0.587840        15.9959 
  73   0.0000       0.601257        16.3610 
  74   0.0000       0.601257        16.3610 
  75   0.0000       0.604528        16.4500 
  76   0.0000       0.604528        16.4500 
  77   0.0000       0.621358        16.9080 
  78   0.0000       0.647401        17.6167 
  79   0.0000       0.647401        17.6167 
  80   0.0000       0.648066        17.6348 
  81   0.0000       0.648066        17.6348 
  82   0.0000       0.654035        17.7972 
  83   0.0000       0.654037        17.7973 
  84   0.0000       0.676995        18.4220 
  85   0.0000       0.676995        18.4220 
  86   0.0000       0.739890        20.1334 
  87   0.0000       0.818588        22.2749 
  88   0.0000       0.836831        22.7713 
  89   0.0000       0.836832        22.7713 
  90   0.0000       0.848013        23.0756 
  91   0.0000       0.848013        23.0756 
  92   0.0000       0.879869        23.9424 
  93   0.0000       0.918871        25.0038 
  94   0.0000       0.992676        27.0121 
  95   0.0000       0.992676        27.0121 
  96   0.0000       1.074519        29.2391 
  97   0.0000       1.074519        29.2391 
  98   0.0000       1.129874        30.7454 
  99   0.0000       1.129874        30.7454 
 100   0.0000       1.141904        31.0728 
 101   0.0000       1.156646        31.4739 
 102   0.0000       1.156646        31.4739 
 103   0.0000       1.227769        33.4093 
 104   0.0000       1.227769        33.4093 
 105   0.0000       1.272477        34.6258 
 106   0.0000       1.323603        36.0171 
 107   0.0000       1.323603        36.0171 
 108   0.0000       1.439558        39.1724 
 109   0.0000       1.538262        41.8582 
 110   0.0000       1.606294        43.7095 
 111   0.0000       1.606294        43.7095 
 112   0.0000       2.031771        55.2873 
 113   0.0000       2.031771        55.2873 
 114   0.0000       2.078271        56.5526 
 115   0.0000       2.078271        56.5526 
 116   0.0000       2.078769        56.5662 
 117   0.0000       2.142184        58.2918 
 118   0.0000       2.142184        58.2918 
 119   0.0000       2.142449        58.2990 
 120   0.0000       2.142455        58.2992 
 121   0.0000       2.281185        62.0742 
 122   0.0000       2.323694        63.2309 
 123   0.0000       2.323694        63.2309 
 124   0.0000       2.540052        69.1183 
 125   0.0000       2.576992        70.1235 
 126   0.0000       2.576992        70.1235 
 127   0.0000       2.683846        73.0312 
 128   0.0000       2.683848        73.0312 
 129   0.0000       2.791204        75.9525 
 130   0.0000       2.791204        75.9525 
 131   0.0000       2.849472        77.5381 
 132   0.0000       2.849472        77.5381 
 133   0.0000       2.869229        78.0757 
 134   0.0000       2.902258        78.9745 
 135   0.0000       2.996343        81.5346 
 136   0.0000       2.996344        81.5347 
 137   0.0000       3.147996        85.6613 
 138   0.0000       3.147996        85.6613 
 139   0.0000       3.315723        90.2254 
 140   0.0000       3.371644        91.7471 
 141   0.0000       3.371644        91.7471 
 142   0.0000       3.537408        96.2578 
 143   0.0000       3.537408        96.2578 
 144   0.0000       3.575332        97.2897 
 145   0.0000       3.575332        97.2897 
 146   0.0000       3.604940        98.0954 
 147   0.0000       3.900916       106.1493 
 148   0.0000       4.081061       111.0513 
 149   0.0000       4.081063       111.0514 
 150   0.0000       4.657183       126.7284 
 151   0.0000       4.657183       126.7284 
 152   0.0000       4.667396       127.0063 
 153   0.0000       4.667414       127.0068 
 154   0.0000       4.803774       130.7173 
 155   0.0000       4.853204       132.0624 
 156   0.0000       4.853204       132.0624 
 157   0.0000       4.865931       132.4087 
 158   0.0000       4.865931       132.4087 
 159   0.0000       5.143143       139.9520 
 160   0.0000       5.354501       145.7034 
 161   0.0000       5.354507       145.7036 
 162   0.0000       5.361992       145.9072 
 163   0.0000       5.361992       145.9072 
 164   0.0000       5.564648       151.4218 
 165   0.0000       5.564655       151.4220 
 166   0.0000       5.697034       155.0242 
 167   0.0000       6.112227       166.3222 
 168   0.0000       6.112227       166.3222 
 169   0.0000       6.687882       181.9865 
 170   0.0000       7.237596       196.9450 
 171   0.0000       7.237632       196.9460 
 172   0.0000       7.267844       197.7681 
 173   0.0000       7.267844       197.7681 
 174   0.0000       7.385676       200.9745 
 175   0.0000       7.385683       200.9746 
 176   0.0000       7.581634       206.3068 
 177   0.0000       7.581634       206.3068 
 178   0.0000       7.861263       213.9158 
 179   0.0000       8.397728       228.5138 
 180   0.0000       8.397728       228.5138 
 181   0.0000       8.728423       237.5125 
 182   0.0000       8.728434       237.5128 
 183   0.0000       8.974529       244.2093 
 184   0.0000       9.069235       246.7864 
 185   0.0000       9.069235       246.7864 
 186   0.0000       9.421103       256.3612 
 187   0.0000      10.252521       278.9853 
 188   0.0000      10.252521       278.9853 
 189   0.0000      10.265138       279.3286 
 190   0.0000      10.265143       279.3287 
 191   0.0000      10.846996       295.1618 
 192   0.0000      10.846996       295.1618 
 193   0.0000      11.128461       302.8208 
 194   0.0000      11.509694       313.1947 
 195   0.0000      12.263413       333.7044 
 196   0.0000      12.263413       333.7044 
 197   0.0000      12.548820       341.4708 
 198   0.0000      12.548834       341.4711 
 199   0.0000      12.912499       351.3670 
 200   0.0000      12.912499       351.3670 
 201   0.0000      13.402010       364.6872 
 202   0.0000      16.058027       436.9611 
 203   0.0000      16.058027       436.9611 
 204   0.0000      16.077170       437.4820 
 205   0.0000      16.077177       437.4822 
 206   0.0000      16.719981       454.9738 
 207   0.0000      16.720547       454.9892 
 208   0.0000      16.749327       455.7724 
 209   0.0000      16.749327       455.7724 
 210   0.0000      16.752157       455.8494 
 211   0.0000      17.018072       463.0853 
 212   0.0000      17.018093       463.0859 
 213   0.0000      17.726073       482.3510 
 214   0.0000      17.726073       482.3510 
 215   0.0000      17.942768       488.2475 
 216   0.0000      22.122594       601.9864 
 217   0.0000      23.224884       631.9812 
 218   0.0000      23.224884       631.9812 
 219   0.0000      24.180238       657.9777 
 220   0.0000      39.477240      1074.2303 
 221   0.0000      58.840742      1601.1380 
 222   0.0000      58.840743      1601.1380 
 223   0.0000      58.913100      1603.1069 
 224   0.0000      58.913100      1603.1069 
 225   0.0000      59.433827      1617.2766 
 226   0.0000      90.868660      2472.6620 
 227   0.0000      90.868660      2472.6620 
 228   0.0000      91.372071      2486.3605 

                 SPIN DOWN ORBITALS
  NO   OCC          E(Eh)            E(eV) 
   0   1.0000     -76.309484     -2076.4866 
   1   1.0000      -6.324691      -172.1036 
   2   1.0000      -4.539023      -123.5131 
   3   1.0000      -4.537695      -123.4769 
   4   1.0000      -4.537695      -123.4769 
   5   1.0000      -0.511232       -13.9113 
   6   1.0000      -0.291108        -7.9215 
   7   0.0000      -0.145869        -3.9693 
   8   0.0000      -0.145869        -3.9693 
   9   0.0000      -0.010001        -0.2722 
  10   0.0000       0.018818         0.5121 
  11   0.0000       0.026765         0.7283 
  12   0.0000       0.026765         0.7283 
  13   0.0000       0.029273         0.7966 
  14   0.0000       0.052693         1.4339 
  15   0.0000       0.072278         1.9668 
  16   0.0000       0.072278         1.9668 
  17   0.0000       0.088162         2.3990 
  18   0.0000       0.088162         2.3990 
  19   0.0000       0.092549         2.5184 
  20   0.0000       0.108649         2.9565 
  21   0.0000       0.108649         2.9565 
  22   0.0000       0.118698         3.2299 
  23   0.0000       0.144290         3.9263 
  24   0.0000       0.145099         3.9483 
  25   0.0000       0.145099         3.9483 
  26   0.0000       0.170657         4.6438 
  27   0.0000       0.199908         5.4398 
  28   0.0000       0.199908         5.4398 
  29   0.0000       0.201640         5.4869 
  30   0.0000       0.201640         5.4869 
  31   0.0000       0.210882         5.7384 
  32   0.0000       0.210882         5.7384 
  33   0.0000       0.211846         5.7646 
  34   0.0000       0.211847         5.7646 
  35   0.0000       0.236670         6.4401 
  36   0.0000       0.256255         6.9730 
  37   0.0000       0.256255         6.9730 
  38   0.0000       0.281978         7.6730 
  39   0.0000       0.295235         8.0338 
  40   0.0000       0.295235         8.0338 
  41   0.0000       0.305722         8.3191 
  42   0.0000       0.305722         8.3191 
  43   0.0000       0.329508         8.9664 
  44   0.0000       0.364691         9.9237 
  45   0.0000       0.364691         9.9237 
  46   0.0000       0.369361        10.0508 
  47   0.0000       0.373364        10.1597 
  48   0.0000       0.373364        10.1597 
  49   0.0000       0.377501        10.2723 
  50   0.0000       0.377501        10.2723 
  51   0.0000       0.429537        11.6883 
  52   0.0000       0.436304        11.8724 
  53   0.0000       0.436305        11.8725 
  54   0.0000       0.440808        11.9950 
  55   0.0000       0.440808        11.9950 
  56   0.0000       0.442663        12.0455 
  57   0.0000       0.457121        12.4389 
  58   0.0000       0.457121        12.4389 
  59   0.0000       0.466288        12.6883 
  60   0.0000       0.466288        12.6883 
  61   0.0000       0.477967        13.0062 
  62   0.0000       0.477968        13.0062 
  63   0.0000       0.492906        13.4126 
  64   0.0000       0.537207        14.6181 
  65   0.0000       0.537207        14.6181 
  66   0.0000       0.549657        14.9569 
  67   0.0000       0.555778        15.1235 
  68   0.0000       0.555778        15.1235 
  69   0.0000       0.564734        15.3672 
  70   0.0000       0.564734        15.3672 
  71   0.0000       0.608215        16.5504 
  72   0.0000       0.608215        16.5504 
  73   0.0000       0.618910        16.8414 
  74   0.0000       0.618910        16.8414 
  75   0.0000       0.626664        17.0524 
  76   0.0000       0.626664        17.0524 
  77   0.0000       0.637589        17.3497 
  78   0.0000       0.663319        18.0498 
  79   0.0000       0.663319        18.0498 
  80   0.0000       0.668928        18.2025 
  81   0.0000       0.668928        18.2025 
  82   0.0000       0.672832        18.3087 
  83   0.0000       0.672832        18.3087 
  84   0.0000       0.699600        19.0371 
  85   0.0000       0.699601        19.0371 
  86   0.0000       0.752373        20.4731 
  87   0.0000       0.831896        22.6370 
  88   0.0000       0.884759        24.0755 
  89   0.0000       0.884759        24.0755 
  90   0.0000       0.884987        24.0817 
  91   0.0000       0.884987        24.0817 
  92   0.0000       0.907876        24.7046 
  93   0.0000       0.943042        25.6615 
  94   0.0000       1.039730        28.2925 
  95   0.0000       1.039731        28.2925 
  96   0.0000       1.164078        31.6762 
  97   0.0000       1.164078        31.6762 
  98   0.0000       1.169817        31.8323 
  99   0.0000       1.169817        31.8323 
 100   0.0000       1.172688        31.9105 
 101   0.0000       1.194477        32.5034 
 102   0.0000       1.194477        32.5034 
 103   0.0000       1.262342        34.3501 
 104   0.0000       1.262343        34.3501 
 105   0.0000       1.290758        35.1233 
 106   0.0000       1.338639        36.4262 
 107   0.0000       1.338639        36.4262 
 108   0.0000       1.451862        39.5072 
 109   0.0000       1.556111        42.3439 
 110   0.0000       1.632182        44.4139 
 111   0.0000       1.632182        44.4139 
 112   0.0000       2.078875        56.5691 
 113   0.0000       2.078875        56.5691 
 114   0.0000       2.115929        57.5774 
 115   0.0000       2.143545        58.3288 
 116   0.0000       2.143547        58.3289 
 117   0.0000       2.228033        60.6279 
 118   0.0000       2.228033        60.6279 
 119   0.0000       2.261508        61.5388 
 120   0.0000       2.261514        61.5389 
 121   0.0000       2.299157        62.5632 
 122   0.0000       2.375652        64.6448 
 123   0.0000       2.375652        64.6448 
 124   0.0000       2.585924        70.3666 
 125   0.0000       2.605920        70.9107 
 126   0.0000       2.605920        70.9107 
 127   0.0000       2.735392        74.4338 
 128   0.0000       2.735396        74.4339 
 129   0.0000       2.891083        78.6704 
 130   0.0000       2.891083        78.6704 
 131   0.0000       2.895673        78.7953 
 132   0.0000       2.895673        78.7953 
 133   0.0000       2.904903        79.0464 
 134   0.0000       2.925863        79.6168 
 135   0.0000       3.024239        82.2937 
 136   0.0000       3.024241        82.2938 
 137   0.0000       3.196453        86.9799 
 138   0.0000       3.196453        86.9799 
 139   0.0000       3.323159        90.4278 
 140   0.0000       3.380099        91.9772 
 141   0.0000       3.380099        91.9772 
 142   0.0000       3.553599        96.6983 
 143   0.0000       3.553599        96.6983 
 144   0.0000       3.597952        97.9053 
 145   0.0000       3.597952        97.9053 
 146   0.0000       3.613848        98.3378 
 147   0.0000       3.911877       106.4476 
 148   0.0000       4.108314       111.7929 
 149   0.0000       4.108315       111.7929 
 150   0.0000       4.772419       129.8641 
 151   0.0000       4.772442       129.8647 
 152   0.0000       4.791794       130.3914 
 153   0.0000       4.791794       130.3914 
 154   0.0000       4.825293       131.3029 
 155   0.0000       4.880837       132.8143 
 156   0.0000       4.880837       132.8143 
 157   0.0000       4.929464       134.1375 
 158   0.0000       4.929464       134.1375 
 159   0.0000       5.166833       140.5967 
 160   0.0000       5.410025       147.2143 
 161   0.0000       5.410031       147.2144 
 162   0.0000       5.413195       147.3005 
 163   0.0000       5.413195       147.3005 
 164   0.0000       5.619866       152.9243 
 165   0.0000       5.619875       152.9246 
 166   0.0000       5.724898       155.7824 
 167   0.0000       6.144142       167.1906 
 168   0.0000       6.144142       167.1906 
 169   0.0000       6.720004       182.8606 
 170   0.0000       7.317357       199.1154 
 171   0.0000       7.317387       199.1162 
 172   0.0000       7.325876       199.3472 
 173   0.0000       7.325876       199.3472 
 174   0.0000       7.425649       202.0622 
 175   0.0000       7.425654       202.0623 
 176   0.0000       7.606488       206.9831 
 177   0.0000       7.606488       206.9831 
 178   0.0000       7.872007       214.2082 
 179   0.0000       8.396052       228.4682 
 180   0.0000       8.396052       228.4682 
 181   0.0000       8.724498       237.4057 
 182   0.0000       8.724508       237.4059 
 183   0.0000       8.974067       244.1968 
 184   0.0000       9.067031       246.7265 
 185   0.0000       9.067031       246.7265 
 186   0.0000       9.417475       256.2625 
 187   0.0000      10.272182       279.5203 
 188   0.0000      10.272182       279.5203 
 189   0.0000      10.276532       279.6387 
 190   0.0000      10.276534       279.6387 
 191   0.0000      10.854035       295.3533 
 192   0.0000      10.854035       295.3533 
 193   0.0000      11.127253       302.7880 
 194   0.0000      11.514771       313.3329 
 195   0.0000      12.258618       333.5739 
 196   0.0000      12.258618       333.5739 
 197   0.0000      12.543439       341.3243 
 198   0.0000      12.543451       341.3247 
 199   0.0000      12.906371       351.2002 
 200   0.0000      12.906371       351.2002 
 201   0.0000      13.395599       364.5128 
 202   0.0000      16.065638       437.1682 
 203   0.0000      16.065638       437.1682 
 204   0.0000      16.095387       437.9777 
 205   0.0000      16.095394       437.9779 
 206   0.0000      16.713924       454.8090 
 207   0.0000      16.714459       454.8235 
 208   0.0000      16.742607       455.5895 
 209   0.0000      16.742607       455.5895 
 210   0.0000      16.754126       455.9030 
 211   0.0000      17.011434       462.9046 
 212   0.0000      17.011456       462.9052 
 213   0.0000      17.721205       482.2185 
 214   0.0000      17.721205       482.2185 
 215   0.0000      17.950804       488.4662 
 216   0.0000      22.140093       602.4626 
 217   0.0000      23.215381       631.7226 
 218   0.0000      23.215381       631.7226 
 219   0.0000      24.173857       657.8041 
 220   0.0000      39.469862      1074.0296 
 221   0.0000      58.864456      1601.7833 
 222   0.0000      58.864457      1601.7833 
 223   0.0000      58.926887      1603.4821 
 224   0.0000      58.926887      1603.4821 
 225   0.0000      59.444812      1617.5756 
 226   0.0000      90.857566      2472.3601 
 227   0.0000      90.857566      2472.3601 
 228   0.0000      91.360885      2486.0561 

                    ********************************
                    * MULLIKEN POPULATION ANALYSIS *
                    ********************************

--------------------------------------------
MULLIKEN ATOMIC CHARGES AND SPIN POPULATIONS
--------------------------------------------
   0 H :    0.008742   -0.070497
   1 P :   -0.008742    2.070497
Sum of atomic charges         :   -0.0000000
Sum of atomic spin populations:    2.0000000

-----------------------------------------------------
MULLIKEN REDUCED ORBITAL CHARGES AND SPIN POPULATIONS
-----------------------------------------------------
CHARGE
  0 H s       :     0.923138  s :     0.923138
      pz      :    -0.000839  p :     0.062985
      px      :     0.031912
      py      :     0.031912
      dz2     :    -0.007649  d :     0.010208
      dxz     :     0.008928
      dyz     :     0.008928
      dx2y2   :    -0.000000
      dxy     :     0.000000
      f0      :    -0.002407  f :    -0.003986
      f+1     :    -0.000789
      f-1     :    -0.000789
      f+2     :     0.000000
      f-2     :     0.000000
      f+3     :     0.000000
      f-3     :     0.000000
      g0      :    -0.000295  g :    -0.001086
      g+1     :    -0.000396
      g-1     :    -0.000396
      g+2     :     0.000000
      g-2     :    -0.000000
      g+3     :     0.000000
      g-3     :     0.000000
      g+4     :     0.000000
      g-4     :     0.000000
  1 P s       :     5.926704  s :     5.926704
      pz      :     3.112845  p :     9.031710
      px      :     2.959433
      py      :     2.959433
      dz2     :     0.045511  d :     0.047351
      dxz     :     0.000920
      dyz     :     0.000920
      dx2y2   :     0.000000
      dxy     :     0.000000
      f0      :     0.002614  f :     0.002553
      f+1     :    -0.000031
      f-1     :    -0.000031
      f+2     :     0.000000
      f-2     :     0.000000
      f+3     :     0.000000
      f-3     :     0.000000
      g0      :     0.000340  g :     0.000377
      g+1     :     0.000018
      g-1     :     0.000018
      g+2     :     0.000000
      g-2     :     0.000000
      g+3     :     0.000000
      g-3     :     0.000000
      g+4     :     0.000000
      g-4     :     0.000000
      h0      :     0.000037  h :     0.000046
      h+1     :     0.000004
      h-1     :     0.000004
      h+2     :    -0.000000
      h-2     :    -0.000000
      h+3     :     0.000000
      h-3     :     0.000000
      h+4     :     0.000000
      h-4     :    -0.000000
      h+5     :     0.000000
      h-5     :     0.000000

SPIN
  0 H s       :    -0.143581  s :    -0.143581
      pz      :    -0.011167  p :     0.052455
      px      :     0.031811
      py      :     0.031811
      dz2     :     0.004185  d :     0.021894
      dxz     :     0.008855
      dyz     :     0.008855
      dx2y2   :     0.000000
      dxy     :     0.000000
      f0      :     0.000962  f :    -0.000531
      f+1     :    -0.000746
      f-1     :    -0.000746
      f+2     :     0.000000
      f-2     :     0.000000
      f+3     :     0.000000
      f-3     :     0.000000
      g0      :     0.000006  g :    -0.000734
      g+1     :    -0.000370
      g-1     :    -0.000370
      g+2     :     0.000000
      g-2     :     0.000000
      g+3     :     0.000000
      g-3     :     0.000000
      g+4     :     0.000000
      g-4     :     0.000000
  1 P s       :     0.094126  s :     0.094126
      pz      :     0.047094  p :     1.966175
      px      :     0.959540
      py      :     0.959540
      dz2     :     0.010830  d :     0.012668
      dxz     :     0.000919
      dyz     :     0.000919
      dx2y2   :     0.000000
      dxy     :    -0.000000
      f0      :    -0.002337  f :    -0.002398
      f+1     :    -0.000031
      f-1     :    -0.000031
      f+2     :    -0.000000
      f-2     :    -0.000000
      f+3     :     0.000000
      f-3     :     0.000000
      g0      :    -0.000131  g :    -0.000095
      g+1     :     0.000018
      g-1     :     0.000018
      g+2     :    -0.000000
      g-2     :     0.000000
      g+3     :     0.000000
      g-3     :     0.000000
      g+4     :     0.000000
      g-4     :     0.000000
      h0      :     0.000013  h :     0.000022
      h+1     :     0.000004
      h-1     :     0.000004
      h+2     :     0.000000
      h-2     :     0.000000
      h+3     :     0.000000
      h-3     :     0.000000
      h+4     :     0.000000
      h-4     :    -0.000000
      h+5     :     0.000000
      h-5     :     0.000000


                     *******************************
                     * LOEWDIN POPULATION ANALYSIS *
                     *******************************

-------------------------------------------
LOEWDIN ATOMIC CHARGES AND SPIN POPULATIONS
-------------------------------------------
   0 H :   -1.092612    0.492711
   1 P :    1.092612    1.507289

----------------------------------------------------
LOEWDIN REDUCED ORBITAL CHARGES AND SPIN POPULATIONS
----------------------------------------------------
CHARGE
  0 H s       :     1.009523  s :     1.009523
      pz      :     0.343493  p :     0.579032
      px      :     0.117770
      py      :     0.117770
      dz2     :     0.160433  d :     0.348569
      dxz     :     0.094068
      dyz     :     0.094068
      dx2y2   :     0.000000
      dxy     :     0.000000
      f0      :     0.054846  f :     0.122375
      f+1     :     0.033764
      f-1     :     0.033764
      f+2     :     0.000000
      f-2     :     0.000000
      f+3     :     0.000000
      f-3     :     0.000000
      g0      :     0.013355  g :     0.033115
      g+1     :     0.009880
      g-1     :     0.009880
      g+2     :     0.000000
      g-2     :     0.000000
      g+3     :     0.000000
      g-3     :     0.000000
      g+4     :     0.000000
      g-4     :     0.000000
  1 P s       :     5.231507  s :     5.231507
      pz      :     3.085488  p :     8.569094
      px      :     2.741803
      py      :     2.741803
      dz2     :     0.084976  d :     0.086786
      dxz     :     0.000905
      dyz     :     0.000905
      dx2y2   :     0.000000
      dxy     :     0.000000
      f0      :     0.013498  f :     0.016402
      f+1     :     0.001452
      f-1     :     0.001452
      f+2     :     0.000000
      f-2     :     0.000000
      f+3     :     0.000000
      f-3     :     0.000000
      g0      :     0.002457  g :     0.003089
      g+1     :     0.000316
      g-1     :     0.000316
      g+2     :     0.000000
      g-2     :     0.000000
      g+3     :     0.000000
      g-3     :     0.000000
      g+4     :     0.000000
      g-4     :     0.000000
      h0      :     0.000424  h :     0.000509
      h+1     :     0.000043
      h-1     :     0.000043
      h+2     :     0.000000
      h-2     :     0.000000
      h+3     :     0.000000
      h-3     :     0.000000
      h+4     :     0.000000
      h-4     :     0.000000
      h+5     :     0.000000
      h-5     :     0.000000

SPIN
  0 H s       :    -0.020263  s :    -0.020263
      pz      :     0.008270  p :     0.243513
      px      :     0.117621
      py      :     0.117621
      dz2     :     0.001483  d :     0.187064
      dxz     :     0.092791
      dyz     :     0.092791
      dx2y2   :     0.000000
      dxy     :    -0.000000
      f0      :    -0.001823  f :     0.064765
      f+1     :     0.033294
      f-1     :     0.033294
      f+2     :     0.000000
      f-2     :     0.000000
      f+3     :     0.000000
      f-3     :     0.000000
      g0      :    -0.001363  g :     0.017632
      g+1     :     0.009498
      g-1     :     0.009498
      g+2     :     0.000000
      g-2     :     0.000000
      g+3     :     0.000000
      g-3     :     0.000000
      g+4     :     0.000000
      g-4     :     0.000000
  1 P s       :     0.008062  s :     0.008062
      pz      :     0.003836  p :     1.492041
      px      :     0.744103
      py      :     0.744103
      dz2     :     0.006002  d :     0.007798
      dxz     :     0.000898
      dyz     :     0.000898
      dx2y2   :     0.000000
      dxy     :     0.000000
      f0      :    -0.003812  f :    -0.000921
      f+1     :     0.001446
      f-1     :     0.001446
      f+2     :     0.000000
      f-2     :    -0.000000
      f+3     :     0.000000
      f-3     :     0.000000
      g0      :    -0.000367  g :     0.000253
      g+1     :     0.000310
      g-1     :     0.000310
      g+2     :     0.000000
      g-2     :    -0.000000
      g+3     :     0.000000
      g-3     :     0.000000
      g+4     :     0.000000
      g-4     :     0.000000
      h0      :    -0.000024  h :     0.000055
      h+1     :     0.000040
      h-1     :     0.000040
      h+2     :    -0.000000
      h-2     :     0.000000
      h+3     :     0.000000
      h-3     :     0.000000
      h+4     :     0.000000
      h-4     :     0.000000
      h+5     :     0.000000
      h-5     :     0.000000


                      *****************************
                      * MAYER POPULATION ANALYSIS *
                      *****************************

  NA   - Mulliken gross atomic population
  ZA   - Total nuclear charge
  QA   - Mulliken gross atomic charge
  VA   - Mayer's total valence
  BVA  - Mayer's bonded valence
  FA   - Mayer's free valence

  ATOM       NA         ZA         QA         VA         BVA        FA
  0 H      0.9913     1.0000     0.0087     1.0620     1.0354     0.0266
  1 P     15.0087    15.0000    -0.0087     2.9145     1.0354     1.8791

  Mayer bond orders larger than 0.1
B(  0-H ,  1-P ) :   1.0354 

-------
TIMINGS
-------

Total SCF time: 0 days 0 hours 2 min 30 sec 

Total time                  ....     150.189 sec
Sum of individual times     ....     149.606 sec  ( 99.6%)

Fock matrix formation       ....     148.429 sec  ( 98.8%)
  XC integration            ....       4.175 sec  (  2.8% of F)
    Basis function eval.    ....       0.397 sec  (  9.5% of XC)
    Density eval.           ....       0.803 sec  ( 19.2% of XC)
    XC-Functional eval.     ....       0.090 sec  (  2.2% of XC)
    XC-Potential eval.      ....       2.475 sec  ( 59.3% of XC)
Diagonalization             ....       0.388 sec  (  0.3%)
Density matrix formation    ....       0.010 sec  (  0.0%)
Population analysis         ....       0.039 sec  (  0.0%)
Initial guess               ....       0.280 sec  (  0.2%)
Orbital Transformation      ....       0.000 sec  (  0.0%)
Orbital Orthonormalization  ....       0.000 sec  (  0.0%)
DIIS solution               ....       0.261 sec  (  0.2%)
Grid generation             ....       0.199 sec  (  0.1%)

-------------------------   --------------------
FINAL SINGLE POINT ENERGY      -341.734818963573
-------------------------   --------------------


                            ***************************************
                            *     ORCA property calculations      *
                            ***************************************

                                    ---------------------
                                    Active property flags
                                    ---------------------
   (+) Dipole Moment
   (+) Polarizability


------------------------------------------------------------------------------
                       ORCA ELECTRIC PROPERTIES CALCULATION
------------------------------------------------------------------------------

Dipole Moment Calculation                       ... on
Quadrupole Moment Calculation                   ... off
Polarizability Calculation                      ... Analytic (CP-SCF)
GBWName                                         ... ph_pbe.gbw
Electron density file                           ... ph_pbe.scfp.tmp
The origin for moment calculation is the CENTER OF MASS  = ( 0.000000,  0.000000  2.603045)

-------------
DIPOLE MOMENT
-------------
                                X             Y             Z
Electronic contribution:      0.00000       0.00000       1.16704
Nuclear contribution   :      0.00000       0.00000      -1.33237
                        -----------------------------------------
Total Dipole Moment    :      0.00000       0.00000      -0.16533
                        -----------------------------------------
Magnitude (a.u.)       :      0.16533
Magnitude (Debye)      :      0.42022



--------------------
Rotational spectrum 
--------------------
 
Rotational constants in cm-1:     0.000000     8.536155     8.536155 
Rotational constants in MHz :     0.000000 255907.477930 255907.477930 

 Dipole components along the rotational axes: 
x,y,z [a.u.] :    -0.165326     0.000000     0.000000 
x,y,z [Debye]:    -0.420224     0.000000     0.000000 

 
Transforming and storing MO dipole integrals   ... done

                ... starting polarizability calculation

Opening the Dipole integral file               ... (ph_pbe.dmo.tmp) done
Reading Dipole-MO integrals                    ... done
Solving CP-SCF equations                       ... 

           ************************************************************
           *        Program running with 4 parallel MPI-processes     *
           *              working on a common directory               *
           ************************************************************

------------------------------------------------------------------------------
                           ORCA CP-SCF CALCULATION
------------------------------------------------------------------------------

Input orbitals are from        ... ph_pbe.gbw
Input Perturbation             ... ph_pbe.cpv.tmp
Wavefunction output            ... ph_pbe.cpu.tmp
Perturbation mode              ... Real perturbation (singlet)
Solver                         ... POPLE
Max. number of iterations      ... 200
Convergence tolerance          ... 1.000e-06
Integral handling              ... Direct
Number of perturbations        ... 3
Number of operators            ... 2
Orbital ranges used for CP-SCF:
 Operator 0:  Orbitals   0...  8  to   9...228
 Operator 1:  Orbitals   0...  6  to   7...228
DFT calculation                         ... on
Exchange functional (SCF)               ... PBE
Exchange functional (CP-SCF)            ... PBE
   PBE kappa parameter  XKappa (SCF)    ...  0.804000
   PBE kappa parameter  XKappa (CP-SCF) ...  0.804000
   PBE mue parameter   XMuePBE (SCF)    ...  0.219520
   PBE mue parameter   XMuePBE (CP-SCF) ...  0.219520
Correlation functional (SCF)            ... PBE
Correlation functional (CP-SCF)         ... PBE
   PBE beta parameter CBetaPBE (SCF)    ...  0.066725
   PBE beta parameter CBetaPBE (CP-SCF) ...  0.066725
 LDA part of GGA corr.  LDAOpt (SCF)    ... PW91-LDA
 LDA part of GGA corr.  LDAOpt (CP-SCF) ... PW91-LDA
Variables per vector in CP-SCF ... 3534
Number of vectors sought       ... 3
Recalculating density on grid  ... done
Calculating the xc-kernel      ... done
     CP-SCF ITERATION   0: 
     CP-SCF ITERATION   1:      0.044699845909
     CP-SCF ITERATION   2:      0.002379723755
     CP-SCF ITERATION   3:      0.000102903948
     CP-SCF ITERATION   4:      0.000003750911
     CP-SCF ITERATION   5:      0.000000187789
done
Reading CP-SCF coefficients                    ... done
Doing the polarizability tensor   ... done
Cleaning up                                    ... done

-------------------------
THE POLARIZABILITY TENSOR
-------------------------

The raw cartesian tensor (atomic units):
   28.57205     -0.00000     -0.00000  
   -0.00000     28.57205     -0.00000  
   -0.00000     -0.00000     31.27225  
diagonalized tensor: 
   28.57205     28.57205     31.27225  

   -0.65094      0.75913     -0.00000  
   -0.75913     -0.65094     -0.00000  
   -0.00000     -0.00000      1.00000  

Isotropic polarizability :  29.47211


Timings for individual modules:

Sum of individual times         ...      244.342 sec (=   4.072 min)
GTO integral calculation        ...        1.687 sec (=   0.028 min)   0.7 %
SCF iterations                  ...      150.503 sec (=   2.508 min)  61.6 %
Solution of CP-SCF eqns.        ...       92.153 sec (=   1.536 min)  37.7 %
                             ****ORCA TERMINATED NORMALLY****
TOTAL RUN TIME: 0 days 0 hours 4 minutes 5 seconds 58 msec
