
                                 *****************
                                 * O   R   C   A *
                                 *****************

           --- An Ab Initio, DFT and Semiempirical electronic structure package ---

                  #######################################################
                  #                        -***-                        #
                  #          Department of theory and spectroscopy      #
                  #               Directorship: Frank Neese             #
                  #        Max Planck Institute fuer Kohlenforschung    #
                  #                Kaiser Wilhelm Platz 1               #
                  #                 D-45470 Muelheim/Ruhr               #
                  #                      Germany                        #
                  #                                                     #
                  #                  All rights reserved                #
                  #                        -***-                        #
                  #######################################################


                         Program Version 4.1.2  - RELEASE  -


 With contributions from (in alphabetic order):
   Daniel Aravena         : Magnetic Properties
   Michael Atanasov       : Ab Initio Ligand Field Theory
   Alexander A. Auer      : GIAO ZORA
   Ute Becker             : Parallelization
   Giovanni Bistoni       : ED, Open-shell LED
   Martin Brehm           : Molecular dynamics
   Dmytro Bykov           : SCF Hessian
   Vijay G. Chilkuri      : MRCI spin determinant printing
   Dipayan Datta          : RHF DLPNO-CCSD density
   Achintya Kumar Dutta   : EOM-CC, STEOM-CC
   Dmitry Ganyushin       : Spin-Orbit,Spin-Spin,Magnetic field MRCI
   Miquel Garcia          : C-PCM Hessian
   Yang Guo               : DLPNO-NEVPT2, CIM, IAO-localization
   Andreas Hansen         : Spin unrestricted coupled pair/coupled cluster methods
   Benjamin Helmich-Paris : CASSCF linear response (MC-RPA)
   Lee Huntington         : MR-EOM, pCC
   Robert Izsak           : Overlap fitted RIJCOSX, COSX-SCS-MP3, EOM
   Christian Kollmar      : KDIIS, OOCD, Brueckner-CCSD(T), CCSD density
   Simone Kossmann        : Meta GGA functionals, TD-DFT gradient, OOMP2, MP2 Hessian
   Martin Krupicka        : AUTO-CI
   Lucas Lang             : DCDCAS
   Dagmar Lenk            : GEPOL surface, SMD
   Dimitrios Liakos       : Extrapolation schemes; parallel MDCI
   Dimitrios Manganas     : ROCIS; embedding schemes
   Dimitrios Pantazis     : SARC Basis sets
   Taras Petrenko         : DFT Hessian,TD-DFT gradient, ASA, ECA, R-Raman, ABS, FL, XAS/XES, NRVS
   Peter Pinski           : DLPNO-MP2, DLPNO-MP2 Gradient
   Christoph Reimann      : Effective Core Potentials
   Marius Retegan         : Local ZFS, SOC
   Christoph Riplinger    : Optimizer, TS searches, QM/MM, DLPNO-CCSD(T), (RO)-DLPNO pert. Triples
   Tobias Risthaus        : Range-separated hybrids, TD-DFT gradient, RPA, STAB
   Michael Roemelt        : Restricted open shell CIS
   Masaaki Saitow         : Open-shell DLPNO
   Barbara Sandhoefer     : DKH picture change effects
   Avijit Sen             : IP-ROCIS
   Kantharuban Sivalingam : CASSCF convergence, NEVPT2, FIC-MRCI
   Bernardo de Souza      : ESD, SOC TD-DFT
   Georgi Stoychev        : AutoAux, RI-MP2 NMR
   Willem Van den Heuvel  : Paramagnetic NMR
   Boris Wezisla          : Elementary symmetry handling
   Frank Wennmohs         : Technical directorship


 We gratefully acknowledge several colleagues who have allowed us to
 interface, adapt or use parts of their codes:
   Stefan Grimme, W. Hujo, H. Kruse,             : VdW corrections, initial TS optimization,
                  C. Bannwarth                     DFT functionals, gCP, sTDA/sTD-DF
   Ed Valeev                                     : LibInt (2-el integral package), F12 methods
   Garnet Chan, S. Sharma, J. Yang, R. Olivares  : DMRG
   Ulf Ekstrom                                   : XCFun DFT Library
   Mihaly Kallay                                 : mrcc  (arbitrary order and MRCC methods)
   Andreas Klamt, Michael Diedenhofen            : otool_cosmo (COSMO solvation model)
   Jiri Pittner, Ondrej Demel                    : Mk-CCSD
   Frank Weinhold                                : gennbo (NPA and NBO analysis)
   Christopher J. Cramer and Donald G. Truhlar   : smd solvation model
   Lars Goerigk                                  : TD-DFT with DH, B97 family of functionals
   V. Asgeirsson, H. Jonsson                     : NEB implementation
   FAccTs GmbH                                   : IRC, NEB, NEB-TS, Multilevel


 Your calculation uses the libint2 library for the computation of 2-el integrals
 For citations please refer to: http://libint.valeyev.net

 This ORCA versions uses:
   CBLAS   interface :  Fast vector & matrix operations
   LAPACKE interface :  Fast linear algebra routines
   SCALAPACK package :  Parallel linear algebra routines


----- Orbital basis set information -----
Your calculation utilizes the basis: aug-pc-4
   H, C-F              : F. Jensen, J. Chem. Phys. 115, 9113 (2001).
                         F. Jensen, J. Chem. Phys. 116, 7372 (2002).
                         F. Jensen, J. Chem. Phys. 117, 9234 (2002).
   Si-Cl               : F. Jensen, T. Helgaker, J. Chem. Phys. 121, 3463 (2004).
   He-B, Ne-Mg, Al, Ar : F. Jensen, J. Phys. Chem. A 111, 11198 (2007).
   K, Ca, Ga-Kr        : F. Jensen, J. Chem. Phys. 136, 094110 (2012).
   Sc-Zn               : F. Jensen, J. Chem. Phys. 138, 014107 (2013).

================================================================================
                                        WARNINGS
                       Please study these warnings very carefully!
================================================================================


INFO   : the flag for use of LIBINT has been found!

================================================================================
                                       INPUT FILE
================================================================================
NAME = scl_pbe.inp
|  1> !uks pbe nori aug-pc-4 grid5 nofinalgrid verytightscf
|  2> 
|  3> %maxcore 1500
|  4> 
|  5> %pal nprocs 4 end
|  6> 
|  7> %scf
|  8> 	maxiter 200
|  9> end
| 10> %elprop
| 11> 	dipole true
| 12> 	 polar 1
| 13> 	 maxiter 200
| 14> end
| 15> 
| 16> * xyz 0 2
| 17> S 0.0000 0.0000 0.0000
| 18> Cl 0.0000 0.0000 1.9753
| 19> *
| 20> 
| 21>                          ****END OF INPUT****
================================================================================

                       ****************************
                       * Single Point Calculation *
                       ****************************

---------------------------------
CARTESIAN COORDINATES (ANGSTROEM)
---------------------------------
  S      0.000000    0.000000    0.000000
  Cl     0.000000    0.000000    1.975300

----------------------------
CARTESIAN COORDINATES (A.U.)
----------------------------
  NO LB      ZA    FRAG     MASS         X           Y           Z
   0 S    16.0000    0    32.060    0.000000    0.000000    0.000000
   1 Cl   17.0000    0    35.453    0.000000    0.000000    3.732776

--------------------------------
INTERNAL COORDINATES (ANGSTROEM)
--------------------------------
 S      0   0   0     0.000000000000     0.00000000     0.00000000
 Cl     1   0   0     1.975300000000     0.00000000     0.00000000

---------------------------
INTERNAL COORDINATES (A.U.)
---------------------------
 S      0   0   0     0.000000000000     0.00000000     0.00000000
 Cl     1   0   0     3.732776032335     0.00000000     0.00000000

---------------------
BASIS SET INFORMATION
---------------------
There are 2 groups of distinct atoms

 Group   1 Type S   : 44s27p7d4f3g2h contracted to 8s7p7d4f3g2h pattern {15121211111/111111111/1111111/1111/111/11}
 Group   2 Type Cl  : 44s27p7d4f3g2h contracted to 8s7p7d4f3g2h pattern {15121211111/111111111/1111111/1111/111/11}

Atom   0S    basis set group =>   1
Atom   1Cl   basis set group =>   2


           ************************************************************
           *        Program running with 4 parallel MPI-processes     *
           *              working on a common directory               *
           ************************************************************
------------------------------------------------------------------------------
                           ORCA GTO INTEGRAL CALCULATION
------------------------------------------------------------------------------

                         BASIS SET STATISTICS AND STARTUP INFO

 # of primitive gaussian shells          ...  174
 # of primitive gaussian functions       ...  474
 # of contracted shells                  ...   62
 # of contracted basis functions         ...  282
 Highest angular momentum                ...    5
 Maximum contraction depth               ...   15
 Integral package used                   ... LIBINT
 Integral threshhold            Thresh   ...  1.000e-12
 Primitive cut-off              TCut     ...  1.000e-14


------------------------------ INTEGRAL EVALUATION ----------------------------


 * One electron integrals 
 Pre-screening matrix                    ... done
 Shell pair data                         ... done (   0.001 sec)



           ************************************************************
           *        Program running with 4 parallel MPI-processes     *
           *              working on a common directory               *
           ************************************************************
-------------------------------------------------------------------------------
                                 ORCA SCF
-------------------------------------------------------------------------------

------------
SCF SETTINGS
------------
Hamiltonian:
 Density Functional     Method          .... DFT(GTOs)
 Exchange Functional    Exchange        .... PBE
   PBE kappa parameter   XKappa         ....  0.804000
   PBE mue parameter    XMuePBE         ....  0.219520
 Correlation Functional Correlation     .... PBE
   PBE beta parameter  CBetaPBE         ....  0.066725
 LDA part of GGA corr.  LDAOpt          .... PW91-LDA
 Gradients option       PostSCFGGA      .... off
   Density functional embedding theory  .... OFF
   NL short-range parameter             ....  6.400000


General Settings:
 Integral files         IntName         .... scl_pbe
 Hartree-Fock type      HFTyp           .... UHF
 Total Charge           Charge          ....    0
 Multiplicity           Mult            ....    2
 Number of Electrons    NEL             ....   33
 Basis Dimension        Dim             ....  282
 Nuclear Repulsion      ENuc            ....     72.8680203805 Eh

Convergence Acceleration:
 DIIS                   CNVDIIS         .... on
   Start iteration      DIISMaxIt       ....    12
   Startup error        DIISStart       ....  0.200000
   # of expansion vecs  DIISMaxEq       ....     5
   Bias factor          DIISBfac        ....   1.050
   Max. coefficient     DIISMaxC        ....  10.000
 Newton-Raphson         CNVNR           .... off
 SOSCF                  CNVSOSCF        .... off
 Level Shifting         CNVShift        .... on
   Level shift para.    LevelShift      ....    0.2500
   Turn off err/grad.   ShiftErr        ....    0.0010
 Zerner damping         CNVZerner       .... off
 Static damping         CNVDamp         .... on
   Fraction old density DampFac         ....    0.7000
   Max. Damping (<1)    DampMax         ....    0.9800
   Min. Damping (>=0)   DampMin         ....    0.0000
   Turn off err/grad.   DampErr         ....    0.1000
 Fernandez-Rico         CNVRico         .... off

SCF Procedure:
 Maximum # iterations   MaxIter         ....   200
 SCF integral mode      SCFMode         .... Direct
   Integral package                     .... LIBINT
 Reset frequency        DirectResetFreq ....    20
 Integral Threshold     Thresh          ....  1.000e-12 Eh
 Primitive CutOff       TCut            ....  1.000e-14 Eh

Convergence Tolerance:
 Convergence Check Mode ConvCheckMode   .... Total+1el-Energy
 Convergence forced     ConvForced      .... 0
 Energy Change          TolE            ....  1.000e-09 Eh
 1-El. energy change                    ....  1.000e-06 Eh
 DIIS Error             TolErr          ....  1.000e-08


Diagonalization of the overlap matrix:
Smallest eigenvalue                        ... 1.610e-05
Time for diagonalization                   ...    0.081 sec
Threshold for overlap eigenvalues          ... 1.000e-08
Number of eigenvalues below threshold      ... 0
Time for construction of square roots      ...    0.012 sec
Total time needed                          ...    0.093 sec

-------------------
DFT GRID GENERATION
-------------------

General Integration Accuracy     IntAcc      ...  5.010
Radial Grid Type                 RadialGrid  ... Gauss-Chebyshev
Angular Grid (max. acc.)         AngularGrid ... Lebedev-434
Angular grid pruning method      GridPruning ... 3 (G Style)
Weight generation scheme         WeightScheme... Becke
Basis function cutoff            BFCut       ...    1.0000e-12
Integration weight cutoff        WCut        ...    1.0000e-14
Grids for H and He will be reduced by one unit

# of grid points (after initial pruning)     ...  23624 (   0.0 sec)
# of grid points (after weights+screening)   ...  23562 (   0.0 sec)
nearest neighbour list constructed           ...    0.0 sec
Grid point re-assignment to atoms done       ...    0.0 sec
Grid point division into batches done        ...    0.2 sec
Reduced shell lists constructed in    0.3 sec

Total number of grid points                  ...    23562
Total number of batches                      ...      369
Average number of points per batch           ...       63
Average number of grid points per atom       ...    11781
Average number of shells per batch           ...    38.32 (61.81%)
Average number of basis functions per batch  ...   180.19 (63.90%)
Average number of large shells per batch     ...    32.44 (84.65%)
Average number of large basis fcns per batch ...   153.41 (85.14%)
Maximum spatial batch extension              ...  18.71, 18.71, 16.84 au
Average spatial batch extension              ...   1.47,  1.48,  1.30 au

Time for grid setup =    0.306 sec

------------------------------
INITIAL GUESS: MODEL POTENTIAL
------------------------------
Loading Hartree-Fock densities                     ... done
Calculating cut-offs                               ... done
Setting up the integral package                    ... done
Initializing the effective Hamiltonian             ... done
Starting the Coulomb interaction                   ... done (   0.0 sec)
Reading the grid                                   ... done
Mapping shells                                     ... done
Starting the XC term evaluation                    ... done (   0.3 sec)
  promolecular density results
     # of electrons  =     32.999998456
     EX              =    -52.244158252
     EC              =     -1.277602704
     EX+EC           =    -53.521760956
Transforming the Hamiltonian                       ... done (   0.0 sec)
Diagonalizing the Hamiltonian                      ... done (   0.0 sec)
Back transforming the eigenvectors                 ... done (   0.0 sec)
Now organizing SCF variables                       ... done
                      ------------------
                      INITIAL GUESS DONE (   0.7 sec)
                      ------------------
--------------
SCF ITERATIONS
--------------
ITER       Energy         Delta-E        Max-DP      RMS-DP      [F,P]     Damp
               ***  Starting incremental Fock matrix formation  ***
  0   -858.0460531173   0.000000000000 0.00847875  0.00007842  0.0270083 0.7000
  1   -858.0476206269  -0.001567509562 0.00629227  0.00006164  0.0183616 0.7000
                               ***Turning on DIIS***
  2   -858.0485376351  -0.000917008245 0.01336360  0.00014052  0.0115237 0.0000
  3   -858.0504438276  -0.001906192493 0.00418169  0.00004279  0.0098561 0.0000
  4   -858.0506282044  -0.000184376727 0.00216758  0.00001872  0.0044513 0.0000
  5   -858.0506862289  -0.000058024586 0.00083337  0.00000784  0.0011009 0.0000
  6   -858.0506947470  -0.000008518083 0.00064144  0.00000707  0.0006210 0.0000
  7   -858.0506979780  -0.000003230979 0.00013950  0.00000169  0.0007710 0.0000
  8   -858.0506988978  -0.000000919780 0.00006682  0.00000083  0.0001022 0.0000
  9   -858.0506989286  -0.000000030768 0.00003760  0.00000039  0.0000844 0.0000
 10   -858.0506989502  -0.000000021682 0.00000692  0.00000008  0.0000134 0.0000
 11   -858.0506989509  -0.000000000712 0.00000193  0.00000002  0.0000057 0.0000
 12   -858.0506989510  -0.000000000098 0.00000126  0.00000001  0.0000016 0.0000
 13   -858.0506989511  -0.000000000011 0.00000189  0.00000002  0.0000004 0.0000
                 **** Energy Check signals convergence ****

               *****************************************************
               *                     SUCCESS                       *
               *           SCF CONVERGED AFTER  14 CYCLES          *
               *****************************************************


----------------
TOTAL SCF ENERGY
----------------

Total Energy       :         -858.05069895 Eh          -23348.74655 eV

Components:
Nuclear Repulsion  :           72.86802038 Eh            1982.83964 eV
Electronic Energy  :         -930.91871933 Eh          -25331.58619 eV
One Electron Energy:        -1329.96555955 Eh          -36190.20275 eV
Two Electron Energy:          399.04684022 Eh           10858.61656 eV

Virial components:
Potential Energy   :        -1715.38268743 Eh          -46677.93599 eV
Kinetic Energy     :          857.33198848 Eh           23329.18944 eV
Virial Ratio       :            2.00083831


DFT components:
N(Alpha)           :       16.999999907239 electrons
N(Beta)            :       15.999999872832 electrons
N(Total)           :       32.999999780071 electrons
E(X)               :      -52.266510171520 Eh       
E(C)               :       -1.271349010057 Eh       
E(XC)              :      -53.537859181577 Eh       
DFET-embed. en.    :        0.000000000000 Eh       

---------------
SCF CONVERGENCE
---------------

  Last Energy change         ...   -4.0927e-12  Tolerance :   1.0000e-09
  Last MAX-Density change    ...    5.7444e-07  Tolerance :   1.0000e-08
  Last RMS-Density change    ...    5.0039e-09  Tolerance :   1.0000e-09
  Last DIIS Error            ...    2.5170e-07  Tolerance :   1.0000e-08

             **** THE GBW FILE WAS UPDATED (scl_pbe.gbw) ****
             **** DENSITY FILE WAS UPDATED (scl_pbe.scfp.tmp) ****
             **** ENERGY FILE WAS UPDATED (scl_pbe.en.tmp) ****
----------------------
UHF SPIN CONTAMINATION
----------------------

Warning: in a DFT calculation there is little theoretical justification to 
         calculate <S**2> as in Hartree-Fock theory. We will do it anyways
         but you should keep in mind that the values have only limited relevance

Expectation value of <S**2>     :     0.753282
Ideal value S*(S+1) for S=0.5   :     0.750000
Deviation                       :     0.003282

----------------
ORBITAL ENERGIES
----------------
                 SPIN UP ORBITALS
  NO   OCC          E(Eh)            E(eV) 
   0   1.0000    -100.705312     -2740.3308 
   1   1.0000     -88.094834     -2397.1823 
   2   1.0000      -9.226840      -251.0751 
   3   1.0000      -7.728604      -210.3060 
   4   1.0000      -7.049155      -191.8173 
   5   1.0000      -7.042993      -191.6496 
   6   1.0000      -7.037532      -191.5010 
   7   1.0000      -5.751893      -156.5170 
   8   1.0000      -5.751527      -156.5070 
   9   1.0000      -5.735949      -156.0831 
  10   1.0000      -0.831092       -22.6152 
  11   1.0000      -0.627700       -17.0806 
  12   1.0000      -0.404360       -11.0032 
  13   1.0000      -0.369997       -10.0681 
  14   1.0000      -0.350450        -9.5362 
  15   1.0000      -0.255276        -6.9464 
  16   1.0000      -0.221776        -6.0348 
  17   0.0000      -0.106042        -2.8856 
  18   0.0000      -0.012472        -0.3394 
  19   0.0000       0.014825         0.4034 
  20   0.0000       0.016836         0.4581 
  21   0.0000       0.017465         0.4752 
  22   0.0000       0.030185         0.8214 
  23   0.0000       0.044187         1.2024 
  24   0.0000       0.045423         1.2360 
  25   0.0000       0.065164         1.7732 
  26   0.0000       0.065531         1.7832 
  27   0.0000       0.083444         2.2706 
  28   0.0000       0.093008         2.5309 
  29   0.0000       0.100580         2.7369 
  30   0.0000       0.102182         2.7805 
  31   0.0000       0.104680         2.8485 
  32   0.0000       0.111071         3.0224 
  33   0.0000       0.132798         3.6136 
  34   0.0000       0.142219         3.8700 
  35   0.0000       0.143288         3.8991 
  36   0.0000       0.143567         3.9067 
  37   0.0000       0.154903         4.2151 
  38   0.0000       0.158426         4.3110 
  39   0.0000       0.188862         5.1392 
  40   0.0000       0.198655         5.4057 
  41   0.0000       0.215907         5.8751 
  42   0.0000       0.215908         5.8752 
  43   0.0000       0.217568         5.9203 
  44   0.0000       0.219287         5.9671 
  45   0.0000       0.219765         5.9801 
  46   0.0000       0.224486         6.1086 
  47   0.0000       0.227513         6.1909 
  48   0.0000       0.255718         6.9584 
  49   0.0000       0.270137         7.3508 
  50   0.0000       0.270583         7.3629 
  51   0.0000       0.294722         8.0198 
  52   0.0000       0.322545         8.7769 
  53   0.0000       0.322616         8.7788 
  54   0.0000       0.323070         8.7912 
  55   0.0000       0.331322         9.0157 
  56   0.0000       0.333847         9.0845 
  57   0.0000       0.335373         9.1260 
  58   0.0000       0.335374         9.1260 
  59   0.0000       0.391312        10.6481 
  60   0.0000       0.399635        10.8746 
  61   0.0000       0.401496        10.9253 
  62   0.0000       0.401496        10.9253 
  63   0.0000       0.409229        11.1357 
  64   0.0000       0.422513        11.4972 
  65   0.0000       0.430578        11.7166 
  66   0.0000       0.438020        11.9191 
  67   0.0000       0.448703        12.2098 
  68   0.0000       0.449028        12.2187 
  69   0.0000       0.454768        12.3749 
  70   0.0000       0.454803        12.3758 
  71   0.0000       0.476823        12.9750 
  72   0.0000       0.483047        13.1444 
  73   0.0000       0.484852        13.1935 
  74   0.0000       0.496643        13.5143 
  75   0.0000       0.496862        13.5203 
  76   0.0000       0.506146        13.7729 
  77   0.0000       0.513491        13.9728 
  78   0.0000       0.554318        15.0837 
  79   0.0000       0.557333        15.1658 
  80   0.0000       0.557333        15.1658 
  81   0.0000       0.587082        15.9753 
  82   0.0000       0.588590        16.0163 
  83   0.0000       0.588610        16.0169 
  84   0.0000       0.599645        16.3172 
  85   0.0000       0.607962        16.5435 
  86   0.0000       0.620841        16.8940 
  87   0.0000       0.620841        16.8940 
  88   0.0000       0.640778        17.4364 
  89   0.0000       0.648034        17.6339 
  90   0.0000       0.649113        17.6633 
  91   0.0000       0.682040        18.5592 
  92   0.0000       0.682080        18.5603 
  93   0.0000       0.692103        18.8331 
  94   0.0000       0.699802        19.0426 
  95   0.0000       0.703300        19.1378 
  96   0.0000       0.703301        19.1378 
  97   0.0000       0.775324        21.0976 
  98   0.0000       0.776247        21.1228 
  99   0.0000       0.786258        21.3952 
 100   0.0000       0.794595        21.6220 
 101   0.0000       0.795046        21.6343 
 102   0.0000       0.819879        22.3100 
 103   0.0000       0.825070        22.4513 
 104   0.0000       0.831342        22.6220 
 105   0.0000       0.832593        22.6560 
 106   0.0000       0.832594        22.6560 
 107   0.0000       0.853059        23.2129 
 108   0.0000       0.864211        23.5164 
 109   0.0000       0.865383        23.5483 
 110   0.0000       0.869024        23.6473 
 111   0.0000       0.897887        24.4327 
 112   0.0000       0.898072        24.4378 
 113   0.0000       0.935759        25.4633 
 114   0.0000       0.935762        25.4634 
 115   0.0000       0.954737        25.9797 
 116   0.0000       0.980684        26.6858 
 117   0.0000       0.983948        26.7746 
 118   0.0000       0.988656        26.9027 
 119   0.0000       1.002923        27.2909 
 120   0.0000       1.005983        27.3742 
 121   0.0000       1.026944        27.9446 
 122   0.0000       1.042614        28.3710 
 123   0.0000       1.051595        28.6153 
 124   0.0000       1.104352        30.0509 
 125   0.0000       1.255706        34.1695 
 126   0.0000       1.276332        34.7308 
 127   0.0000       1.289941        35.1011 
 128   0.0000       1.289945        35.1012 
 129   0.0000       1.307757        35.5859 
 130   0.0000       1.307765        35.5861 
 131   0.0000       1.319943        35.9175 
 132   0.0000       1.320028        35.9198 
 133   0.0000       1.331096        36.2210 
 134   0.0000       1.442539        39.2535 
 135   0.0000       1.464303        39.8457 
 136   0.0000       1.486997        40.4633 
 137   0.0000       1.580964        43.0202 
 138   0.0000       1.581749        43.0416 
 139   0.0000       1.632954        44.4349 
 140   0.0000       1.644173        44.7402 
 141   0.0000       1.741314        47.3836 
 142   0.0000       1.823012        49.6067 
 143   0.0000       1.827056        49.7167 
 144   0.0000       1.838578        50.0303 
 145   0.0000       1.898275        51.6547 
 146   0.0000       2.047978        55.7283 
 147   0.0000       2.048083        55.7312 
 148   0.0000       2.163662        58.8762 
 149   0.0000       2.180980        59.3475 
 150   0.0000       2.181091        59.3505 
 151   0.0000       2.183510        59.4163 
 152   0.0000       2.271180        61.8020 
 153   0.0000       2.308699        62.8229 
 154   0.0000       2.324748        63.2596 
 155   0.0000       2.446557        66.5742 
 156   0.0000       2.446596        66.5753 
 157   0.0000       2.452365        66.7322 
 158   0.0000       2.452886        66.7464 
 159   0.0000       2.491579        67.7993 
 160   0.0000       2.491581        67.7994 
 161   0.0000       2.621526        71.3354 
 162   0.0000       2.637381        71.7668 
 163   0.0000       2.723541        74.1113 
 164   0.0000       2.825773        76.8932 
 165   0.0000       2.825777        76.8933 
 166   0.0000       2.890850        78.6640 
 167   0.0000       2.890855        78.6642 
 168   0.0000       2.997200        81.5580 
 169   0.0000       3.139846        85.4395 
 170   0.0000       3.169798        86.2546 
 171   0.0000       3.170487        86.2733 
 172   0.0000       3.219446        87.6056 
 173   0.0000       3.219452        87.6058 
 174   0.0000       3.396132        92.4135 
 175   0.0000       3.397251        92.4439 
 176   0.0000       3.420743        93.0831 
 177   0.0000       3.447791        93.8192 
 178   0.0000       3.465085        94.2898 
 179   0.0000       3.472888        94.5021 
 180   0.0000       3.472922        94.5030 
 181   0.0000       3.534856        96.1883 
 182   0.0000       3.604997        98.0970 
 183   0.0000       3.624136        98.6178 
 184   0.0000       3.655858        99.4810 
 185   0.0000       3.656424        99.4964 
 186   0.0000       3.744721       101.8990 
 187   0.0000       3.773617       102.6853 
 188   0.0000       3.946816       107.3983 
 189   0.0000       4.092597       111.3652 
 190   0.0000       4.142803       112.7314 
 191   0.0000       4.158260       113.1520 
 192   0.0000       4.658461       126.7632 
 193   0.0000       4.669829       127.0725 
 194   0.0000       4.852236       132.0360 
 195   0.0000       5.010372       136.3392 
 196   0.0000       5.048532       137.3775 
 197   0.0000       5.048602       137.3795 
 198   0.0000       5.053552       137.5141 
 199   0.0000       5.054782       137.5476 
 200   0.0000       5.113452       139.1441 
 201   0.0000       5.113486       139.1450 
 202   0.0000       5.122712       139.3961 
 203   0.0000       5.122712       139.3961 
 204   0.0000       5.190306       141.2354 
 205   0.0000       5.211956       141.8245 
 206   0.0000       5.363501       145.9483 
 207   0.0000       5.509726       149.9273 
 208   0.0000       5.509735       149.9275 
 209   0.0000       5.641046       153.5007 
 210   0.0000       5.641046       153.5007 
 211   0.0000       5.643208       153.5595 
 212   0.0000       5.643215       153.5597 
 213   0.0000       5.705699       155.2600 
 214   0.0000       5.705743       155.2612 
 215   0.0000       5.728344       155.8762 
 216   0.0000       5.753134       156.5507 
 217   0.0000       5.772190       157.0693 
 218   0.0000       5.772196       157.0694 
 219   0.0000       5.924381       161.2106 
 220   0.0000       5.934785       161.4937 
 221   0.0000       6.171581       167.9373 
 222   0.0000       6.245495       169.9486 
 223   0.0000       6.245755       169.9556 
 224   0.0000       6.665380       181.3742 
 225   0.0000       6.690532       182.0586 
 226   0.0000       6.708765       182.5548 
 227   0.0000       6.888307       187.4404 
 228   0.0000       8.144458       221.6220 
 229   0.0000       8.144548       221.6244 
 230   0.0000       8.170504       222.3307 
 231   0.0000       8.170512       222.3309 
 232   0.0000       8.297140       225.7767 
 233   0.0000       8.297422       225.7843 
 234   0.0000       8.683284       236.2842 
 235   0.0000       8.708076       236.9588 
 236   0.0000       8.878651       241.6004 
 237   0.0000       9.054462       246.3844 
 238   0.0000       9.054582       246.3877 
 239   0.0000       9.076004       246.9706 
 240   0.0000       9.076004       246.9706 
 241   0.0000       9.293063       252.8771 
 242   0.0000       9.293109       252.8784 
 243   0.0000       9.811994       266.9979 
 244   0.0000       9.824551       267.3396 
 245   0.0000       9.871624       268.6206 
 246   0.0000      11.574408       314.9556 
 247   0.0000      11.574434       314.9564 
 248   0.0000      11.656673       317.1942 
 249   0.0000      11.656987       317.2027 
 250   0.0000      11.697960       318.3177 
 251   0.0000      11.715331       318.7904 
 252   0.0000      12.082812       328.7900 
 253   0.0000      12.798816       348.2735 
 254   0.0000      12.798817       348.2735 
 255   0.0000      12.834354       349.2405 
 256   0.0000      12.834439       349.2428 
 257   0.0000      12.954011       352.4966 
 258   0.0000      12.960238       352.6660 
 259   0.0000      13.140105       357.5604 
 260   0.0000      16.809417       457.4075 
 261   0.0000      16.809531       457.4106 
 262   0.0000      16.886326       459.5003 
 263   0.0000      16.901718       459.9191 
 264   0.0000      17.353106       472.2020 
 265   0.0000      17.546227       477.4571 
 266   0.0000      17.546261       477.4580 
 267   0.0000      17.696227       481.5388 
 268   0.0000      17.701846       481.6917 
 269   0.0000      18.139097       493.5899 
 270   0.0000      28.958868       788.0109 
 271   0.0000      38.572720      1049.6171 
 272   0.0000      62.316588      1695.7206 
 273   0.0000      62.316690      1695.7233 
 274   0.0000      62.365061      1697.0396 
 275   0.0000      62.375687      1697.3287 
 276   0.0000      62.638671      1704.4849 
 277   0.0000      65.737104      1788.7975 
 278   0.0000      65.737108      1788.7977 
 279   0.0000      65.827966      1791.2700 
 280   0.0000      65.831720      1791.3722 
 281   0.0000      66.093105      1798.4848 

                 SPIN DOWN ORBITALS
  NO   OCC          E(Eh)            E(eV) 
   0   1.0000    -100.704059     -2740.2968 
   1   1.0000     -88.090893     -2397.0751 
   2   1.0000      -9.225642      -251.0425 
   3   1.0000      -7.724593      -210.1969 
   4   1.0000      -7.048559      -191.8010 
   5   1.0000      -7.039307      -191.5493 
   6   1.0000      -7.036787      -191.4807 
   7   1.0000      -5.749059      -156.4398 
   8   1.0000      -5.740291      -156.2013 
   9   1.0000      -5.733563      -156.0182 
  10   1.0000      -0.822796       -22.3894 
  11   1.0000      -0.603361       -16.4183 
  12   1.0000      -0.393930       -10.7194 
  13   1.0000      -0.347460        -9.4549 
  14   1.0000      -0.346882        -9.4391 
  15   1.0000      -0.212798        -5.7905 
  16   0.0000      -0.203567        -5.5393 
  17   0.0000      -0.095656        -2.6029 
  18   0.0000      -0.008573        -0.2333 
  19   0.0000       0.017954         0.4885 
  20   0.0000       0.019478         0.5300 
  21   0.0000       0.019625         0.5340 
  22   0.0000       0.032362         0.8806 
  23   0.0000       0.045774         1.2456 
  24   0.0000       0.047345         1.2883 
  25   0.0000       0.072532         1.9737 
  26   0.0000       0.073695         2.0054 
  27   0.0000       0.085482         2.3261 
  28   0.0000       0.101921         2.7734 
  29   0.0000       0.104679         2.8484 
  30   0.0000       0.105208         2.8629 
  31   0.0000       0.111959         3.0466 
  32   0.0000       0.112963         3.0739 
  33   0.0000       0.136226         3.7069 
  34   0.0000       0.145755         3.9662 
  35   0.0000       0.147205         4.0056 
  36   0.0000       0.148181         4.0322 
  37   0.0000       0.159261         4.3337 
  38   0.0000       0.160483         4.3670 
  39   0.0000       0.199885         5.4392 
  40   0.0000       0.201532         5.4840 
  41   0.0000       0.220625         6.0035 
  42   0.0000       0.220801         6.0083 
  43   0.0000       0.221062         6.0154 
  44   0.0000       0.228090         6.2066 
  45   0.0000       0.230518         6.2727 
  46   0.0000       0.234435         6.3793 
  47   0.0000       0.236882         6.4459 
  48   0.0000       0.259302         7.0560 
  49   0.0000       0.274429         7.4676 
  50   0.0000       0.275503         7.4968 
  51   0.0000       0.300127         8.1669 
  52   0.0000       0.330452         8.9920 
  53   0.0000       0.331466         9.0196 
  54   0.0000       0.333084         9.0637 
  55   0.0000       0.335356         9.1255 
  56   0.0000       0.338319         9.2061 
  57   0.0000       0.338448         9.2096 
  58   0.0000       0.338456         9.2099 
  59   0.0000       0.400836        10.9073 
  60   0.0000       0.403138        10.9699 
  61   0.0000       0.407657        11.0929 
  62   0.0000       0.407777        11.0962 
  63   0.0000       0.413983        11.2650 
  64   0.0000       0.432247        11.7620 
  65   0.0000       0.435469        11.8497 
  66   0.0000       0.443212        12.0604 
  67   0.0000       0.455045        12.3824 
  68   0.0000       0.456170        12.4130 
  69   0.0000       0.460664        12.5353 
  70   0.0000       0.461003        12.5445 
  71   0.0000       0.486116        13.2279 
  72   0.0000       0.487769        13.2729 
  73   0.0000       0.488613        13.2958 
  74   0.0000       0.508662        13.8414 
  75   0.0000       0.511181        13.9100 
  76   0.0000       0.513959        13.9855 
  77   0.0000       0.514503        14.0003 
  78   0.0000       0.559153        15.2153 
  79   0.0000       0.561095        15.2682 
  80   0.0000       0.561176        15.2704 
  81   0.0000       0.593151        16.1405 
  82   0.0000       0.596922        16.2431 
  83   0.0000       0.597133        16.2488 
  84   0.0000       0.609240        16.5783 
  85   0.0000       0.611822        16.6485 
  86   0.0000       0.627324        17.0703 
  87   0.0000       0.627374        17.0717 
  88   0.0000       0.645489        17.5646 
  89   0.0000       0.652602        17.7582 
  90   0.0000       0.653537        17.7836 
  91   0.0000       0.687045        18.6955 
  92   0.0000       0.687334        18.7033 
  93   0.0000       0.700946        19.0737 
  94   0.0000       0.702179        19.1073 
  95   0.0000       0.708658        19.2836 
  96   0.0000       0.708755        19.2862 
  97   0.0000       0.786511        21.4020 
  98   0.0000       0.787915        21.4403 
  99   0.0000       0.789747        21.4901 
 100   0.0000       0.802936        21.8490 
 101   0.0000       0.803932        21.8761 
 102   0.0000       0.825978        22.4760 
 103   0.0000       0.828537        22.5456 
 104   0.0000       0.833665        22.6852 
 105   0.0000       0.834939        22.7198 
 106   0.0000       0.834952        22.7202 
 107   0.0000       0.869538        23.6613 
 108   0.0000       0.869943        23.6724 
 109   0.0000       0.870484        23.6871 
 110   0.0000       0.871596        23.7173 
 111   0.0000       0.904664        24.6172 
 112   0.0000       0.905573        24.6419 
 113   0.0000       0.938218        25.5302 
 114   0.0000       0.938244        25.5309 
 115   0.0000       0.960098        26.1256 
 116   0.0000       0.989685        26.9307 
 117   0.0000       0.990354        26.9489 
 118   0.0000       0.997664        27.1478 
 119   0.0000       1.016023        27.6474 
 120   0.0000       1.018085        27.7035 
 121   0.0000       1.032968        28.1085 
 122   0.0000       1.052620        28.6432 
 123   0.0000       1.052719        28.6459 
 124   0.0000       1.114178        30.3183 
 125   0.0000       1.279496        34.8168 
 126   0.0000       1.282080        34.8872 
 127   0.0000       1.301011        35.4023 
 128   0.0000       1.301098        35.4047 
 129   0.0000       1.325684        36.0737 
 130   0.0000       1.326211        36.0880 
 131   0.0000       1.336531        36.3689 
 132   0.0000       1.337059        36.3832 
 133   0.0000       1.337382        36.3920 
 134   0.0000       1.468056        39.9478 
 135   0.0000       1.473699        40.1014 
 136   0.0000       1.498435        40.7745 
 137   0.0000       1.598996        43.5109 
 138   0.0000       1.601594        43.5816 
 139   0.0000       1.645783        44.7840 
 140   0.0000       1.646101        44.7927 
 141   0.0000       1.749555        47.6078 
 142   0.0000       1.830793        49.8184 
 143   0.0000       1.839911        50.0665 
 144   0.0000       1.842303        50.1316 
 145   0.0000       1.902284        51.7638 
 146   0.0000       2.063842        56.1600 
 147   0.0000       2.065425        56.2031 
 148   0.0000       2.185800        59.4786 
 149   0.0000       2.186522        59.4983 
 150   0.0000       2.198525        59.8249 
 151   0.0000       2.200706        59.8843 
 152   0.0000       2.283258        62.1306 
 153   0.0000       2.327365        63.3308 
 154   0.0000       2.328175        63.3529 
 155   0.0000       2.468808        67.1797 
 156   0.0000       2.471032        67.2402 
 157   0.0000       2.473078        67.2959 
 158   0.0000       2.473722        67.3134 
 159   0.0000       2.535645        68.9984 
 160   0.0000       2.536041        69.0092 
 161   0.0000       2.638151        71.7877 
 162   0.0000       2.638447        71.7958 
 163   0.0000       2.736139        74.4541 
 164   0.0000       2.836011        77.1718 
 165   0.0000       2.836012        77.1718 
 166   0.0000       2.902886        78.9916 
 167   0.0000       2.903084        78.9969 
 168   0.0000       3.003984        81.7425 
 169   0.0000       3.160873        86.0117 
 170   0.0000       3.184430        86.6528 
 171   0.0000       3.186215        86.7013 
 172   0.0000       3.263395        88.8015 
 173   0.0000       3.264250        88.8248 
 174   0.0000       3.417865        93.0048 
 175   0.0000       3.420125        93.0663 
 176   0.0000       3.449888        93.8762 
 177   0.0000       3.456590        94.0586 
 178   0.0000       3.470439        94.4355 
 179   0.0000       3.485271        94.8391 
 180   0.0000       3.485311        94.8401 
 181   0.0000       3.548973        96.5725 
 182   0.0000       3.625127        98.6447 
 183   0.0000       3.627012        98.6960 
 184   0.0000       3.667538        99.7988 
 185   0.0000       3.668686        99.8300 
 186   0.0000       3.778630       102.8217 
 187   0.0000       3.779517       102.8459 
 188   0.0000       3.950812       107.5071 
 189   0.0000       4.097958       111.5111 
 190   0.0000       4.158698       113.1639 
 191   0.0000       4.159353       113.1818 
 192   0.0000       4.669107       127.0529 
 193   0.0000       4.671427       127.1160 
 194   0.0000       4.863130       132.3325 
 195   0.0000       5.017080       136.5217 
 196   0.0000       5.073218       138.0493 
 197   0.0000       5.075975       138.1243 
 198   0.0000       5.077606       138.1687 
 199   0.0000       5.078141       138.1832 
 200   0.0000       5.153696       140.2392 
 201   0.0000       5.153983       140.2470 
 202   0.0000       5.176121       140.8494 
 203   0.0000       5.176241       140.8527 
 204   0.0000       5.213803       141.8748 
 205   0.0000       5.215621       141.9243 
 206   0.0000       5.368681       146.0892 
 207   0.0000       5.529161       150.4561 
 208   0.0000       5.532494       150.5468 
 209   0.0000       5.652733       153.8187 
 210   0.0000       5.652745       153.8190 
 211   0.0000       5.653875       153.8498 
 212   0.0000       5.653875       153.8498 
 213   0.0000       5.712388       155.4420 
 214   0.0000       5.712874       155.4552 
 215   0.0000       5.756574       156.6443 
 216   0.0000       5.756821       156.6511 
 217   0.0000       5.783479       157.3765 
 218   0.0000       5.783657       157.3813 
 219   0.0000       5.932789       161.4394 
 220   0.0000       5.935188       161.5047 
 221   0.0000       6.189788       168.4327 
 222   0.0000       6.257952       170.2875 
 223   0.0000       6.259582       170.3319 
 224   0.0000       6.674972       181.6352 
 225   0.0000       6.710863       182.6119 
 226   0.0000       6.712780       182.6640 
 227   0.0000       6.894674       187.6136 
 228   0.0000       8.188941       222.8324 
 229   0.0000       8.189103       222.8368 
 230   0.0000       8.202842       223.2107 
 231   0.0000       8.203116       223.2181 
 232   0.0000       8.318464       226.3569 
 233   0.0000       8.320502       226.4124 
 234   0.0000       8.707995       236.9566 
 235   0.0000       8.712142       237.0694 
 236   0.0000       8.888988       241.8817 
 237   0.0000       9.067905       246.7502 
 238   0.0000       9.068023       246.7534 
 239   0.0000       9.085542       247.2302 
 240   0.0000       9.085557       247.2306 
 241   0.0000       9.300434       253.0777 
 242   0.0000       9.300793       253.0874 
 243   0.0000       9.824217       267.3305 
 244   0.0000       9.824919       267.3496 
 245   0.0000       9.874533       268.6997 
 246   0.0000      11.582795       315.1839 
 247   0.0000      11.583007       315.1896 
 248   0.0000      11.661877       317.3358 
 249   0.0000      11.662541       317.3539 
 250   0.0000      11.704850       318.5051 
 251   0.0000      11.714243       318.7608 
 252   0.0000      12.084808       328.8444 
 253   0.0000      12.801418       348.3443 
 254   0.0000      12.801420       348.3444 
 255   0.0000      12.835888       349.2823 
 256   0.0000      12.835900       349.2826 
 257   0.0000      12.956279       352.5583 
 258   0.0000      12.959822       352.6547 
 259   0.0000      13.140752       357.5780 
 260   0.0000      16.819504       457.6820 
 261   0.0000      16.819925       457.6934 
 262   0.0000      16.896777       459.7847 
 263   0.0000      16.902226       459.9329 
 264   0.0000      17.357504       472.3217 
 265   0.0000      17.550268       477.5671 
 266   0.0000      17.550360       477.5696 
 267   0.0000      17.700162       481.6459 
 268   0.0000      17.702018       481.6964 
 269   0.0000      18.140835       493.6372 
 270   0.0000      28.973230       788.4017 
 271   0.0000      38.576892      1049.7306 
 272   0.0000      62.329537      1696.0729 
 273   0.0000      62.329647      1696.0759 
 274   0.0000      62.377906      1697.3891 
 275   0.0000      62.378034      1697.3926 
 276   0.0000      62.644422      1704.6414 
 277   0.0000      65.741337      1788.9127 
 278   0.0000      65.741372      1788.9137 
 279   0.0000      65.832040      1791.3809 
 280   0.0000      65.832245      1791.3865 
 281   0.0000      66.094751      1798.5296 

                    ********************************
                    * MULLIKEN POPULATION ANALYSIS *
                    ********************************

--------------------------------------------
MULLIKEN ATOMIC CHARGES AND SPIN POPULATIONS
--------------------------------------------
   0 S :   -0.107541    0.795879
   1 Cl:    0.107541    0.204121
Sum of atomic charges         :    0.0000000
Sum of atomic spin populations:    1.0000000

-----------------------------------------------------
MULLIKEN REDUCED ORBITAL CHARGES AND SPIN POPULATIONS
-----------------------------------------------------
CHARGE
  0 S s       :     6.027693  s :     6.027693
      pz      :     2.857139  p :     9.931815
      px      :     3.144130
      py      :     3.930547
      dz2     :     0.042267  d :     0.128663
      dxz     :     0.041667
      dyz     :     0.043775
      dx2y2   :     0.000954
      dxy     :     0.000000
      f0      :     0.006205  f :     0.018520
      f+1     :     0.007336
      f-1     :     0.004586
      f+2     :     0.000048
      f-2     :     0.000000
      f+3     :     0.000168
      f-3     :     0.000176
      g0      :     0.001277  g :     0.001091
      g+1     :     0.000479
      g-1     :    -0.000675
      g+2     :     0.000001
      g-2     :     0.000000
      g+3     :     0.000003
      g-3     :     0.000004
      g+4     :     0.000001
      g-4     :     0.000000
      h0      :     0.000168  h :    -0.000241
      h+1     :    -0.000020
      h-1     :    -0.000391
      h+2     :    -0.000000
      h-2     :    -0.000000
      h+3     :     0.000001
      h-3     :     0.000001
      h+4     :     0.000000
      h-4     :     0.000000
      h+5     :     0.000000
      h-5     :     0.000000
  1 Cls       :     5.890313  s :     5.890313
      pz      :     3.154079  p :    10.864118
      px      :     3.762268
      py      :     3.947771
      dz2     :     0.018874  d :     0.124342
      dxz     :     0.037931
      dyz     :     0.067465
      dx2y2   :     0.000071
      dxy     :     0.000000
      f0      :     0.001332  f :     0.014491
      f+1     :     0.005807
      f-1     :     0.007285
      f+2     :     0.000006
      f-2     :     0.000000
      f+3     :     0.000028
      f-3     :     0.000033
      g0      :    -0.000314  g :    -0.000401
      g+1     :     0.000211
      g-1     :    -0.000326
      g+2     :    -0.000006
      g-2     :    -0.000000
      g+3     :     0.000015
      g-3     :     0.000020
      g+4     :     0.000000
      g-4     :     0.000000
      h0      :    -0.000105  h :    -0.000404
      h+1     :    -0.000029
      h-1     :    -0.000278
      h+2     :    -0.000003
      h-2     :    -0.000000
      h+3     :     0.000004
      h-3     :     0.000006
      h+4     :     0.000000
      h-4     :     0.000000
      h+5     :    -0.000000
      h-5     :    -0.000000

SPIN
  0 S s       :     0.003574  s :     0.003574
      pz      :     0.007955  p :     0.792734
      px      :     0.786120
      py      :    -0.001341
      dz2     :     0.000855  d :     0.005027
      dxz     :     0.003700
      dyz     :    -0.000325
      dx2y2   :     0.000796
      dxy     :     0.000000
      f0      :    -0.000643  f :    -0.003181
      f+1     :    -0.002562
      f-1     :    -0.000345
      f+2     :     0.000042
      f-2     :     0.000000
      f+3     :     0.000160
      f-3     :     0.000167
      g0      :    -0.000022  g :    -0.001870
      g+1     :    -0.001579
      g-1     :    -0.000273
      g+2     :    -0.000001
      g-2     :    -0.000000
      g+3     :     0.000003
      g-3     :     0.000003
      g+4     :    -0.000001
      g-4     :    -0.000000
      h0      :     0.000010  h :    -0.000404
      h+1     :    -0.000375
      h-1     :    -0.000040
      h+2     :    -0.000001
      h-2     :    -0.000000
      h+3     :     0.000000
      h-3     :     0.000001
      h+4     :    -0.000000
      h-4     :    -0.000000
      h+5     :    -0.000000
      h-5     :    -0.000000
  1 Cls       :     0.003267  s :     0.003267
      pz      :    -0.016444  p :     0.175678
      px      :     0.189637
      py      :     0.002485
      dz2     :     0.000372  d :     0.020623
      dxz     :     0.021219
      dyz     :    -0.001032
      dx2y2   :     0.000063
      dxy     :     0.000000
      f0      :     0.000133  f :     0.003471
      f+1     :     0.003006
      f-1     :     0.000272
      f+2     :     0.000004
      f-2     :     0.000000
      f+3     :     0.000026
      f-3     :     0.000030
      g0      :     0.000044  g :     0.000808
      g+1     :     0.000488
      g-1     :     0.000251
      g+2     :    -0.000005
      g-2     :    -0.000000
      g+3     :     0.000013
      g-3     :     0.000017
      g+4     :    -0.000000
      g-4     :    -0.000000
      h0      :     0.000004  h :     0.000274
      h+1     :     0.000138
      h-1     :     0.000122
      h+2     :    -0.000002
      h-2     :    -0.000000
      h+3     :     0.000005
      h-3     :     0.000006
      h+4     :    -0.000000
      h-4     :    -0.000000
      h+5     :     0.000000
      h-5     :     0.000000


                     *******************************
                     * LOEWDIN POPULATION ANALYSIS *
                     *******************************

-------------------------------------------
LOEWDIN ATOMIC CHARGES AND SPIN POPULATIONS
-------------------------------------------
   0 S :    0.140207    0.659941
   1 Cl:   -0.140207    0.340059

----------------------------------------------------
LOEWDIN REDUCED ORBITAL CHARGES AND SPIN POPULATIONS
----------------------------------------------------
CHARGE
  0 S s       :     5.388364  s :     5.388364
      pz      :     2.950731  p :     9.406127
      px      :     2.937080
      py      :     3.518316
      dz2     :     0.221820  d :     0.505076
      dxz     :     0.129883
      dyz     :     0.152513
      dx2y2   :     0.000859
      dxy     :     0.000000
      f0      :     0.113216  f :     0.291997
      f+1     :     0.082229
      f-1     :     0.096131
      f+2     :     0.000051
      f-2     :     0.000000
      f+3     :     0.000178
      f-3     :     0.000192
      g0      :     0.057633  g :     0.175230
      g+1     :     0.052111
      g-1     :     0.065474
      g+2     :     0.000003
      g-2     :     0.000000
      g+3     :     0.000003
      g-3     :     0.000004
      g+4     :     0.000001
      g-4     :     0.000000
      h0      :     0.026890  h :     0.093000
      h+1     :     0.029853
      h-1     :     0.036253
      h+2     :     0.000002
      h-2     :     0.000000
      h+3     :     0.000001
      h-3     :     0.000001
      h+4     :     0.000000
      h-4     :     0.000000
      h+5     :     0.000000
      h-5     :     0.000000
  1 Cls       :     5.496822  s :     5.496822
      pz      :     3.325033  p :    10.509673
      px      :     3.515482
      py      :     3.669159
      dz2     :     0.227099  d :     0.549426
      dxz     :     0.111908
      dyz     :     0.210348
      dx2y2   :     0.000071
      dxy     :     0.000000
      f0      :     0.114234  f :     0.315267
      f+1     :     0.071208
      f-1     :     0.129761
      f+2     :     0.000025
      f-2     :     0.000000
      f+3     :     0.000019
      f-3     :     0.000021
      g0      :     0.053998  g :     0.181270
      g+1     :     0.045582
      g-1     :     0.081641
      g+2     :     0.000028
      g-2     :     0.000000
      g+3     :     0.000009
      g-3     :     0.000012
      g+4     :     0.000000
      g-4     :     0.000000
      h0      :     0.023089  h :     0.087748
      h+1     :     0.024444
      h-1     :     0.040163
      h+2     :     0.000032
      h-2     :     0.000000
      h+3     :     0.000009
      h-3     :     0.000011
      h+4     :     0.000000
      h-4     :     0.000000
      h+5     :     0.000000
      h-5     :     0.000000

SPIN
  0 S s       :     0.002105  s :     0.002105
      pz      :     0.004221  p :     0.605844
      px      :     0.599374
      py      :     0.002249
      dz2     :     0.001571  d :     0.021624
      dxz     :     0.020252
      dyz     :    -0.000922
      dx2y2   :     0.000723
      dxy     :     0.000000
      f0      :    -0.001207  f :     0.011971
      f+1     :     0.012929
      f-1     :    -0.000149
      f+2     :     0.000045
      f-2     :     0.000000
      f+3     :     0.000171
      f-3     :     0.000182
      g0      :    -0.000170  g :     0.012092
      g+1     :     0.012381
      g-1     :    -0.000123
      g+2     :     0.000000
      g-2     :     0.000000
      g+3     :     0.000002
      g-3     :     0.000002
      g+4     :    -0.000001
      g-4     :    -0.000000
      h0      :    -0.000100  h :     0.006305
      h+1     :     0.006343
      h-1     :     0.000060
      h+2     :     0.000001
      h-2     :     0.000000
      h+3     :     0.000000
      h-3     :     0.000000
      h+4     :    -0.000000
      h-4     :    -0.000000
      h+5     :    -0.000000
      h-5     :    -0.000000
  1 Cls       :     0.000378  s :     0.000378
      pz      :    -0.008657  p :     0.145981
      px      :     0.154081
      py      :     0.000557
      dz2     :     0.000626  d :     0.075855
      dxz     :     0.078041
      dyz     :    -0.002872
      dx2y2   :     0.000061
      dxy     :     0.000000
      f0      :     0.000459  f :     0.059110
      f+1     :     0.058467
      f-1     :     0.000130
      f+2     :     0.000017
      f-2     :     0.000000
      f+3     :     0.000018
      f-3     :     0.000019
      g0      :     0.000071  g :     0.039994
      g+1     :     0.039395
      g-1     :     0.000488
      g+2     :     0.000022
      g-2     :     0.000000
      g+3     :     0.000008
      g-3     :     0.000010
      g+4     :    -0.000000
      g-4     :    -0.000000
      h0      :    -0.000190  h :     0.018741
      h+1     :     0.018529
      h-1     :     0.000356
      h+2     :     0.000027
      h-2     :     0.000000
      h+3     :     0.000009
      h-3     :     0.000011
      h+4     :    -0.000000
      h-4     :    -0.000000
      h+5     :    -0.000000
      h-5     :    -0.000000


                      *****************************
                      * MAYER POPULATION ANALYSIS *
                      *****************************

  NA   - Mulliken gross atomic population
  ZA   - Total nuclear charge
  QA   - Mulliken gross atomic charge
  VA   - Mayer's total valence
  BVA  - Mayer's bonded valence
  FA   - Mayer's free valence

  ATOM       NA         ZA         QA         VA         BVA        FA
  0 S     16.1075    16.0000    -0.1075     2.1102     1.4705     0.6398
  1 Cl    16.8925    17.0000     0.1075     1.5242     1.4705     0.0537

  Mayer bond orders larger than 0.1
B(  0-S ,  1-Cl) :   1.4705 

-------
TIMINGS
-------

Total SCF time: 0 days 0 hours 10 min 13 sec 

Total time                  ....     613.590 sec
Sum of individual times     ....     612.698 sec  ( 99.9%)

Fock matrix formation       ....     610.548 sec  ( 99.5%)
  XC integration            ....       8.277 sec  (  1.4% of F)
    Basis function eval.    ....       0.789 sec  (  9.5% of XC)
    Density eval.           ....       1.799 sec  ( 21.7% of XC)
    XC-Functional eval.     ....       0.196 sec  (  2.4% of XC)
    XC-Potential eval.      ....       4.800 sec  ( 58.0% of XC)
Diagonalization             ....       0.739 sec  (  0.1%)
Density matrix formation    ....       0.016 sec  (  0.0%)
Population analysis         ....       0.067 sec  (  0.0%)
Initial guess               ....       0.419 sec  (  0.1%)
Orbital Transformation      ....       0.000 sec  (  0.0%)
Orbital Orthonormalization  ....       0.000 sec  (  0.0%)
DIIS solution               ....       0.604 sec  (  0.1%)
Grid generation             ....       0.306 sec  (  0.0%)

-------------------------   --------------------
FINAL SINGLE POINT ENERGY      -858.050698951059
-------------------------   --------------------


                            ***************************************
                            *     ORCA property calculations      *
                            ***************************************

                                    ---------------------
                                    Active property flags
                                    ---------------------
   (+) Dipole Moment
   (+) Polarizability


------------------------------------------------------------------------------
                       ORCA ELECTRIC PROPERTIES CALCULATION
------------------------------------------------------------------------------

Dipole Moment Calculation                       ... on
Quadrupole Moment Calculation                   ... off
Polarizability Calculation                      ... Analytic (CP-SCF)
GBWName                                         ... scl_pbe.gbw
Electron density file                           ... scl_pbe.scfp.tmp
The origin for moment calculation is the CENTER OF MASS  = ( 0.000000,  0.000000  1.960187)

-------------
DIPOLE MOMENT
-------------
                                X             Y             Z
Electronic contribution:      0.00000      -0.00000       1.29957
Nuclear contribution   :      0.00000       0.00000      -1.22898
                        -----------------------------------------
Total Dipole Moment    :      0.00000      -0.00000       0.07059
                        -----------------------------------------
Magnitude (a.u.)       :      0.07059
Magnitude (Debye)      :      0.17944



--------------------
Rotational spectrum 
--------------------
 
Rotational constants in cm-1:     0.000000     0.256627     0.256627 
Rotational constants in MHz :     0.000000  7693.471946  7693.471946 

 Dipole components along the rotational axes: 
x,y,z [a.u.] :     0.070595    -0.000000     0.000000 
x,y,z [Debye]:     0.179437    -0.000000     0.000000 

 
Transforming and storing MO dipole integrals   ... done

                ... starting polarizability calculation

Opening the Dipole integral file               ... (scl_pbe.dmo.tmp) done
Reading Dipole-MO integrals                    ... done
Solving CP-SCF equations                       ... 

           ************************************************************
           *        Program running with 4 parallel MPI-processes     *
           *              working on a common directory               *
           ************************************************************

------------------------------------------------------------------------------
                           ORCA CP-SCF CALCULATION
------------------------------------------------------------------------------

Input orbitals are from        ... scl_pbe.gbw
Input Perturbation             ... scl_pbe.cpv.tmp
Wavefunction output            ... scl_pbe.cpu.tmp
Perturbation mode              ... Real perturbation (singlet)
Solver                         ... POPLE
Max. number of iterations      ... 200
Convergence tolerance          ... 1.000e-06
Integral handling              ... Direct
Number of perturbations        ... 3
Number of operators            ... 2
Orbital ranges used for CP-SCF:
 Operator 0:  Orbitals   0... 16  to  17...281
 Operator 1:  Orbitals   0... 15  to  16...281
DFT calculation                         ... on
Exchange functional (SCF)               ... PBE
Exchange functional (CP-SCF)            ... PBE
   PBE kappa parameter  XKappa (SCF)    ...  0.804000
   PBE kappa parameter  XKappa (CP-SCF) ...  0.804000
   PBE mue parameter   XMuePBE (SCF)    ...  0.219520
   PBE mue parameter   XMuePBE (CP-SCF) ...  0.219520
Correlation functional (SCF)            ... PBE
Correlation functional (CP-SCF)         ... PBE
   PBE beta parameter CBetaPBE (SCF)    ...  0.066725
   PBE beta parameter CBetaPBE (CP-SCF) ...  0.066725
 LDA part of GGA corr.  LDAOpt (SCF)    ... PW91-LDA
 LDA part of GGA corr.  LDAOpt (CP-SCF) ... PW91-LDA
Variables per vector in CP-SCF ... 8761
Number of vectors sought       ... 3
Recalculating density on grid  ... done
Calculating the xc-kernel      ... done
     CP-SCF ITERATION   0: 
     CP-SCF ITERATION   1:      0.886666112450
     CP-SCF ITERATION   2:      0.023085823143
     CP-SCF ITERATION   3:      0.005119451687
     CP-SCF ITERATION   4:      0.000318836809
     CP-SCF ITERATION   5:      0.000005756250
     CP-SCF ITERATION   6:      0.000000460704
done
Reading CP-SCF coefficients                    ... done
Doing the polarizability tensor   ... done
Cleaning up                                    ... done

-------------------------
THE POLARIZABILITY TENSOR
-------------------------

The raw cartesian tensor (atomic units):
   29.01723      0.00000     -0.00000  
    0.00000     31.88217     -0.00000  
   -0.00000     -0.00000     51.16636  
diagonalized tensor: 
   29.01723     31.88217     51.16636  

    1.00000      0.00000     -0.00000  
   -0.00000      1.00000     -0.00000  
    0.00000      0.00000      1.00000  

Isotropic polarizability :  37.35526


Timings for individual modules:

Sum of individual times         ...     1014.680 sec (=  16.911 min)
GTO integral calculation        ...        2.964 sec (=   0.049 min)   0.3 %
SCF iterations                  ...      614.165 sec (=  10.236 min)  60.5 %
Solution of CP-SCF eqns.        ...      397.550 sec (=   6.626 min)  39.2 %
                             ****ORCA TERMINATED NORMALLY****
TOTAL RUN TIME: 0 days 0 hours 17 minutes 1 seconds 274 msec
