
                                 *****************
                                 * O   R   C   A *
                                 *****************

           --- An Ab Initio, DFT and Semiempirical electronic structure package ---

                  #######################################################
                  #                        -***-                        #
                  #          Department of theory and spectroscopy      #
                  #               Directorship: Frank Neese             #
                  #        Max Planck Institute fuer Kohlenforschung    #
                  #                Kaiser Wilhelm Platz 1               #
                  #                 D-45470 Muelheim/Ruhr               #
                  #                      Germany                        #
                  #                                                     #
                  #                  All rights reserved                #
                  #                        -***-                        #
                  #######################################################


                         Program Version 4.1.2  - RELEASE  -


 With contributions from (in alphabetic order):
   Daniel Aravena         : Magnetic Properties
   Michael Atanasov       : Ab Initio Ligand Field Theory
   Alexander A. Auer      : GIAO ZORA
   Ute Becker             : Parallelization
   Giovanni Bistoni       : ED, Open-shell LED
   Martin Brehm           : Molecular dynamics
   Dmytro Bykov           : SCF Hessian
   Vijay G. Chilkuri      : MRCI spin determinant printing
   Dipayan Datta          : RHF DLPNO-CCSD density
   Achintya Kumar Dutta   : EOM-CC, STEOM-CC
   Dmitry Ganyushin       : Spin-Orbit,Spin-Spin,Magnetic field MRCI
   Miquel Garcia          : C-PCM Hessian
   Yang Guo               : DLPNO-NEVPT2, CIM, IAO-localization
   Andreas Hansen         : Spin unrestricted coupled pair/coupled cluster methods
   Benjamin Helmich-Paris : CASSCF linear response (MC-RPA)
   Lee Huntington         : MR-EOM, pCC
   Robert Izsak           : Overlap fitted RIJCOSX, COSX-SCS-MP3, EOM
   Christian Kollmar      : KDIIS, OOCD, Brueckner-CCSD(T), CCSD density
   Simone Kossmann        : Meta GGA functionals, TD-DFT gradient, OOMP2, MP2 Hessian
   Martin Krupicka        : AUTO-CI
   Lucas Lang             : DCDCAS
   Dagmar Lenk            : GEPOL surface, SMD
   Dimitrios Liakos       : Extrapolation schemes; parallel MDCI
   Dimitrios Manganas     : ROCIS; embedding schemes
   Dimitrios Pantazis     : SARC Basis sets
   Taras Petrenko         : DFT Hessian,TD-DFT gradient, ASA, ECA, R-Raman, ABS, FL, XAS/XES, NRVS
   Peter Pinski           : DLPNO-MP2, DLPNO-MP2 Gradient
   Christoph Reimann      : Effective Core Potentials
   Marius Retegan         : Local ZFS, SOC
   Christoph Riplinger    : Optimizer, TS searches, QM/MM, DLPNO-CCSD(T), (RO)-DLPNO pert. Triples
   Tobias Risthaus        : Range-separated hybrids, TD-DFT gradient, RPA, STAB
   Michael Roemelt        : Restricted open shell CIS
   Masaaki Saitow         : Open-shell DLPNO
   Barbara Sandhoefer     : DKH picture change effects
   Avijit Sen             : IP-ROCIS
   Kantharuban Sivalingam : CASSCF convergence, NEVPT2, FIC-MRCI
   Bernardo de Souza      : ESD, SOC TD-DFT
   Georgi Stoychev        : AutoAux, RI-MP2 NMR
   Willem Van den Heuvel  : Paramagnetic NMR
   Boris Wezisla          : Elementary symmetry handling
   Frank Wennmohs         : Technical directorship


 We gratefully acknowledge several colleagues who have allowed us to
 interface, adapt or use parts of their codes:
   Stefan Grimme, W. Hujo, H. Kruse,             : VdW corrections, initial TS optimization,
                  C. Bannwarth                     DFT functionals, gCP, sTDA/sTD-DF
   Ed Valeev                                     : LibInt (2-el integral package), F12 methods
   Garnet Chan, S. Sharma, J. Yang, R. Olivares  : DMRG
   Ulf Ekstrom                                   : XCFun DFT Library
   Mihaly Kallay                                 : mrcc  (arbitrary order and MRCC methods)
   Andreas Klamt, Michael Diedenhofen            : otool_cosmo (COSMO solvation model)
   Jiri Pittner, Ondrej Demel                    : Mk-CCSD
   Frank Weinhold                                : gennbo (NPA and NBO analysis)
   Christopher J. Cramer and Donald G. Truhlar   : smd solvation model
   Lars Goerigk                                  : TD-DFT with DH, B97 family of functionals
   V. Asgeirsson, H. Jonsson                     : NEB implementation
   FAccTs GmbH                                   : IRC, NEB, NEB-TS, Multilevel


 Your calculation uses the libint2 library for the computation of 2-el integrals
 For citations please refer to: http://libint.valeyev.net

 This ORCA versions uses:
   CBLAS   interface :  Fast vector & matrix operations
   LAPACKE interface :  Fast linear algebra routines
   SCALAPACK package :  Parallel linear algebra routines


----- Orbital basis set information -----
Your calculation utilizes the basis: aug-pc-4
   H, C-F              : F. Jensen, J. Chem. Phys. 115, 9113 (2001).
                         F. Jensen, J. Chem. Phys. 116, 7372 (2002).
                         F. Jensen, J. Chem. Phys. 117, 9234 (2002).
   Si-Cl               : F. Jensen, T. Helgaker, J. Chem. Phys. 121, 3463 (2004).
   He-B, Ne-Mg, Al, Ar : F. Jensen, J. Phys. Chem. A 111, 11198 (2007).
   K, Ca, Ga-Kr        : F. Jensen, J. Chem. Phys. 136, 094110 (2012).
   Sc-Zn               : F. Jensen, J. Chem. Phys. 138, 014107 (2013).

================================================================================
                                        WARNINGS
                       Please study these warnings very carefully!
================================================================================


INFO   : the flag for use of LIBINT has been found!

================================================================================
                                       INPUT FILE
================================================================================
NAME = sf2_pbe.inp
|  1> !uks pbe nori aug-pc-4 grid5 nofinalgrid verytightscf
|  2> 
|  3> %maxcore 1500
|  4> 
|  5> %pal nprocs 4 end
|  6> 
|  7> %scf
|  8> 	maxiter 200
|  9> end
| 10> %elprop
| 11> 	dipole true
| 12> 	 polar 1
| 13> 	 maxiter 200
| 14> end
| 15> 
| 16> * xyz 0 1
| 17> S 0.0000 0.0000 0.5511
| 18> F 0.0000 1.1985 -0.4899
| 19> F 0.0000 -1.1985 -0.4899
| 20> *
| 21> 
| 22>                          ****END OF INPUT****
================================================================================

                       ****************************
                       * Single Point Calculation *
                       ****************************

---------------------------------
CARTESIAN COORDINATES (ANGSTROEM)
---------------------------------
  S      0.000000    0.000000    0.551100
  F      0.000000    1.198500   -0.489900
  F      0.000000   -1.198500   -0.489900

----------------------------
CARTESIAN COORDINATES (A.U.)
----------------------------
  NO LB      ZA    FRAG     MASS         X           Y           Z
   0 S    16.0000    0    32.060    0.000000    0.000000    1.041428
   1 F     9.0000    0    18.998    0.000000    2.264837   -0.925777
   2 F     9.0000    0    18.998    0.000000   -2.264837   -0.925777

--------------------------------
INTERNAL COORDINATES (ANGSTROEM)
--------------------------------
 S      0   0   0     0.000000000000     0.00000000     0.00000000
 F      1   0   0     1.587477007708     0.00000000     0.00000000
 F      1   2   0     1.587477007708    98.04577039     0.00000000

---------------------------
INTERNAL COORDINATES (A.U.)
---------------------------
 S      0   0   0     0.000000000000     0.00000000     0.00000000
 F      1   0   0     2.999896788464     0.00000000     0.00000000
 F      1   2   0     2.999896788464    98.04577039     0.00000000

---------------------
BASIS SET INFORMATION
---------------------
There are 2 groups of distinct atoms

 Group   1 Type S   : 44s27p7d4f3g2h contracted to 8s7p7d4f3g2h pattern {15121211111/111111111/1111111/1111/111/11}
 Group   2 Type F   : 27s12p7d4f3g2h contracted to 9s8p7d4f3g2h pattern {1191111111/51111111/1111111/1111/111/11}

Atom   0S    basis set group =>   1
Atom   1F    basis set group =>   2
Atom   2F    basis set group =>   2


           ************************************************************
           *        Program running with 4 parallel MPI-processes     *
           *              working on a common directory               *
           ************************************************************
------------------------------------------------------------------------------
                           ORCA GTO INTEGRAL CALCULATION
------------------------------------------------------------------------------

                         BASIS SET STATISTICS AND STARTUP INFO

 # of primitive gaussian shells          ...  197
 # of primitive gaussian functions       ...  587
 # of contracted shells                  ...   97
 # of contracted basis functions         ...  431
 Highest angular momentum                ...    5
 Maximum contraction depth               ...   15
 Integral package used                   ... LIBINT
 Integral threshhold            Thresh   ...  1.000e-12
 Primitive cut-off              TCut     ...  1.000e-14


------------------------------ INTEGRAL EVALUATION ----------------------------


 * One electron integrals 
 Pre-screening matrix                    ... done
 Shell pair data                         ... done (   0.002 sec)



           ************************************************************
           *        Program running with 4 parallel MPI-processes     *
           *              working on a common directory               *
           ************************************************************
-------------------------------------------------------------------------------
                                 ORCA SCF
-------------------------------------------------------------------------------

------------
SCF SETTINGS
------------
Hamiltonian:
 Density Functional     Method          .... DFT(GTOs)
 Exchange Functional    Exchange        .... PBE
   PBE kappa parameter   XKappa         ....  0.804000
   PBE mue parameter    XMuePBE         ....  0.219520
 Correlation Functional Correlation     .... PBE
   PBE beta parameter  CBetaPBE         ....  0.066725
 LDA part of GGA corr.  LDAOpt          .... PW91-LDA
 Gradients option       PostSCFGGA      .... off
   Density functional embedding theory  .... OFF
   NL short-range parameter             ....  6.400000


General Settings:
 Integral files         IntName         .... sf2_pbe
 Hartree-Fock type      HFTyp           .... UHF
 Total Charge           Charge          ....    0
 Multiplicity           Mult            ....    1
 Number of Electrons    NEL             ....   34
 Basis Dimension        Dim             ....  431
 Nuclear Repulsion      ENuc            ....    113.8853862671 Eh

Convergence Acceleration:
 DIIS                   CNVDIIS         .... on
   Start iteration      DIISMaxIt       ....    12
   Startup error        DIISStart       ....  0.200000
   # of expansion vecs  DIISMaxEq       ....     5
   Bias factor          DIISBfac        ....   1.050
   Max. coefficient     DIISMaxC        ....  10.000
 Newton-Raphson         CNVNR           .... off
 SOSCF                  CNVSOSCF        .... off
 Level Shifting         CNVShift        .... on
   Level shift para.    LevelShift      ....    0.2500
   Turn off err/grad.   ShiftErr        ....    0.0010
 Zerner damping         CNVZerner       .... off
 Static damping         CNVDamp         .... on
   Fraction old density DampFac         ....    0.7000
   Max. Damping (<1)    DampMax         ....    0.9800
   Min. Damping (>=0)   DampMin         ....    0.0000
   Turn off err/grad.   DampErr         ....    0.1000
 Fernandez-Rico         CNVRico         .... off

SCF Procedure:
 Maximum # iterations   MaxIter         ....   200
 SCF integral mode      SCFMode         .... Direct
   Integral package                     .... LIBINT
 Reset frequency        DirectResetFreq ....    20
 Integral Threshold     Thresh          ....  1.000e-12 Eh
 Primitive CutOff       TCut            ....  1.000e-14 Eh

Convergence Tolerance:
 Convergence Check Mode ConvCheckMode   .... Total+1el-Energy
 Convergence forced     ConvForced      .... 0
 Energy Change          TolE            ....  1.000e-09 Eh
 1-El. energy change                    ....  1.000e-06 Eh
 DIIS Error             TolErr          ....  1.000e-08


Diagonalization of the overlap matrix:
Smallest eigenvalue                        ... 6.937e-06
Time for diagonalization                   ...    0.094 sec
Threshold for overlap eigenvalues          ... 1.000e-08
Number of eigenvalues below threshold      ... 0
Time for construction of square roots      ...    0.041 sec
Total time needed                          ...    0.136 sec

-------------------
DFT GRID GENERATION
-------------------

General Integration Accuracy     IntAcc      ...  5.010
Radial Grid Type                 RadialGrid  ... Gauss-Chebyshev
Angular Grid (max. acc.)         AngularGrid ... Lebedev-434
Angular grid pruning method      GridPruning ... 3 (G Style)
Weight generation scheme         WeightScheme... Becke
Basis function cutoff            BFCut       ...    1.0000e-12
Integration weight cutoff        WCut        ...    1.0000e-14
Grids for H and He will be reduced by one unit

# of grid points (after initial pruning)     ...  33376 (   0.0 sec)
# of grid points (after weights+screening)   ...  33128 (   0.0 sec)
nearest neighbour list constructed           ...    0.0 sec
Grid point re-assignment to atoms done       ...    0.0 sec
Grid point division into batches done        ...    0.3 sec
Reduced shell lists constructed in    0.4 sec

Total number of grid points                  ...    33128
Total number of batches                      ...      519
Average number of points per batch           ...       63
Average number of grid points per atom       ...    11043
Average number of shells per batch           ...    65.97 (68.01%)
Average number of basis functions per batch  ...   308.66 (71.61%)
Average number of large shells per batch     ...    58.10 (88.07%)
Average number of large basis fcns per batch ...   273.52 (88.62%)
Maximum spatial batch extension              ...  17.38, 14.96, 13.66 au
Average spatial batch extension              ...   0.81,  0.79,  0.75 au

Time for grid setup =    0.432 sec

------------------------------
INITIAL GUESS: MODEL POTENTIAL
------------------------------
Loading Hartree-Fock densities                     ... done
Calculating cut-offs                               ... done
Setting up the integral package                    ... done
Initializing the effective Hamiltonian             ... done
Starting the Coulomb interaction                   ... done (   0.0 sec)
Reading the grid                                   ... done
Mapping shells                                     ... done
Starting the XC term evaluation                    ... done (   0.6 sec)
  promolecular density results
     # of electrons  =     34.000001880
     EX              =    -44.882922425
     EC              =     -1.249661753
     EX+EC           =    -46.132584179
Transforming the Hamiltonian                       ... done (   0.0 sec)
Diagonalizing the Hamiltonian                      ... done (   0.0 sec)
Back transforming the eigenvectors                 ... done (   0.0 sec)
Now organizing SCF variables                       ... done
                      ------------------
                      INITIAL GUESS DONE (   1.4 sec)
                      ------------------
--------------
SCF ITERATIONS
--------------
ITER       Energy         Delta-E        Max-DP      RMS-DP      [F,P]     Damp
               ***  Starting incremental Fock matrix formation  ***
  0   -597.5727145069   0.000000000000 0.01488982  0.00010771  0.1369098 0.7000
  1   -597.5930253041  -0.020310797220 0.00524438  0.00005950  0.0331220 0.7000
                               ***Turning on DIIS***
  2   -597.5977928348  -0.004767530715 0.01439228  0.00010501  0.0193220 0.0000
  3   -597.6111708951  -0.013378060263 0.00404744  0.00003761  0.0118367 0.0000
  4   -597.6114182903  -0.000247395188 0.00218934  0.00001405  0.0167340 0.0000
  5   -597.6118417242  -0.000423433860 0.00116687  0.00000733  0.0032006 0.0000
  6   -597.6118832469  -0.000041522706 0.00024058  0.00000216  0.0008471 0.0000
  7   -597.6118856553  -0.000002408437 0.00008760  0.00000049  0.0000958 0.0000
  8   -597.6118856700  -0.000000014740 0.00002607  0.00000014  0.0000362 0.0000
  9   -597.6118856738  -0.000000003725 0.00000211  0.00000001  0.0000029 0.0000
 10   -597.6118856738  -0.000000000033 0.00000382  0.00000002  0.0000008 0.0000
 11   -597.6118856738   0.000000000024 0.00000350  0.00000002  0.0000003 0.0000
                 **** Energy Check signals convergence ****

               *****************************************************
               *                     SUCCESS                       *
               *           SCF CONVERGED AFTER  12 CYCLES          *
               *****************************************************


----------------
TOTAL SCF ENERGY
----------------

Total Energy       :         -597.61188567 Eh          -16261.84615 eV

Components:
Nuclear Repulsion  :          113.88538627 Eh            3098.97891 eV
Electronic Energy  :         -711.49727194 Eh          -19360.82505 eV
One Electron Energy:        -1054.48130656 Eh          -28693.89512 eV
Two Electron Energy:          342.98403462 Eh            9333.07007 eV

Virial components:
Potential Energy   :        -1194.41987094 Eh          -32501.81705 eV
Kinetic Energy     :          596.80798527 Eh           16239.97090 eV
Virial Ratio       :            2.00134700


DFT components:
N(Alpha)           :       17.000002556844 electrons
N(Beta)            :       17.000002556844 electrons
N(Total)           :       34.000005113689 electrons
E(X)               :      -44.994109041345 Eh       
E(C)               :       -1.243491565231 Eh       
E(XC)              :      -46.237600606576 Eh       
DFET-embed. en.    :        0.000000000000 Eh       

---------------
SCF CONVERGENCE
---------------

  Last Energy change         ...    8.5265e-12  Tolerance :   1.0000e-09
  Last MAX-Density change    ...    3.7258e-06  Tolerance :   1.0000e-08
  Last RMS-Density change    ...    3.2716e-08  Tolerance :   1.0000e-09
  Last DIIS Error            ...    2.2222e-08  Tolerance :   1.0000e-08

             **** THE GBW FILE WAS UPDATED (sf2_pbe.gbw) ****
             **** DENSITY FILE WAS UPDATED (sf2_pbe.scfp.tmp) ****
             **** ENERGY FILE WAS UPDATED (sf2_pbe.en.tmp) ****
----------------------
UHF SPIN CONTAMINATION
----------------------

Warning: in a DFT calculation there is little theoretical justification to 
         calculate <S**2> as in Hartree-Fock theory. We will do it anyways
         but you should keep in mind that the values have only limited relevance

Expectation value of <S**2>     :    -0.000000
Ideal value S*(S+1) for S=0.0   :     0.000000
Deviation                       :    -0.000000

----------------
ORBITAL ENERGIES
----------------
                 SPIN UP ORBITALS
  NO   OCC          E(Eh)            E(eV) 
   0   1.0000     -88.162804     -2399.0319 
   1   1.0000     -24.309406      -661.4926 
   2   1.0000     -24.309406      -661.4926 
   3   1.0000      -7.788686      -211.9409 
   4   1.0000      -5.814807      -158.2290 
   5   1.0000      -5.810268      -158.1054 
   6   1.0000      -5.793787      -157.6570 
   7   1.0000      -1.177717       -32.0473 
   8   1.0000      -1.136640       -30.9295 
   9   1.0000      -0.677477       -18.4351 
  10   1.0000      -0.524323       -14.2676 
  11   1.0000      -0.476642       -12.9701 
  12   1.0000      -0.455097       -12.3838 
  13   1.0000      -0.407255       -11.0820 
  14   1.0000      -0.398325       -10.8390 
  15   1.0000      -0.390872       -10.6362 
  16   1.0000      -0.211958        -5.7677 
  17   0.0000      -0.107398        -2.9225 
  18   0.0000      -0.069212        -1.8833 
  19   0.0000      -0.006110        -0.1663 
  20   0.0000       0.017457         0.4750 
  21   0.0000       0.021816         0.5936 
  22   0.0000       0.024798         0.6748 
  23   0.0000       0.054793         1.4910 
  24   0.0000       0.060064         1.6344 
  25   0.0000       0.061086         1.6622 
  26   0.0000       0.065070         1.7707 
  27   0.0000       0.065169         1.7733 
  28   0.0000       0.091523         2.4905 
  29   0.0000       0.098451         2.6790 
  30   0.0000       0.099889         2.7181 
  31   0.0000       0.115959         3.1554 
  32   0.0000       0.117395         3.1945 
  33   0.0000       0.128718         3.5026 
  34   0.0000       0.136865         3.7243 
  35   0.0000       0.141454         3.8492 
  36   0.0000       0.141608         3.8533 
  37   0.0000       0.155418         4.2291 
  38   0.0000       0.169575         4.6144 
  39   0.0000       0.196945         5.3591 
  40   0.0000       0.199102         5.4178 
  41   0.0000       0.220734         6.0065 
  42   0.0000       0.235291         6.4026 
  43   0.0000       0.236571         6.4374 
  44   0.0000       0.249149         6.7797 
  45   0.0000       0.252643         6.8748 
  46   0.0000       0.256466         6.9788 
  47   0.0000       0.258065         7.0223 
  48   0.0000       0.265579         7.2268 
  49   0.0000       0.275622         7.5001 
  50   0.0000       0.279194         7.5973 
  51   0.0000       0.280631         7.6364 
  52   0.0000       0.285610         7.7718 
  53   0.0000       0.291136         7.9222 
  54   0.0000       0.297048         8.0831 
  55   0.0000       0.314148         8.5484 
  56   0.0000       0.318293         8.6612 
  57   0.0000       0.336879         9.1669 
  58   0.0000       0.342959         9.3324 
  59   0.0000       0.350136         9.5277 
  60   0.0000       0.352804         9.6003 
  61   0.0000       0.360240         9.8026 
  62   0.0000       0.382771        10.4157 
  63   0.0000       0.389979        10.6119 
  64   0.0000       0.404067        10.9952 
  65   0.0000       0.414074        11.2675 
  66   0.0000       0.430055        11.7024 
  67   0.0000       0.441918        12.0252 
  68   0.0000       0.455263        12.3883 
  69   0.0000       0.459534        12.5046 
  70   0.0000       0.459869        12.5137 
  71   0.0000       0.463351        12.6084 
  72   0.0000       0.464310        12.6345 
  73   0.0000       0.477791        13.0014 
  74   0.0000       0.483584        13.1590 
  75   0.0000       0.507932        13.8215 
  76   0.0000       0.520327        14.1588 
  77   0.0000       0.526854        14.3364 
  78   0.0000       0.531752        14.4697 
  79   0.0000       0.562077        15.2949 
  80   0.0000       0.591051        16.0833 
  81   0.0000       0.591337        16.0911 
  82   0.0000       0.595803        16.2126 
  83   0.0000       0.604007        16.4359 
  84   0.0000       0.614508        16.7216 
  85   0.0000       0.614594        16.7239 
  86   0.0000       0.619454        16.8562 
  87   0.0000       0.625628        17.0242 
  88   0.0000       0.629130        17.1195 
  89   0.0000       0.646012        17.5789 
  90   0.0000       0.666867        18.1464 
  91   0.0000       0.668623        18.1942 
  92   0.0000       0.679607        18.4931 
  93   0.0000       0.685868        18.6634 
  94   0.0000       0.690460        18.7884 
  95   0.0000       0.703342        19.1389 
  96   0.0000       0.704650        19.1745 
  97   0.0000       0.708105        19.2685 
  98   0.0000       0.715737        19.4762 
  99   0.0000       0.717761        19.5313 
 100   0.0000       0.718689        19.5565 
 101   0.0000       0.732485        19.9319 
 102   0.0000       0.736337        20.0367 
 103   0.0000       0.749824        20.4037 
 104   0.0000       0.781534        21.2666 
 105   0.0000       0.794174        21.6106 
 106   0.0000       0.805715        21.9246 
 107   0.0000       0.806339        21.9416 
 108   0.0000       0.825175        22.4542 
 109   0.0000       0.851795        23.1785 
 110   0.0000       0.853163        23.2157 
 111   0.0000       0.869031        23.6475 
 112   0.0000       0.870281        23.6816 
 113   0.0000       0.881521        23.9874 
 114   0.0000       0.897782        24.4299 
 115   0.0000       0.899109        24.4660 
 116   0.0000       0.904963        24.6253 
 117   0.0000       0.935000        25.4426 
 118   0.0000       0.960826        26.1454 
 119   0.0000       0.962466        26.1900 
 120   0.0000       0.963368        26.2146 
 121   0.0000       0.977952        26.6114 
 122   0.0000       0.982458        26.7340 
 123   0.0000       0.994500        27.0617 
 124   0.0000       1.003831        27.3156 
 125   0.0000       1.012982        27.5647 
 126   0.0000       1.021063        27.7845 
 127   0.0000       1.036939        28.2165 
 128   0.0000       1.053419        28.6650 
 129   0.0000       1.064773        28.9739 
 130   0.0000       1.083688        29.4887 
 131   0.0000       1.117081        30.3973 
 132   0.0000       1.138192        30.9718 
 133   0.0000       1.176733        32.0205 
 134   0.0000       1.186573        32.2883 
 135   0.0000       1.186857        32.2960 
 136   0.0000       1.196241        32.5514 
 137   0.0000       1.197081        32.5742 
 138   0.0000       1.215065        33.0636 
 139   0.0000       1.216898        33.1135 
 140   0.0000       1.228881        33.4396 
 141   0.0000       1.229209        33.4485 
 142   0.0000       1.231443        33.5093 
 143   0.0000       1.262431        34.3525 
 144   0.0000       1.267641        34.4943 
 145   0.0000       1.286000        34.9938 
 146   0.0000       1.287154        35.0252 
 147   0.0000       1.287730        35.0409 
 148   0.0000       1.304576        35.4993 
 149   0.0000       1.342829        36.5402 
 150   0.0000       1.359936        37.0057 
 151   0.0000       1.365216        37.1494 
 152   0.0000       1.376995        37.4699 
 153   0.0000       1.394193        37.9379 
 154   0.0000       1.404939        38.2303 
 155   0.0000       1.410324        38.3769 
 156   0.0000       1.456616        39.6365 
 157   0.0000       1.466063        39.8936 
 158   0.0000       1.466650        39.9096 
 159   0.0000       1.466687        39.9106 
 160   0.0000       1.472455        40.0675 
 161   0.0000       1.480492        40.2862 
 162   0.0000       1.508108        41.0377 
 163   0.0000       1.514284        41.2058 
 164   0.0000       1.539089        41.8807 
 165   0.0000       1.545987        42.0685 
 166   0.0000       1.589409        43.2500 
 167   0.0000       1.612789        43.8862 
 168   0.0000       1.621957        44.1357 
 169   0.0000       1.658147        45.1205 
 170   0.0000       1.676563        45.6216 
 171   0.0000       1.701277        46.2941 
 172   0.0000       1.723249        46.8920 
 173   0.0000       1.749769        47.6136 
 174   0.0000       1.768615        48.1265 
 175   0.0000       1.844627        50.1949 
 176   0.0000       1.850992        50.3680 
 177   0.0000       1.875824        51.0438 
 178   0.0000       1.902711        51.7754 
 179   0.0000       2.115149        57.5561 
 180   0.0000       2.155250        58.6473 
 181   0.0000       2.162958        58.8571 
 182   0.0000       2.164029        58.8862 
 183   0.0000       2.170299        59.0568 
 184   0.0000       2.211070        60.1663 
 185   0.0000       2.216650        60.3181 
 186   0.0000       2.217046        60.3289 
 187   0.0000       2.245649        61.1072 
 188   0.0000       2.256232        61.3952 
 189   0.0000       2.283261        62.1307 
 190   0.0000       2.298775        62.5528 
 191   0.0000       2.330681        63.4210 
 192   0.0000       2.336762        63.5865 
 193   0.0000       2.362286        64.2811 
 194   0.0000       2.417542        65.7847 
 195   0.0000       2.419046        65.8256 
 196   0.0000       2.430649        66.1413 
 197   0.0000       2.468159        67.1620 
 198   0.0000       2.469144        67.1888 
 199   0.0000       2.530521        68.8590 
 200   0.0000       2.535644        68.9984 
 201   0.0000       2.549611        69.3784 
 202   0.0000       2.601318        70.7855 
 203   0.0000       2.701645        73.5155 
 204   0.0000       2.705090        73.6092 
 205   0.0000       2.725369        74.1611 
 206   0.0000       2.748018        74.7774 
 207   0.0000       2.755862        74.9908 
 208   0.0000       2.767924        75.3190 
 209   0.0000       2.905821        79.0714 
 210   0.0000       2.935403        79.8764 
 211   0.0000       2.953397        80.3660 
 212   0.0000       2.958438        80.5032 
 213   0.0000       3.092547        84.1525 
 214   0.0000       3.133056        85.2548 
 215   0.0000       3.151001        85.7431 
 216   0.0000       3.227591        87.8272 
 217   0.0000       3.266332        88.8814 
 218   0.0000       3.334216        90.7286 
 219   0.0000       3.353267        91.2470 
 220   0.0000       3.450307        93.8876 
 221   0.0000       3.517655        95.7203 
 222   0.0000       3.593569        97.7860 
 223   0.0000       3.607539        98.1661 
 224   0.0000       3.616136        98.4001 
 225   0.0000       3.651593        99.3649 
 226   0.0000       3.712192       101.0139 
 227   0.0000       3.721354       101.2632 
 228   0.0000       3.844257       104.6076 
 229   0.0000       3.860185       105.0410 
 230   0.0000       3.894251       105.9680 
 231   0.0000       3.921366       106.7058 
 232   0.0000       3.938702       107.1775 
 233   0.0000       4.125050       112.2483 
 234   0.0000       4.945089       134.5627 
 235   0.0000       5.059089       137.6648 
 236   0.0000       5.102729       138.8523 
 237   0.0000       5.120012       139.3226 
 238   0.0000       5.125748       139.4787 
 239   0.0000       5.174651       140.8094 
 240   0.0000       5.188349       141.1822 
 241   0.0000       5.217993       141.9888 
 242   0.0000       5.265304       143.2762 
 243   0.0000       5.269225       143.3829 
 244   0.0000       5.272162       143.4628 
 245   0.0000       5.285529       143.8266 
 246   0.0000       5.315087       144.6309 
 247   0.0000       5.328839       145.0051 
 248   0.0000       5.339660       145.2995 
 249   0.0000       5.351284       145.6158 
 250   0.0000       5.361196       145.8856 
 251   0.0000       5.430259       147.7648 
 252   0.0000       5.456030       148.4661 
 253   0.0000       5.473262       148.9350 
 254   0.0000       5.570642       151.5849 
 255   0.0000       5.612611       152.7269 
 256   0.0000       5.634743       153.3291 
 257   0.0000       5.753685       156.5657 
 258   0.0000       5.790950       157.5798 
 259   0.0000       5.793836       157.6583 
 260   0.0000       5.873517       159.8265 
 261   0.0000       5.925709       161.2467 
 262   0.0000       5.927978       161.3085 
 263   0.0000       5.955168       162.0484 
 264   0.0000       5.978880       162.6936 
 265   0.0000       5.988515       162.9558 
 266   0.0000       6.040973       164.3832 
 267   0.0000       6.113815       166.3654 
 268   0.0000       6.147423       167.2799 
 269   0.0000       6.150308       167.3584 
 270   0.0000       6.188422       168.3955 
 271   0.0000       6.222244       169.3159 
 272   0.0000       6.338309       172.4741 
 273   0.0000       6.383797       173.7120 
 274   0.0000       6.432647       175.0412 
 275   0.0000       6.442085       175.2980 
 276   0.0000       6.947061       189.0391 
 277   0.0000       6.971048       189.6919 
 278   0.0000       6.978063       189.8828 
 279   0.0000       7.035167       191.4366 
 280   0.0000       7.063293       192.2020 
 281   0.0000       7.084413       192.7767 
 282   0.0000       7.099556       193.1887 
 283   0.0000       7.111962       193.5263 
 284   0.0000       7.120443       193.7571 
 285   0.0000       7.131714       194.0638 
 286   0.0000       7.142431       194.3554 
 287   0.0000       7.303071       198.7267 
 288   0.0000       7.340785       199.7529 
 289   0.0000       7.360973       200.3023 
 290   0.0000       7.643028       207.9774 
 291   0.0000       7.682885       209.0619 
 292   0.0000       7.782451       211.7713 
 293   0.0000       7.857392       213.8105 
 294   0.0000       7.878463       214.3839 
 295   0.0000       7.903657       215.0694 
 296   0.0000       8.263460       224.8602 
 297   0.0000       8.399245       228.5551 
 298   0.0000       8.412264       228.9093 
 299   0.0000       8.454928       230.0703 
 300   0.0000       8.556164       232.8251 
 301   0.0000       8.616071       234.4552 
 302   0.0000       8.658886       235.6203 
 303   0.0000       8.705559       236.8903 
 304   0.0000       8.712460       237.0781 
 305   0.0000       8.787358       239.1162 
 306   0.0000       8.896126       242.0759 
 307   0.0000       9.063040       246.6179 
 308   0.0000       9.199196       250.3229 
 309   0.0000       9.735481       264.9159 
 310   0.0000       9.848995       268.0048 
 311   0.0000      11.658873       317.2541 
 312   0.0000      11.717020       318.8363 
 313   0.0000      11.774309       320.3952 
 314   0.0000      11.801235       321.1279 
 315   0.0000      11.815447       321.5146 
 316   0.0000      12.127480       330.0055 
 317   0.0000      12.220095       332.5257 
 318   0.0000      12.225938       332.6847 
 319   0.0000      12.258992       333.5841 
 320   0.0000      12.279126       334.1320 
 321   0.0000      12.350146       336.0645 
 322   0.0000      12.373624       336.7034 
 323   0.0000      12.386101       337.0429 
 324   0.0000      12.397548       337.3544 
 325   0.0000      12.584623       342.4450 
 326   0.0000      12.619245       343.3871 
 327   0.0000      12.621066       343.4367 
 328   0.0000      12.626226       343.5771 
 329   0.0000      12.632897       343.7586 
 330   0.0000      12.633815       343.7836 
 331   0.0000      12.641659       343.9970 
 332   0.0000      12.642014       344.0067 
 333   0.0000      12.642129       344.0098 
 334   0.0000      12.644138       344.0645 
 335   0.0000      12.657529       344.4289 
 336   0.0000      12.734122       346.5131 
 337   0.0000      12.734549       346.5247 
 338   0.0000      12.824865       348.9823 
 339   0.0000      12.870885       350.2346 
 340   0.0000      12.898703       350.9916 
 341   0.0000      12.946214       352.2844 
 342   0.0000      12.968069       352.8791 
 343   0.0000      12.993014       353.5579 
 344   0.0000      13.112302       356.8039 
 345   0.0000      13.138226       357.5093 
 346   0.0000      13.175229       358.5162 
 347   0.0000      13.225508       359.8844 
 348   0.0000      13.430314       365.4574 
 349   0.0000      13.518172       367.8482 
 350   0.0000      14.245135       387.6298 
 351   0.0000      14.270755       388.3270 
 352   0.0000      14.366198       390.9241 
 353   0.0000      14.409331       392.0978 
 354   0.0000      14.622023       397.8855 
 355   0.0000      14.623329       397.9210 
 356   0.0000      14.961156       407.1138 
 357   0.0000      14.962184       407.1417 
 358   0.0000      14.974561       407.4785 
 359   0.0000      14.986988       407.8167 
 360   0.0000      15.056058       409.6962 
 361   0.0000      15.111146       411.1952 
 362   0.0000      15.132694       411.7815 
 363   0.0000      15.218008       414.1030 
 364   0.0000      15.359822       417.9620 
 365   0.0000      15.380990       418.5380 
 366   0.0000      15.422093       419.6565 
 367   0.0000      15.531245       422.6267 
 368   0.0000      15.563651       423.5085 
 369   0.0000      15.658710       426.0952 
 370   0.0000      15.808271       430.1649 
 371   0.0000      16.061012       437.0424 
 372   0.0000      17.004292       462.7103 
 373   0.0000      17.026092       463.3035 
 374   0.0000      17.171826       467.2691 
 375   0.0000      17.625698       479.6196 
 376   0.0000      18.292808       497.7726 
 377   0.0000      20.064136       545.9729 
 378   0.0000      20.069649       546.1229 
 379   0.0000      20.069847       546.1283 
 380   0.0000      20.070428       546.1441 
 381   0.0000      20.072157       546.1911 
 382   0.0000      20.124963       547.6281 
 383   0.0000      20.133920       547.8718 
 384   0.0000      20.149102       548.2850 
 385   0.0000      20.409406       555.3682 
 386   0.0000      20.417959       555.6009 
 387   0.0000      20.497932       557.7771 
 388   0.0000      20.573534       559.8343 
 389   0.0000      21.051295       572.8349 
 390   0.0000      21.087969       573.8328 
 391   0.0000      21.109408       574.4162 
 392   0.0000      21.150963       575.5470 
 393   0.0000      21.617680       588.2470 
 394   0.0000      21.813156       593.5662 
 395   0.0000      30.274471       823.8103 
 396   0.0000      30.337842       825.5347 
 397   0.0000      30.377437       826.6121 
 398   0.0000      30.398430       827.1833 
 399   0.0000      30.509467       830.2048 
 400   0.0000      30.522687       830.5645 
 401   0.0000      30.523743       830.5933 
 402   0.0000      30.722730       836.0080 
 403   0.0000      31.109917       846.5439 
 404   0.0000      31.146490       847.5391 
 405   0.0000      32.324252       879.5876 
 406   0.0000      41.481666      1128.7735 
 407   0.0000      41.502188      1129.3319 
 408   0.0000      41.581757      1131.4971 
 409   0.0000      41.653075      1133.4378 
 410   0.0000      41.781037      1136.9198 
 411   0.0000      41.793677      1137.2638 
 412   0.0000      42.775764      1163.9877 
 413   0.0000      42.788558      1164.3359 
 414   0.0000      62.382392      1697.5112 
 415   0.0000      62.385467      1697.5949 
 416   0.0000      62.445897      1699.2392 
 417   0.0000      62.658501      1705.0245 
 418   0.0000      63.019527      1714.8485 
 419   0.0000      91.213272      2482.0393 
 420   0.0000      91.263850      2483.4156 
 421   0.0000      91.283747      2483.9570 
 422   0.0000      91.298677      2484.3633 
 423   0.0000      91.375946      2486.4659 
 424   0.0000      91.381789      2486.6249 
 425   0.0000      91.386014      2486.7399 
 426   0.0000      91.526173      2490.5538 
 427   0.0000      91.796532      2497.9106 
 428   0.0000      91.824901      2498.6826 
 429   0.0000     201.573613      5485.0969 
 430   0.0000     201.613494      5486.1821 

                 SPIN DOWN ORBITALS
  NO   OCC          E(Eh)            E(eV) 
   0   1.0000     -88.162804     -2399.0319 
   1   1.0000     -24.309406      -661.4926 
   2   1.0000     -24.309406      -661.4926 
   3   1.0000      -7.788686      -211.9409 
   4   1.0000      -5.814807      -158.2290 
   5   1.0000      -5.810268      -158.1054 
   6   1.0000      -5.793787      -157.6570 
   7   1.0000      -1.177717       -32.0473 
   8   1.0000      -1.136640       -30.9295 
   9   1.0000      -0.677477       -18.4351 
  10   1.0000      -0.524323       -14.2676 
  11   1.0000      -0.476642       -12.9701 
  12   1.0000      -0.455097       -12.3838 
  13   1.0000      -0.407255       -11.0820 
  14   1.0000      -0.398325       -10.8390 
  15   1.0000      -0.390872       -10.6362 
  16   1.0000      -0.211958        -5.7677 
  17   0.0000      -0.107398        -2.9225 
  18   0.0000      -0.069212        -1.8833 
  19   0.0000      -0.006110        -0.1663 
  20   0.0000       0.017457         0.4750 
  21   0.0000       0.021816         0.5936 
  22   0.0000       0.024798         0.6748 
  23   0.0000       0.054793         1.4910 
  24   0.0000       0.060064         1.6344 
  25   0.0000       0.061086         1.6622 
  26   0.0000       0.065070         1.7707 
  27   0.0000       0.065169         1.7733 
  28   0.0000       0.091523         2.4905 
  29   0.0000       0.098451         2.6790 
  30   0.0000       0.099889         2.7181 
  31   0.0000       0.115959         3.1554 
  32   0.0000       0.117395         3.1945 
  33   0.0000       0.128718         3.5026 
  34   0.0000       0.136865         3.7243 
  35   0.0000       0.141454         3.8492 
  36   0.0000       0.141608         3.8533 
  37   0.0000       0.155418         4.2291 
  38   0.0000       0.169575         4.6144 
  39   0.0000       0.196945         5.3591 
  40   0.0000       0.199102         5.4178 
  41   0.0000       0.220734         6.0065 
  42   0.0000       0.235291         6.4026 
  43   0.0000       0.236571         6.4374 
  44   0.0000       0.249149         6.7797 
  45   0.0000       0.252643         6.8748 
  46   0.0000       0.256466         6.9788 
  47   0.0000       0.258065         7.0223 
  48   0.0000       0.265579         7.2268 
  49   0.0000       0.275622         7.5001 
  50   0.0000       0.279194         7.5973 
  51   0.0000       0.280631         7.6364 
  52   0.0000       0.285610         7.7718 
  53   0.0000       0.291136         7.9222 
  54   0.0000       0.297048         8.0831 
  55   0.0000       0.314148         8.5484 
  56   0.0000       0.318293         8.6612 
  57   0.0000       0.336879         9.1669 
  58   0.0000       0.342959         9.3324 
  59   0.0000       0.350136         9.5277 
  60   0.0000       0.352804         9.6003 
  61   0.0000       0.360240         9.8026 
  62   0.0000       0.382771        10.4157 
  63   0.0000       0.389979        10.6119 
  64   0.0000       0.404067        10.9952 
  65   0.0000       0.414074        11.2675 
  66   0.0000       0.430055        11.7024 
  67   0.0000       0.441918        12.0252 
  68   0.0000       0.455263        12.3883 
  69   0.0000       0.459534        12.5046 
  70   0.0000       0.459869        12.5137 
  71   0.0000       0.463351        12.6084 
  72   0.0000       0.464310        12.6345 
  73   0.0000       0.477791        13.0014 
  74   0.0000       0.483584        13.1590 
  75   0.0000       0.507932        13.8215 
  76   0.0000       0.520327        14.1588 
  77   0.0000       0.526854        14.3364 
  78   0.0000       0.531752        14.4697 
  79   0.0000       0.562077        15.2949 
  80   0.0000       0.591051        16.0833 
  81   0.0000       0.591337        16.0911 
  82   0.0000       0.595803        16.2126 
  83   0.0000       0.604007        16.4359 
  84   0.0000       0.614508        16.7216 
  85   0.0000       0.614594        16.7239 
  86   0.0000       0.619454        16.8562 
  87   0.0000       0.625628        17.0242 
  88   0.0000       0.629130        17.1195 
  89   0.0000       0.646012        17.5789 
  90   0.0000       0.666867        18.1464 
  91   0.0000       0.668623        18.1942 
  92   0.0000       0.679607        18.4931 
  93   0.0000       0.685868        18.6634 
  94   0.0000       0.690460        18.7884 
  95   0.0000       0.703342        19.1389 
  96   0.0000       0.704650        19.1745 
  97   0.0000       0.708105        19.2685 
  98   0.0000       0.715737        19.4762 
  99   0.0000       0.717761        19.5313 
 100   0.0000       0.718689        19.5565 
 101   0.0000       0.732485        19.9319 
 102   0.0000       0.736337        20.0367 
 103   0.0000       0.749824        20.4037 
 104   0.0000       0.781534        21.2666 
 105   0.0000       0.794174        21.6106 
 106   0.0000       0.805715        21.9246 
 107   0.0000       0.806339        21.9416 
 108   0.0000       0.825175        22.4542 
 109   0.0000       0.851795        23.1785 
 110   0.0000       0.853163        23.2157 
 111   0.0000       0.869031        23.6475 
 112   0.0000       0.870281        23.6816 
 113   0.0000       0.881521        23.9874 
 114   0.0000       0.897782        24.4299 
 115   0.0000       0.899109        24.4660 
 116   0.0000       0.904963        24.6253 
 117   0.0000       0.935000        25.4426 
 118   0.0000       0.960826        26.1454 
 119   0.0000       0.962466        26.1900 
 120   0.0000       0.963368        26.2146 
 121   0.0000       0.977952        26.6114 
 122   0.0000       0.982458        26.7340 
 123   0.0000       0.994500        27.0617 
 124   0.0000       1.003831        27.3156 
 125   0.0000       1.012982        27.5647 
 126   0.0000       1.021063        27.7845 
 127   0.0000       1.036939        28.2165 
 128   0.0000       1.053419        28.6650 
 129   0.0000       1.064773        28.9739 
 130   0.0000       1.083688        29.4887 
 131   0.0000       1.117081        30.3973 
 132   0.0000       1.138192        30.9718 
 133   0.0000       1.176733        32.0205 
 134   0.0000       1.186573        32.2883 
 135   0.0000       1.186857        32.2960 
 136   0.0000       1.196241        32.5514 
 137   0.0000       1.197081        32.5742 
 138   0.0000       1.215065        33.0636 
 139   0.0000       1.216898        33.1135 
 140   0.0000       1.228881        33.4396 
 141   0.0000       1.229209        33.4485 
 142   0.0000       1.231443        33.5093 
 143   0.0000       1.262431        34.3525 
 144   0.0000       1.267641        34.4943 
 145   0.0000       1.286000        34.9938 
 146   0.0000       1.287154        35.0252 
 147   0.0000       1.287730        35.0409 
 148   0.0000       1.304576        35.4993 
 149   0.0000       1.342829        36.5402 
 150   0.0000       1.359936        37.0057 
 151   0.0000       1.365216        37.1494 
 152   0.0000       1.376995        37.4699 
 153   0.0000       1.394193        37.9379 
 154   0.0000       1.404939        38.2303 
 155   0.0000       1.410324        38.3769 
 156   0.0000       1.456616        39.6365 
 157   0.0000       1.466063        39.8936 
 158   0.0000       1.466650        39.9096 
 159   0.0000       1.466687        39.9106 
 160   0.0000       1.472455        40.0675 
 161   0.0000       1.480492        40.2862 
 162   0.0000       1.508108        41.0377 
 163   0.0000       1.514284        41.2058 
 164   0.0000       1.539089        41.8807 
 165   0.0000       1.545987        42.0685 
 166   0.0000       1.589409        43.2500 
 167   0.0000       1.612789        43.8862 
 168   0.0000       1.621957        44.1357 
 169   0.0000       1.658147        45.1205 
 170   0.0000       1.676563        45.6216 
 171   0.0000       1.701277        46.2941 
 172   0.0000       1.723249        46.8920 
 173   0.0000       1.749769        47.6136 
 174   0.0000       1.768615        48.1265 
 175   0.0000       1.844627        50.1949 
 176   0.0000       1.850992        50.3680 
 177   0.0000       1.875824        51.0438 
 178   0.0000       1.902711        51.7754 
 179   0.0000       2.115149        57.5561 
 180   0.0000       2.155250        58.6473 
 181   0.0000       2.162958        58.8571 
 182   0.0000       2.164029        58.8862 
 183   0.0000       2.170299        59.0568 
 184   0.0000       2.211070        60.1663 
 185   0.0000       2.216650        60.3181 
 186   0.0000       2.217046        60.3289 
 187   0.0000       2.245649        61.1072 
 188   0.0000       2.256232        61.3952 
 189   0.0000       2.283261        62.1307 
 190   0.0000       2.298775        62.5528 
 191   0.0000       2.330681        63.4210 
 192   0.0000       2.336762        63.5865 
 193   0.0000       2.362286        64.2811 
 194   0.0000       2.417542        65.7847 
 195   0.0000       2.419046        65.8256 
 196   0.0000       2.430649        66.1413 
 197   0.0000       2.468159        67.1620 
 198   0.0000       2.469144        67.1888 
 199   0.0000       2.530521        68.8590 
 200   0.0000       2.535644        68.9984 
 201   0.0000       2.549611        69.3784 
 202   0.0000       2.601318        70.7855 
 203   0.0000       2.701645        73.5155 
 204   0.0000       2.705090        73.6092 
 205   0.0000       2.725369        74.1611 
 206   0.0000       2.748018        74.7774 
 207   0.0000       2.755862        74.9908 
 208   0.0000       2.767924        75.3190 
 209   0.0000       2.905821        79.0714 
 210   0.0000       2.935403        79.8764 
 211   0.0000       2.953397        80.3660 
 212   0.0000       2.958438        80.5032 
 213   0.0000       3.092547        84.1525 
 214   0.0000       3.133056        85.2548 
 215   0.0000       3.151001        85.7431 
 216   0.0000       3.227591        87.8272 
 217   0.0000       3.266332        88.8814 
 218   0.0000       3.334216        90.7286 
 219   0.0000       3.353267        91.2470 
 220   0.0000       3.450307        93.8876 
 221   0.0000       3.517655        95.7203 
 222   0.0000       3.593569        97.7860 
 223   0.0000       3.607539        98.1661 
 224   0.0000       3.616136        98.4001 
 225   0.0000       3.651593        99.3649 
 226   0.0000       3.712192       101.0139 
 227   0.0000       3.721354       101.2632 
 228   0.0000       3.844257       104.6076 
 229   0.0000       3.860185       105.0410 
 230   0.0000       3.894251       105.9680 
 231   0.0000       3.921366       106.7058 
 232   0.0000       3.938702       107.1775 
 233   0.0000       4.125050       112.2483 
 234   0.0000       4.945089       134.5627 
 235   0.0000       5.059089       137.6648 
 236   0.0000       5.102729       138.8523 
 237   0.0000       5.120012       139.3226 
 238   0.0000       5.125748       139.4787 
 239   0.0000       5.174651       140.8094 
 240   0.0000       5.188349       141.1822 
 241   0.0000       5.217993       141.9888 
 242   0.0000       5.265304       143.2762 
 243   0.0000       5.269225       143.3829 
 244   0.0000       5.272162       143.4628 
 245   0.0000       5.285529       143.8266 
 246   0.0000       5.315087       144.6309 
 247   0.0000       5.328839       145.0051 
 248   0.0000       5.339660       145.2995 
 249   0.0000       5.351284       145.6158 
 250   0.0000       5.361196       145.8856 
 251   0.0000       5.430259       147.7648 
 252   0.0000       5.456030       148.4661 
 253   0.0000       5.473262       148.9350 
 254   0.0000       5.570642       151.5849 
 255   0.0000       5.612611       152.7269 
 256   0.0000       5.634743       153.3291 
 257   0.0000       5.753685       156.5657 
 258   0.0000       5.790950       157.5798 
 259   0.0000       5.793836       157.6583 
 260   0.0000       5.873517       159.8265 
 261   0.0000       5.925709       161.2467 
 262   0.0000       5.927978       161.3085 
 263   0.0000       5.955168       162.0484 
 264   0.0000       5.978880       162.6936 
 265   0.0000       5.988515       162.9558 
 266   0.0000       6.040973       164.3832 
 267   0.0000       6.113815       166.3654 
 268   0.0000       6.147423       167.2799 
 269   0.0000       6.150308       167.3584 
 270   0.0000       6.188422       168.3955 
 271   0.0000       6.222244       169.3159 
 272   0.0000       6.338309       172.4741 
 273   0.0000       6.383797       173.7120 
 274   0.0000       6.432647       175.0412 
 275   0.0000       6.442085       175.2980 
 276   0.0000       6.947061       189.0391 
 277   0.0000       6.971048       189.6919 
 278   0.0000       6.978063       189.8828 
 279   0.0000       7.035167       191.4366 
 280   0.0000       7.063293       192.2020 
 281   0.0000       7.084413       192.7767 
 282   0.0000       7.099556       193.1887 
 283   0.0000       7.111962       193.5263 
 284   0.0000       7.120443       193.7571 
 285   0.0000       7.131714       194.0638 
 286   0.0000       7.142431       194.3554 
 287   0.0000       7.303071       198.7267 
 288   0.0000       7.340785       199.7529 
 289   0.0000       7.360973       200.3023 
 290   0.0000       7.643028       207.9774 
 291   0.0000       7.682885       209.0619 
 292   0.0000       7.782451       211.7713 
 293   0.0000       7.857392       213.8105 
 294   0.0000       7.878463       214.3839 
 295   0.0000       7.903657       215.0694 
 296   0.0000       8.263460       224.8602 
 297   0.0000       8.399245       228.5551 
 298   0.0000       8.412264       228.9093 
 299   0.0000       8.454928       230.0703 
 300   0.0000       8.556164       232.8251 
 301   0.0000       8.616071       234.4552 
 302   0.0000       8.658886       235.6203 
 303   0.0000       8.705559       236.8903 
 304   0.0000       8.712460       237.0781 
 305   0.0000       8.787358       239.1162 
 306   0.0000       8.896126       242.0759 
 307   0.0000       9.063040       246.6179 
 308   0.0000       9.199196       250.3229 
 309   0.0000       9.735481       264.9159 
 310   0.0000       9.848995       268.0048 
 311   0.0000      11.658873       317.2541 
 312   0.0000      11.717020       318.8363 
 313   0.0000      11.774309       320.3952 
 314   0.0000      11.801235       321.1279 
 315   0.0000      11.815447       321.5146 
 316   0.0000      12.127480       330.0055 
 317   0.0000      12.220095       332.5257 
 318   0.0000      12.225938       332.6847 
 319   0.0000      12.258992       333.5841 
 320   0.0000      12.279126       334.1320 
 321   0.0000      12.350146       336.0645 
 322   0.0000      12.373624       336.7034 
 323   0.0000      12.386101       337.0429 
 324   0.0000      12.397548       337.3544 
 325   0.0000      12.584623       342.4450 
 326   0.0000      12.619245       343.3871 
 327   0.0000      12.621066       343.4367 
 328   0.0000      12.626226       343.5771 
 329   0.0000      12.632897       343.7586 
 330   0.0000      12.633815       343.7836 
 331   0.0000      12.641659       343.9970 
 332   0.0000      12.642014       344.0067 
 333   0.0000      12.642129       344.0098 
 334   0.0000      12.644138       344.0645 
 335   0.0000      12.657529       344.4289 
 336   0.0000      12.734122       346.5131 
 337   0.0000      12.734549       346.5247 
 338   0.0000      12.824865       348.9823 
 339   0.0000      12.870885       350.2346 
 340   0.0000      12.898703       350.9916 
 341   0.0000      12.946214       352.2844 
 342   0.0000      12.968069       352.8791 
 343   0.0000      12.993014       353.5579 
 344   0.0000      13.112302       356.8039 
 345   0.0000      13.138226       357.5093 
 346   0.0000      13.175229       358.5162 
 347   0.0000      13.225508       359.8844 
 348   0.0000      13.430314       365.4574 
 349   0.0000      13.518172       367.8482 
 350   0.0000      14.245135       387.6298 
 351   0.0000      14.270755       388.3270 
 352   0.0000      14.366198       390.9241 
 353   0.0000      14.409331       392.0978 
 354   0.0000      14.622023       397.8855 
 355   0.0000      14.623329       397.9210 
 356   0.0000      14.961156       407.1138 
 357   0.0000      14.962184       407.1417 
 358   0.0000      14.974561       407.4785 
 359   0.0000      14.986988       407.8167 
 360   0.0000      15.056058       409.6962 
 361   0.0000      15.111146       411.1952 
 362   0.0000      15.132694       411.7815 
 363   0.0000      15.218008       414.1030 
 364   0.0000      15.359822       417.9620 
 365   0.0000      15.380990       418.5380 
 366   0.0000      15.422093       419.6565 
 367   0.0000      15.531245       422.6267 
 368   0.0000      15.563651       423.5085 
 369   0.0000      15.658710       426.0952 
 370   0.0000      15.808271       430.1649 
 371   0.0000      16.061012       437.0424 
 372   0.0000      17.004292       462.7103 
 373   0.0000      17.026092       463.3035 
 374   0.0000      17.171826       467.2691 
 375   0.0000      17.625698       479.6196 
 376   0.0000      18.292808       497.7726 
 377   0.0000      20.064136       545.9729 
 378   0.0000      20.069649       546.1229 
 379   0.0000      20.069847       546.1283 
 380   0.0000      20.070428       546.1441 
 381   0.0000      20.072157       546.1911 
 382   0.0000      20.124963       547.6281 
 383   0.0000      20.133920       547.8718 
 384   0.0000      20.149102       548.2850 
 385   0.0000      20.409406       555.3682 
 386   0.0000      20.417959       555.6009 
 387   0.0000      20.497932       557.7771 
 388   0.0000      20.573534       559.8343 
 389   0.0000      21.051295       572.8349 
 390   0.0000      21.087969       573.8328 
 391   0.0000      21.109408       574.4162 
 392   0.0000      21.150963       575.5470 
 393   0.0000      21.617680       588.2470 
 394   0.0000      21.813156       593.5662 
 395   0.0000      30.274471       823.8103 
 396   0.0000      30.337842       825.5347 
 397   0.0000      30.377437       826.6121 
 398   0.0000      30.398430       827.1833 
 399   0.0000      30.509467       830.2048 
 400   0.0000      30.522687       830.5645 
 401   0.0000      30.523743       830.5933 
 402   0.0000      30.722730       836.0080 
 403   0.0000      31.109917       846.5439 
 404   0.0000      31.146490       847.5391 
 405   0.0000      32.324252       879.5876 
 406   0.0000      41.481666      1128.7735 
 407   0.0000      41.502188      1129.3319 
 408   0.0000      41.581757      1131.4971 
 409   0.0000      41.653075      1133.4378 
 410   0.0000      41.781037      1136.9198 
 411   0.0000      41.793677      1137.2638 
 412   0.0000      42.775764      1163.9877 
 413   0.0000      42.788558      1164.3359 
 414   0.0000      62.382392      1697.5112 
 415   0.0000      62.385467      1697.5949 
 416   0.0000      62.445897      1699.2392 
 417   0.0000      62.658501      1705.0245 
 418   0.0000      63.019527      1714.8485 
 419   0.0000      91.213272      2482.0393 
 420   0.0000      91.263850      2483.4156 
 421   0.0000      91.283747      2483.9570 
 422   0.0000      91.298677      2484.3633 
 423   0.0000      91.375946      2486.4659 
 424   0.0000      91.381789      2486.6249 
 425   0.0000      91.386014      2486.7399 
 426   0.0000      91.526173      2490.5538 
 427   0.0000      91.796532      2497.9106 
 428   0.0000      91.824901      2498.6826 
 429   0.0000     201.573613      5485.0969 
 430   0.0000     201.613494      5486.1821 

                    ********************************
                    * MULLIKEN POPULATION ANALYSIS *
                    ********************************

--------------------------------------------
MULLIKEN ATOMIC CHARGES AND SPIN POPULATIONS
--------------------------------------------
   0 S :    0.103068   -0.000000
   1 F :   -0.051534   -0.000000
   2 F :   -0.051534    0.000000
Sum of atomic charges         :   -0.0000000
Sum of atomic spin populations:   -0.0000000

-----------------------------------------------------
MULLIKEN REDUCED ORBITAL CHARGES AND SPIN POPULATIONS
-----------------------------------------------------
CHARGE
  0 S s       :     6.050712  s :     6.050712
      pz      :     2.774120  p :     9.413436
      px      :     4.033668
      py      :     2.605648
      dz2     :     0.066003  d :     0.353741
      dxz     :     0.057846
      dyz     :     0.102611
      dx2y2   :     0.060342
      dxy     :     0.066939
      f0      :     0.006279  f :     0.065698
      f+1     :     0.001771
      f-1     :     0.022221
      f+2     :     0.011932
      f-2     :     0.011738
      f+3     :     0.006858
      f-3     :     0.004898
      g0      :     0.000743  g :     0.011654
      g+1     :    -0.000001
      g-1     :     0.002642
      g+2     :     0.002335
      g-2     :     0.000173
      g+3     :     0.002602
      g-3     :     0.001578
      g+4     :     0.000676
      g-4     :     0.000907
      h0      :     0.000292  h :     0.001690
      h+1     :     0.000033
      h-1     :     0.000209
      h+2     :     0.000414
      h-2     :    -0.000060
      h+3     :     0.000106
      h-3     :     0.000258
      h+4     :     0.000265
      h-4     :     0.000167
      h+5     :     0.000026
      h-5     :    -0.000020
  1 F s       :     3.867029  s :     3.867029
      pz      :     1.640894  p :     5.168285
      px      :     1.902198
      py      :     1.625193
      dz2     :     0.003682  d :     0.015344
      dxz     :     0.003860
      dyz     :     0.002426
      dx2y2   :     0.004122
      dxy     :     0.001255
      f0      :    -0.000130  f :    -0.000048
      f+1     :    -0.000147
      f-1     :     0.000038
      f+2     :    -0.000266
      f-2     :    -0.000091
      f+3     :     0.000403
      f-3     :     0.000145
      g0      :    -0.000175  g :     0.000494
      g+1     :    -0.000015
      g-1     :     0.000208
      g+2     :    -0.000086
      g-2     :     0.000089
      g+3     :     0.000470
      g-3     :    -0.000150
      g+4     :    -0.000143
      g-4     :     0.000295
      h0      :     0.000087  h :     0.000429
      h+1     :    -0.000023
      h-1     :    -0.000063
      h+2     :     0.000203
      h-2     :     0.000006
      h+3     :     0.000147
      h-3     :    -0.000033
      h+4     :     0.000003
      h-4     :     0.000100
      h+5     :     0.000068
      h-5     :    -0.000066
  2 F s       :     3.867029  s :     3.867029
      pz      :     1.640894  p :     5.168286
      px      :     1.902198
      py      :     1.625194
      dz2     :     0.003682  d :     0.015344
      dxz     :     0.003860
      dyz     :     0.002426
      dx2y2   :     0.004122
      dxy     :     0.001255
      f0      :    -0.000130  f :    -0.000048
      f+1     :    -0.000147
      f-1     :     0.000038
      f+2     :    -0.000266
      f-2     :    -0.000091
      f+3     :     0.000403
      f-3     :     0.000145
      g0      :    -0.000175  g :     0.000494
      g+1     :    -0.000015
      g-1     :     0.000208
      g+2     :    -0.000086
      g-2     :     0.000089
      g+3     :     0.000470
      g-3     :    -0.000150
      g+4     :    -0.000143
      g-4     :     0.000295
      h0      :     0.000087  h :     0.000429
      h+1     :    -0.000023
      h-1     :    -0.000063
      h+2     :     0.000203
      h-2     :     0.000006
      h+3     :     0.000147
      h-3     :    -0.000033
      h+4     :     0.000003
      h-4     :     0.000100
      h+5     :     0.000068
      h-5     :    -0.000066

SPIN
  0 S s       :    -0.000000  s :    -0.000000
      pz      :    -0.000000  p :    -0.000000
      px      :    -0.000000
      py      :     0.000000
      dz2     :    -0.000000  d :     0.000000
      dxz     :     0.000000
      dyz     :     0.000000
      dx2y2   :     0.000000
      dxy     :     0.000000
      f0      :    -0.000000  f :    -0.000000
      f+1     :    -0.000000
      f-1     :     0.000000
      f+2     :     0.000000
      f-2     :    -0.000000
      f+3     :     0.000000
      f-3     :    -0.000000
      g0      :     0.000000  g :    -0.000000
      g+1     :    -0.000000
      g-1     :    -0.000000
      g+2     :     0.000000
      g-2     :    -0.000000
      g+3     :    -0.000000
      g-3     :    -0.000000
      g+4     :    -0.000000
      g-4     :     0.000000
      h0      :     0.000000  h :    -0.000000
      h+1     :     0.000000
      h-1     :    -0.000000
      h+2     :     0.000000
      h-2     :    -0.000000
      h+3     :    -0.000000
      h-3     :    -0.000000
      h+4     :    -0.000000
      h-4     :     0.000000
      h+5     :    -0.000000
      h-5     :    -0.000000
  1 F s       :    -0.000000  s :    -0.000000
      pz      :    -0.000000  p :    -0.000000
      px      :     0.000000
      py      :    -0.000000
      dz2     :     0.000000  d :    -0.000000
      dxz     :     0.000000
      dyz     :    -0.000000
      dx2y2   :    -0.000000
      dxy     :     0.000000
      f0      :    -0.000000  f :    -0.000000
      f+1     :    -0.000000
      f-1     :     0.000000
      f+2     :    -0.000000
      f-2     :     0.000000
      f+3     :     0.000000
      f-3     :     0.000000
      g0      :    -0.000000  g :     0.000000
      g+1     :    -0.000000
      g-1     :     0.000000
      g+2     :     0.000000
      g-2     :    -0.000000
      g+3     :     0.000000
      g-3     :     0.000000
      g+4     :    -0.000000
      g-4     :     0.000000
      h0      :     0.000000  h :     0.000000
      h+1     :    -0.000000
      h-1     :    -0.000000
      h+2     :     0.000000
      h-2     :    -0.000000
      h+3     :    -0.000000
      h-3     :     0.000000
      h+4     :     0.000000
      h-4     :     0.000000
      h+5     :     0.000000
      h-5     :    -0.000000
  2 F s       :     0.000000  s :     0.000000
      pz      :    -0.000000  p :     0.000000
      px      :     0.000000
      py      :     0.000000
      dz2     :     0.000000  d :     0.000000
      dxz     :    -0.000000
      dyz     :    -0.000000
      dx2y2   :     0.000000
      dxy     :    -0.000000
      f0      :     0.000000  f :    -0.000000
      f+1     :    -0.000000
      f-1     :    -0.000000
      f+2     :     0.000000
      f-2     :    -0.000000
      f+3     :    -0.000000
      f-3     :    -0.000000
      g0      :    -0.000000  g :    -0.000000
      g+1     :     0.000000
      g-1     :    -0.000000
      g+2     :    -0.000000
      g-2     :    -0.000000
      g+3     :    -0.000000
      g-3     :     0.000000
      g+4     :    -0.000000
      g-4     :     0.000000
      h0      :     0.000000  h :    -0.000000
      h+1     :     0.000000
      h-1     :     0.000000
      h+2     :    -0.000000
      h-2     :     0.000000
      h+3     :    -0.000000
      h-3     :    -0.000000
      h+4     :     0.000000
      h-4     :    -0.000000
      h+5     :     0.000000
      h-5     :    -0.000000


                     *******************************
                     * LOEWDIN POPULATION ANALYSIS *
                     *******************************

-------------------------------------------
LOEWDIN ATOMIC CHARGES AND SPIN POPULATIONS
-------------------------------------------
   0 S :    1.325528   -0.000000
   1 F :   -0.662764    0.000000
   2 F :   -0.662764    0.000000

----------------------------------------------------
LOEWDIN REDUCED ORBITAL CHARGES AND SPIN POPULATIONS
----------------------------------------------------
CHARGE
  0 S s       :     4.927569  s :     4.927569
      pz      :     2.664978  p :     8.325087
      px      :     3.174773
      py      :     2.485336
      dz2     :     0.119674  d :     0.751890
      dxz     :     0.103977
      dyz     :     0.265817
      dx2y2   :     0.152098
      dxy     :     0.110324
      f0      :     0.046641  f :     0.417034
      f+1     :     0.008071
      f-1     :     0.123587
      f+2     :     0.101962
      f-2     :     0.065601
      f+3     :     0.037448
      f-3     :     0.033723
      g0      :     0.014214  g :     0.185426
      g+1     :     0.000023
      g-1     :     0.040995
      g+2     :     0.032112
      g-2     :     0.014507
      g+3     :     0.034904
      g-3     :     0.029121
      g+4     :     0.009371
      g-4     :     0.010181
      h0      :     0.005156  h :     0.067466
      h+1     :     0.000574
      h-1     :     0.009501
      h+2     :     0.009838
      h-2     :     0.000700
      h+3     :     0.009314
      h-3     :     0.011262
      h+4     :     0.007822
      h-4     :     0.008922
      h+5     :     0.002701
      h-5     :     0.001677
  1 F s       :     3.532826  s :     3.532826
      pz      :     1.637163  p :     5.085189
      px      :     1.780594
      py      :     1.667432
      dz2     :     0.052057  d :     0.412177
      dxz     :     0.081314
      dyz     :     0.123668
      dx2y2   :     0.061090
      dxy     :     0.094047
      f0      :     0.017619  f :     0.288422
      f+1     :     0.014996
      f-1     :     0.073300
      f+2     :     0.041845
      f-2     :     0.066988
      f+3     :     0.040904
      f-3     :     0.032770
      g0      :     0.013343  g :     0.205330
      g+1     :     0.000248
      g-1     :     0.035188
      g+2     :     0.034198
      g-2     :     0.023923
      g+3     :     0.030661
      g-3     :     0.019895
      g+4     :     0.022958
      g-4     :     0.024916
      h0      :     0.010305  h :     0.138820
      h+1     :     0.000587
      h-1     :     0.011954
      h+2     :     0.021282
      h-2     :     0.001334
      h+3     :     0.018286
      h-3     :     0.016575
      h+4     :     0.013219
      h-4     :     0.010597
      h+5     :     0.019595
      h-5     :     0.015086
  2 F s       :     3.532826  s :     3.532826
      pz      :     1.637163  p :     5.085189
      px      :     1.780594
      py      :     1.667432
      dz2     :     0.052057  d :     0.412177
      dxz     :     0.081314
      dyz     :     0.123668
      dx2y2   :     0.061090
      dxy     :     0.094047
      f0      :     0.017619  f :     0.288422
      f+1     :     0.014996
      f-1     :     0.073300
      f+2     :     0.041845
      f-2     :     0.066988
      f+3     :     0.040904
      f-3     :     0.032770
      g0      :     0.013343  g :     0.205330
      g+1     :     0.000248
      g-1     :     0.035188
      g+2     :     0.034198
      g-2     :     0.023923
      g+3     :     0.030661
      g-3     :     0.019895
      g+4     :     0.022958
      g-4     :     0.024916
      h0      :     0.010305  h :     0.138820
      h+1     :     0.000587
      h-1     :     0.011954
      h+2     :     0.021282
      h-2     :     0.001334
      h+3     :     0.018286
      h-3     :     0.016575
      h+4     :     0.013219
      h-4     :     0.010597
      h+5     :     0.019595
      h-5     :     0.015086

SPIN
  0 S s       :    -0.000000  s :    -0.000000
      pz      :    -0.000000  p :    -0.000000
      px      :    -0.000000
      py      :    -0.000000
      dz2     :     0.000000  d :    -0.000000
      dxz     :    -0.000000
      dyz     :    -0.000000
      dx2y2   :     0.000000
      dxy     :     0.000000
      f0      :    -0.000000  f :    -0.000000
      f+1     :    -0.000000
      f-1     :     0.000000
      f+2     :    -0.000000
      f-2     :     0.000000
      f+3     :     0.000000
      f-3     :    -0.000000
      g0      :     0.000000  g :     0.000000
      g+1     :     0.000000
      g-1     :    -0.000000
      g+2     :     0.000000
      g-2     :    -0.000000
      g+3     :    -0.000000
      g-3     :    -0.000000
      g+4     :     0.000000
      g-4     :     0.000000
      h0      :    -0.000000  h :    -0.000000
      h+1     :    -0.000000
      h-1     :    -0.000000
      h+2     :    -0.000000
      h-2     :    -0.000000
      h+3     :    -0.000000
      h-3     :     0.000000
      h+4     :    -0.000000
      h-4     :     0.000000
      h+5     :    -0.000000
      h-5     :    -0.000000
  1 F s       :     0.000000  s :     0.000000
      pz      :     0.000000  p :    -0.000000
      px      :    -0.000000
      py      :    -0.000000
      dz2     :     0.000000  d :    -0.000000
      dxz     :    -0.000000
      dyz     :    -0.000000
      dx2y2   :    -0.000000
      dxy     :     0.000000
      f0      :     0.000000  f :     0.000000
      f+1     :     0.000000
      f-1     :     0.000000
      f+2     :    -0.000000
      f-2     :     0.000000
      f+3     :     0.000000
      f-3     :     0.000000
      g0      :    -0.000000  g :    -0.000000
      g+1     :     0.000000
      g-1     :    -0.000000
      g+2     :    -0.000000
      g-2     :     0.000000
      g+3     :    -0.000000
      g-3     :    -0.000000
      g+4     :    -0.000000
      g-4     :    -0.000000
      h0      :     0.000000  h :    -0.000000
      h+1     :    -0.000000
      h-1     :    -0.000000
      h+2     :     0.000000
      h-2     :     0.000000
      h+3     :     0.000000
      h-3     :    -0.000000
      h+4     :    -0.000000
      h-4     :     0.000000
      h+5     :    -0.000000
      h-5     :    -0.000000
  2 F s       :     0.000000  s :     0.000000
      pz      :     0.000000  p :     0.000000
      px      :    -0.000000
      py      :     0.000000
      dz2     :    -0.000000  d :    -0.000000
      dxz     :     0.000000
      dyz     :    -0.000000
      dx2y2   :     0.000000
      dxy     :    -0.000000
      f0      :     0.000000  f :    -0.000000
      f+1     :     0.000000
      f-1     :     0.000000
      f+2     :    -0.000000
      f-2     :    -0.000000
      f+3     :    -0.000000
      f-3     :    -0.000000
      g0      :     0.000000  g :     0.000000
      g+1     :     0.000000
      g-1     :     0.000000
      g+2     :    -0.000000
      g-2     :     0.000000
      g+3     :     0.000000
      g-3     :    -0.000000
      g+4     :     0.000000
      g-4     :    -0.000000
      h0      :     0.000000  h :    -0.000000
      h+1     :     0.000000
      h-1     :    -0.000000
      h+2     :    -0.000000
      h-2     :    -0.000000
      h+3     :    -0.000000
      h-3     :    -0.000000
      h+4     :     0.000000
      h-4     :     0.000000
      h+5     :    -0.000000
      h-5     :    -0.000000


                      *****************************
                      * MAYER POPULATION ANALYSIS *
                      *****************************

  NA   - Mulliken gross atomic population
  ZA   - Total nuclear charge
  QA   - Mulliken gross atomic charge
  VA   - Mayer's total valence
  BVA  - Mayer's bonded valence
  FA   - Mayer's free valence

  ATOM       NA         ZA         QA         VA         BVA        FA
  0 S     15.8969    16.0000     0.1031     2.0327     2.0327    -0.0000
  1 F      9.0515     9.0000    -0.0515     1.0462     1.0462    -0.0000
  2 F      9.0515     9.0000    -0.0515     1.0462     1.0462    -0.0000

  Mayer bond orders larger than 0.1
B(  0-S ,  1-F ) :   1.0163 B(  0-S ,  2-F ) :   1.0163 

-------
TIMINGS
-------

Total SCF time: 0 days 0 hours 27 min 9 sec 

Total time                  ....    1629.452 sec
Sum of individual times     ....    1628.091 sec  ( 99.9%)

Fock matrix formation       ....    1622.669 sec  ( 99.6%)
  XC integration            ....      18.164 sec  (  1.1% of F)
    Basis function eval.    ....       1.265 sec  (  7.0% of XC)
    Density eval.           ....       4.538 sec  ( 25.0% of XC)
    XC-Functional eval.     ....       0.230 sec  (  1.3% of XC)
    XC-Potential eval.      ....      10.927 sec  ( 60.2% of XC)
Diagonalization             ....       1.948 sec  (  0.1%)
Density matrix formation    ....       0.033 sec  (  0.0%)
Population analysis         ....       0.895 sec  (  0.1%)
Initial guess               ....       0.967 sec  (  0.1%)
Orbital Transformation      ....       0.000 sec  (  0.0%)
Orbital Orthonormalization  ....       0.000 sec  (  0.0%)
DIIS solution               ....       1.147 sec  (  0.1%)
Grid generation             ....       0.432 sec  (  0.0%)

-------------------------   --------------------
FINAL SINGLE POINT ENERGY      -597.611885673761
-------------------------   --------------------


                            ***************************************
                            *     ORCA property calculations      *
                            ***************************************

                                    ---------------------
                                    Active property flags
                                    ---------------------
   (+) Dipole Moment
   (+) Polarizability


------------------------------------------------------------------------------
                       ORCA ELECTRIC PROPERTIES CALCULATION
------------------------------------------------------------------------------

Dipole Moment Calculation                       ... on
Quadrupole Moment Calculation                   ... off
Polarizability Calculation                      ... Analytic (CP-SCF)
GBWName                                         ... sf2_pbe.gbw
Electron density file                           ... sf2_pbe.scfp.tmp
The origin for moment calculation is the CENTER OF MASS  = ( 0.000000,  0.000000 -0.025517)

-------------
DIPOLE MOMENT
-------------
                                X             Y             Z
Electronic contribution:     -0.00000      -0.00000      -0.55275
Nuclear contribution   :      0.00000       0.00000       0.86645
                        -----------------------------------------
Total Dipole Moment    :     -0.00000      -0.00000       0.31370
                        -----------------------------------------
Magnitude (a.u.)       :      0.31370
Magnitude (Debye)      :      0.79737



--------------------
Rotational spectrum 
--------------------
 
Rotational constants in cm-1:     0.894622     0.308875     0.229603 
Rotational constants in MHz : 26820.080967  9259.843531  6883.322421 

 Dipole components along the rotational axes: 
x,y,z [a.u.] :    -0.000000     0.313704    -0.000000 
x,y,z [Debye]:    -0.000000     0.797371    -0.000000 

 
Transforming and storing MO dipole integrals   ... done

                ... starting polarizability calculation

Opening the Dipole integral file               ... (sf2_pbe.dmo.tmp) done
Reading Dipole-MO integrals                    ... done
Solving CP-SCF equations                       ... 

           ************************************************************
           *        Program running with 4 parallel MPI-processes     *
           *              working on a common directory               *
           ************************************************************

------------------------------------------------------------------------------
                           ORCA CP-SCF CALCULATION
------------------------------------------------------------------------------

Input orbitals are from        ... sf2_pbe.gbw
Input Perturbation             ... sf2_pbe.cpv.tmp
Wavefunction output            ... sf2_pbe.cpu.tmp
Perturbation mode              ... Real perturbation (singlet)
Solver                         ... POPLE
Max. number of iterations      ... 200
Convergence tolerance          ... 1.000e-06
Integral handling              ... Direct
Number of perturbations        ... 3
Number of operators            ... 2
Orbital ranges used for CP-SCF:
 Operator 0:  Orbitals   0... 16  to  17...430
 Operator 1:  Orbitals   0... 16  to  17...430
DFT calculation                         ... on
Exchange functional (SCF)               ... PBE
Exchange functional (CP-SCF)            ... PBE
   PBE kappa parameter  XKappa (SCF)    ...  0.804000
   PBE kappa parameter  XKappa (CP-SCF) ...  0.804000
   PBE mue parameter   XMuePBE (SCF)    ...  0.219520
   PBE mue parameter   XMuePBE (CP-SCF) ...  0.219520
Correlation functional (SCF)            ... PBE
Correlation functional (CP-SCF)         ... PBE
   PBE beta parameter CBetaPBE (SCF)    ...  0.066725
   PBE beta parameter CBetaPBE (CP-SCF) ...  0.066725
 LDA part of GGA corr.  LDAOpt (SCF)    ... PW91-LDA
 LDA part of GGA corr.  LDAOpt (CP-SCF) ... PW91-LDA
Variables per vector in CP-SCF ... 14076
Number of vectors sought       ... 3
Recalculating density on grid  ... done
Calculating the xc-kernel      ... done
     CP-SCF ITERATION   0: 
     CP-SCF ITERATION   1:      0.580155507806
     CP-SCF ITERATION   2:      0.014940702592
     CP-SCF ITERATION   3:      0.000615944361
     CP-SCF ITERATION   4:      0.000013928487
     CP-SCF ITERATION   5:      0.000000137799
done
Reading CP-SCF coefficients                    ... done
Doing the polarizability tensor   ... done
Cleaning up                                    ... done

-------------------------
THE POLARIZABILITY TENSOR
-------------------------

The raw cartesian tensor (atomic units):
   24.04771     -0.00000      0.00000  
   -0.00000     27.26769     -0.00000  
    0.00000     -0.00000     24.91981  
diagonalized tensor: 
   24.04771     24.91981     27.26769  

   -1.00000      0.00000      0.00000  
   -0.00000      0.00000     -1.00000  
    0.00000      1.00000      0.00000  

Isotropic polarizability :  25.41174


Timings for individual modules:

Sum of individual times         ...     2845.374 sec (=  47.423 min)
GTO integral calculation        ...        4.655 sec (=   0.078 min)   0.2 %
SCF iterations                  ...     1631.178 sec (=  27.186 min)  57.3 %
Solution of CP-SCF eqns.        ...     1209.541 sec (=  20.159 min)  42.5 %
                             ****ORCA TERMINATED NORMALLY****
TOTAL RUN TIME: 0 days 0 hours 47 minutes 32 seconds 610 msec
