
                                 *****************
                                 * O   R   C   A *
                                 *****************

           --- An Ab Initio, DFT and Semiempirical electronic structure package ---

                  #######################################################
                  #                        -***-                        #
                  #          Department of theory and spectroscopy      #
                  #               Directorship: Frank Neese             #
                  #        Max Planck Institute fuer Kohlenforschung    #
                  #                Kaiser Wilhelm Platz 1               #
                  #                 D-45470 Muelheim/Ruhr               #
                  #                      Germany                        #
                  #                                                     #
                  #                  All rights reserved                #
                  #                        -***-                        #
                  #######################################################


                         Program Version 4.1.2  - RELEASE  -


 With contributions from (in alphabetic order):
   Daniel Aravena         : Magnetic Properties
   Michael Atanasov       : Ab Initio Ligand Field Theory
   Alexander A. Auer      : GIAO ZORA
   Ute Becker             : Parallelization
   Giovanni Bistoni       : ED, Open-shell LED
   Martin Brehm           : Molecular dynamics
   Dmytro Bykov           : SCF Hessian
   Vijay G. Chilkuri      : MRCI spin determinant printing
   Dipayan Datta          : RHF DLPNO-CCSD density
   Achintya Kumar Dutta   : EOM-CC, STEOM-CC
   Dmitry Ganyushin       : Spin-Orbit,Spin-Spin,Magnetic field MRCI
   Miquel Garcia          : C-PCM Hessian
   Yang Guo               : DLPNO-NEVPT2, CIM, IAO-localization
   Andreas Hansen         : Spin unrestricted coupled pair/coupled cluster methods
   Benjamin Helmich-Paris : CASSCF linear response (MC-RPA)
   Lee Huntington         : MR-EOM, pCC
   Robert Izsak           : Overlap fitted RIJCOSX, COSX-SCS-MP3, EOM
   Christian Kollmar      : KDIIS, OOCD, Brueckner-CCSD(T), CCSD density
   Simone Kossmann        : Meta GGA functionals, TD-DFT gradient, OOMP2, MP2 Hessian
   Martin Krupicka        : AUTO-CI
   Lucas Lang             : DCDCAS
   Dagmar Lenk            : GEPOL surface, SMD
   Dimitrios Liakos       : Extrapolation schemes; parallel MDCI
   Dimitrios Manganas     : ROCIS; embedding schemes
   Dimitrios Pantazis     : SARC Basis sets
   Taras Petrenko         : DFT Hessian,TD-DFT gradient, ASA, ECA, R-Raman, ABS, FL, XAS/XES, NRVS
   Peter Pinski           : DLPNO-MP2, DLPNO-MP2 Gradient
   Christoph Reimann      : Effective Core Potentials
   Marius Retegan         : Local ZFS, SOC
   Christoph Riplinger    : Optimizer, TS searches, QM/MM, DLPNO-CCSD(T), (RO)-DLPNO pert. Triples
   Tobias Risthaus        : Range-separated hybrids, TD-DFT gradient, RPA, STAB
   Michael Roemelt        : Restricted open shell CIS
   Masaaki Saitow         : Open-shell DLPNO
   Barbara Sandhoefer     : DKH picture change effects
   Avijit Sen             : IP-ROCIS
   Kantharuban Sivalingam : CASSCF convergence, NEVPT2, FIC-MRCI
   Bernardo de Souza      : ESD, SOC TD-DFT
   Georgi Stoychev        : AutoAux, RI-MP2 NMR
   Willem Van den Heuvel  : Paramagnetic NMR
   Boris Wezisla          : Elementary symmetry handling
   Frank Wennmohs         : Technical directorship


 We gratefully acknowledge several colleagues who have allowed us to
 interface, adapt or use parts of their codes:
   Stefan Grimme, W. Hujo, H. Kruse,             : VdW corrections, initial TS optimization,
                  C. Bannwarth                     DFT functionals, gCP, sTDA/sTD-DF
   Ed Valeev                                     : LibInt (2-el integral package), F12 methods
   Garnet Chan, S. Sharma, J. Yang, R. Olivares  : DMRG
   Ulf Ekstrom                                   : XCFun DFT Library
   Mihaly Kallay                                 : mrcc  (arbitrary order and MRCC methods)
   Andreas Klamt, Michael Diedenhofen            : otool_cosmo (COSMO solvation model)
   Jiri Pittner, Ondrej Demel                    : Mk-CCSD
   Frank Weinhold                                : gennbo (NPA and NBO analysis)
   Christopher J. Cramer and Donald G. Truhlar   : smd solvation model
   Lars Goerigk                                  : TD-DFT with DH, B97 family of functionals
   V. Asgeirsson, H. Jonsson                     : NEB implementation
   FAccTs GmbH                                   : IRC, NEB, NEB-TS, Multilevel


 Your calculation uses the libint2 library for the computation of 2-el integrals
 For citations please refer to: http://libint.valeyev.net

 This ORCA versions uses:
   CBLAS   interface :  Fast vector & matrix operations
   LAPACKE interface :  Fast linear algebra routines
   SCALAPACK package :  Parallel linear algebra routines


----- Orbital basis set information -----
Your calculation utilizes the basis: aug-pc-4
   H, C-F              : F. Jensen, J. Chem. Phys. 115, 9113 (2001).
                         F. Jensen, J. Chem. Phys. 116, 7372 (2002).
                         F. Jensen, J. Chem. Phys. 117, 9234 (2002).
   Si-Cl               : F. Jensen, T. Helgaker, J. Chem. Phys. 121, 3463 (2004).
   He-B, Ne-Mg, Al, Ar : F. Jensen, J. Phys. Chem. A 111, 11198 (2007).
   K, Ca, Ga-Kr        : F. Jensen, J. Chem. Phys. 136, 094110 (2012).
   Sc-Zn               : F. Jensen, J. Chem. Phys. 138, 014107 (2013).

================================================================================
                                        WARNINGS
                       Please study these warnings very carefully!
================================================================================


INFO   : the flag for use of LIBINT has been found!

================================================================================
                                       INPUT FILE
================================================================================
NAME = sh2_pbe.inp
|  1> !uks pbe nori aug-pc-4 grid5 nofinalgrid verytightscf
|  2> 
|  3> %maxcore 1500
|  4> 
|  5> %pal nprocs 4 end
|  6> 
|  7> %scf
|  8> 	maxiter 200
|  9> end
| 10> %elprop
| 11> 	dipole true
| 12> 	 polar 1
| 13> 	 maxiter 200
| 14> end
| 15> 
| 16> * xyz 0 1
| 17> S 0.0000 0.0000 0.1030
| 18> H 0.0000 0.9616 -0.8239
| 19> H 0.0000 -0.9616 -0.8239
| 20> *
| 21> 
| 22>                          ****END OF INPUT****
================================================================================

                       ****************************
                       * Single Point Calculation *
                       ****************************

---------------------------------
CARTESIAN COORDINATES (ANGSTROEM)
---------------------------------
  S      0.000000    0.000000    0.103000
  H      0.000000    0.961600   -0.823900
  H      0.000000   -0.961600   -0.823900

----------------------------
CARTESIAN COORDINATES (A.U.)
----------------------------
  NO LB      ZA    FRAG     MASS         X           Y           Z
   0 S    16.0000    0    32.060    0.000000    0.000000    0.194642
   1 H     1.0000    0     1.008    0.000000    1.817161   -1.556945
   2 H     1.0000    0     1.008    0.000000   -1.817161   -1.556945

--------------------------------
INTERNAL COORDINATES (ANGSTROEM)
--------------------------------
 S      0   0   0     0.000000000000     0.00000000     0.00000000
 H      1   0   0     1.335596559594     0.00000000     0.00000000
 H      1   2   0     1.335596559594    92.10531093     0.00000000

---------------------------
INTERNAL COORDINATES (A.U.)
---------------------------
 S      0   0   0     0.000000000000     0.00000000     0.00000000
 H      1   0   0     2.523911723041     0.00000000     0.00000000
 H      1   2   0     2.523911723041    92.10531093     0.00000000

---------------------
BASIS SET INFORMATION
---------------------
There are 2 groups of distinct atoms

 Group   1 Type S   : 44s27p7d4f3g2h contracted to 8s7p7d4f3g2h pattern {15121211111/111111111/1111111/1111/111/11}
 Group   2 Type H   : 12s7p4d3f2g contracted to 8s7p4d3f2g pattern {51111111/1111111/1111/111/11}

Atom   0S    basis set group =>   1
Atom   1H    basis set group =>   2
Atom   2H    basis set group =>   2


           ************************************************************
           *        Program running with 4 parallel MPI-processes     *
           *              working on a common directory               *
           ************************************************************
------------------------------------------------------------------------------
                           ORCA GTO INTEGRAL CALCULATION
------------------------------------------------------------------------------

                         BASIS SET STATISTICS AND STARTUP INFO

 # of primitive gaussian shells          ...  143
 # of primitive gaussian functions       ...  421
 # of contracted shells                  ...   79
 # of contracted basis functions         ...  317
 Highest angular momentum                ...    5
 Maximum contraction depth               ...   15
 Integral package used                   ... LIBINT
 Integral threshhold            Thresh   ...  1.000e-12
 Primitive cut-off              TCut     ...  1.000e-14


------------------------------ INTEGRAL EVALUATION ----------------------------


 * One electron integrals 
 Pre-screening matrix                    ... done
 Shell pair data                         ... done (   0.001 sec)



           ************************************************************
           *        Program running with 4 parallel MPI-processes     *
           *              working on a common directory               *
           ************************************************************
-------------------------------------------------------------------------------
                                 ORCA SCF
-------------------------------------------------------------------------------

------------
SCF SETTINGS
------------
Hamiltonian:
 Density Functional     Method          .... DFT(GTOs)
 Exchange Functional    Exchange        .... PBE
   PBE kappa parameter   XKappa         ....  0.804000
   PBE mue parameter    XMuePBE         ....  0.219520
 Correlation Functional Correlation     .... PBE
   PBE beta parameter  CBetaPBE         ....  0.066725
 LDA part of GGA corr.  LDAOpt          .... PW91-LDA
 Gradients option       PostSCFGGA      .... off
   Density functional embedding theory  .... OFF
   NL short-range parameter             ....  6.400000


General Settings:
 Integral files         IntName         .... sh2_pbe
 Hartree-Fock type      HFTyp           .... UHF
 Total Charge           Charge          ....    0
 Multiplicity           Mult            ....    1
 Number of Electrons    NEL             ....   18
 Basis Dimension        Dim             ....  317
 Nuclear Repulsion      ENuc            ....     12.9538864084 Eh

Convergence Acceleration:
 DIIS                   CNVDIIS         .... on
   Start iteration      DIISMaxIt       ....    12
   Startup error        DIISStart       ....  0.200000
   # of expansion vecs  DIISMaxEq       ....     5
   Bias factor          DIISBfac        ....   1.050
   Max. coefficient     DIISMaxC        ....  10.000
 Newton-Raphson         CNVNR           .... off
 SOSCF                  CNVSOSCF        .... off
 Level Shifting         CNVShift        .... on
   Level shift para.    LevelShift      ....    0.2500
   Turn off err/grad.   ShiftErr        ....    0.0010
 Zerner damping         CNVZerner       .... off
 Static damping         CNVDamp         .... on
   Fraction old density DampFac         ....    0.7000
   Max. Damping (<1)    DampMax         ....    0.9800
   Min. Damping (>=0)   DampMin         ....    0.0000
   Turn off err/grad.   DampErr         ....    0.1000
 Fernandez-Rico         CNVRico         .... off

SCF Procedure:
 Maximum # iterations   MaxIter         ....   200
 SCF integral mode      SCFMode         .... Direct
   Integral package                     .... LIBINT
 Reset frequency        DirectResetFreq ....    20
 Integral Threshold     Thresh          ....  1.000e-12 Eh
 Primitive CutOff       TCut            ....  1.000e-14 Eh

Convergence Tolerance:
 Convergence Check Mode ConvCheckMode   .... Total+1el-Energy
 Convergence forced     ConvForced      .... 0
 Energy Change          TolE            ....  1.000e-09 Eh
 1-El. energy change                    ....  1.000e-06 Eh
 DIIS Error             TolErr          ....  1.000e-08


Diagonalization of the overlap matrix:
Smallest eigenvalue                        ... 4.642e-06
Time for diagonalization                   ...    0.020 sec
Threshold for overlap eigenvalues          ... 1.000e-08
Number of eigenvalues below threshold      ... 0
Time for construction of square roots      ...    0.014 sec
Total time needed                          ...    0.035 sec

-------------------
DFT GRID GENERATION
-------------------

General Integration Accuracy     IntAcc      ...  5.010
Radial Grid Type                 RadialGrid  ... Gauss-Chebyshev
Angular Grid (max. acc.)         AngularGrid ... Lebedev-434
Angular grid pruning method      GridPruning ... 3 (G Style)
Weight generation scheme         WeightScheme... Becke
Basis function cutoff            BFCut       ...    1.0000e-12
Integration weight cutoff        WCut        ...    1.0000e-14
Grids for H and He will be reduced by one unit

# of grid points (after initial pruning)     ...  25124 (   0.0 sec)
# of grid points (after weights+screening)   ...  24962 (   0.0 sec)
nearest neighbour list constructed           ...    0.0 sec
Grid point re-assignment to atoms done       ...    0.0 sec
Grid point division into batches done        ...    0.2 sec
Reduced shell lists constructed in    0.2 sec

Total number of grid points                  ...    24962
Total number of batches                      ...      392
Average number of points per batch           ...       63
Average number of grid points per atom       ...     8321
Average number of shells per batch           ...    60.11 (76.09%)
Average number of basis functions per batch  ...   247.24 (77.99%)
Average number of large shells per batch     ...    54.23 (90.22%)
Average number of large basis fcns per batch ...   225.10 (91.04%)
Maximum spatial batch extension              ...  18.71, 18.71, 15.20 au
Average spatial batch extension              ...   0.90,  0.91,  0.84 au

Time for grid setup =    0.254 sec

------------------------------
INITIAL GUESS: MODEL POTENTIAL
------------------------------
Loading Hartree-Fock densities                     ... done
Calculating cut-offs                               ... done
Setting up the integral package                    ... done
Initializing the effective Hamiltonian             ... done
Starting the Coulomb interaction                   ... done (   0.0 sec)
Reading the grid                                   ... done
Mapping shells                                     ... done
Starting the XC term evaluation                    ... done (   0.3 sec)
  promolecular density results
     # of electrons  =     17.999022880
     EX              =    -25.471614081
     EC              =     -0.664845590
     EX+EC           =    -26.136459672
Transforming the Hamiltonian                       ... done (   0.0 sec)
Diagonalizing the Hamiltonian                      ... done (   0.0 sec)
Back transforming the eigenvectors                 ... done (   0.0 sec)
Now organizing SCF variables                       ... done
                      ------------------
                      INITIAL GUESS DONE (   0.7 sec)
                      ------------------
--------------
SCF ITERATIONS
--------------
ITER       Energy         Delta-E        Max-DP      RMS-DP      [F,P]     Damp
               ***  Starting incremental Fock matrix formation  ***
  0   -399.2318885156   0.000000000000 0.01835095  0.00013106  0.0676570 0.7000
  1   -399.2368816243  -0.004993108737 0.01091721  0.00009640  0.0379591 0.7000
                               ***Turning on DIIS***
  2   -399.2391126653  -0.002231040968 0.01801267  0.00018061  0.0170824 0.0000
  3   -399.2418177287  -0.002705063364 0.01094621  0.00007057  0.0216101 0.0000
  4   -399.2428391211  -0.001021392441 0.00222010  0.00002913  0.0047549 0.0000
  5   -399.2428933781  -0.000054257003 0.00083119  0.00000718  0.0017581 0.0000
  6   -399.2428998585  -0.000006480342 0.00026789  0.00000304  0.0005176 0.0000
  7   -399.2429005255  -0.000000667014 0.00003158  0.00000038  0.0000981 0.0000
  8   -399.2429005334  -0.000000007917 0.00001294  0.00000017  0.0000185 0.0000
  9   -399.2429005339  -0.000000000544 0.00000292  0.00000003  0.0000034 0.0000
 10   -399.2429005340  -0.000000000012 0.00000350  0.00000004  0.0000004 0.0000
 11   -399.2429005340  -0.000000000005 0.00000460  0.00000003  0.0000001 0.0000
                 **** Energy Check signals convergence ****

               *****************************************************
               *                     SUCCESS                       *
               *           SCF CONVERGED AFTER  12 CYCLES          *
               *****************************************************


----------------
TOTAL SCF ENERGY
----------------

Total Energy       :         -399.24290053 Eh          -10863.95164 eV

Components:
Nuclear Repulsion  :           12.95388641 Eh             352.49317 eV
Electronic Energy  :         -412.19678694 Eh          -11216.44481 eV
One Electron Energy:         -576.92176616 Eh          -15698.83937 eV
Two Electron Energy:          164.72497921 Eh            4482.39456 eV

Virial components:
Potential Energy   :         -798.15333859 Eh          -21718.85651 eV
Kinetic Energy     :          398.91043806 Eh           10854.90487 eV
Virial Ratio       :            2.00083343


DFT components:
N(Alpha)           :        9.000000331696 electrons
N(Beta)            :        9.000000331696 electrons
N(Total)           :       18.000000663391 electrons
E(X)               :      -25.558599646748 Eh       
E(C)               :       -0.665838990729 Eh       
E(XC)              :      -26.224438637478 Eh       
DFET-embed. en.    :        0.000000000000 Eh       

---------------
SCF CONVERGENCE
---------------

  Last Energy change         ...   -1.5916e-12  Tolerance :   1.0000e-09
  Last MAX-Density change    ...    1.0848e-05  Tolerance :   1.0000e-08
  Last RMS-Density change    ...    8.4605e-08  Tolerance :   1.0000e-09
  Last DIIS Error            ...    1.3001e-08  Tolerance :   1.0000e-08

             **** THE GBW FILE WAS UPDATED (sh2_pbe.gbw) ****
             **** DENSITY FILE WAS UPDATED (sh2_pbe.scfp.tmp) ****
             **** ENERGY FILE WAS UPDATED (sh2_pbe.en.tmp) ****
----------------------
UHF SPIN CONTAMINATION
----------------------

Warning: in a DFT calculation there is little theoretical justification to 
         calculate <S**2> as in Hartree-Fock theory. We will do it anyways
         but you should keep in mind that the values have only limited relevance

Expectation value of <S**2>     :    -0.000000
Ideal value S*(S+1) for S=0.0   :     0.000000
Deviation                       :    -0.000000

----------------
ORBITAL ENERGIES
----------------
                 SPIN UP ORBITALS
  NO   OCC          E(Eh)            E(eV) 
   0   1.0000     -88.038247     -2395.6425 
   1   1.0000      -7.679288      -208.9641 
   2   1.0000      -5.700114      -155.1080 
   3   1.0000      -5.696762      -155.0168 
   4   1.0000      -5.690081      -154.8350 
   5   1.0000      -0.680979       -18.5304 
   6   1.0000      -0.406314       -11.0564 
   7   1.0000      -0.333588        -9.0774 
   8   1.0000      -0.231595        -6.3020 
   9   0.0000      -0.031619        -0.8604 
  10   0.0000      -0.022677        -0.6171 
  11   0.0000       0.013557         0.3689 
  12   0.0000       0.018202         0.4953 
  13   0.0000       0.020537         0.5588 
  14   0.0000       0.031603         0.8600 
  15   0.0000       0.046159         1.2560 
  16   0.0000       0.052739         1.4351 
  17   0.0000       0.057029         1.5518 
  18   0.0000       0.064613         1.7582 
  19   0.0000       0.068047         1.8516 
  20   0.0000       0.076799         2.0898 
  21   0.0000       0.094873         2.5816 
  22   0.0000       0.107222         2.9177 
  23   0.0000       0.116936         3.1820 
  24   0.0000       0.124888         3.3984 
  25   0.0000       0.135806         3.6955 
  26   0.0000       0.137696         3.7469 
  27   0.0000       0.138398         3.7660 
  28   0.0000       0.142273         3.8714 
  29   0.0000       0.146145         3.9768 
  30   0.0000       0.151653         4.1267 
  31   0.0000       0.172414         4.6916 
  32   0.0000       0.174786         4.7562 
  33   0.0000       0.176311         4.7977 
  34   0.0000       0.180826         4.9205 
  35   0.0000       0.196263         5.3406 
  36   0.0000       0.224645         6.1129 
  37   0.0000       0.230234         6.2650 
  38   0.0000       0.237491         6.4625 
  39   0.0000       0.245646         6.6844 
  40   0.0000       0.252824         6.8797 
  41   0.0000       0.258058         7.0221 
  42   0.0000       0.270890         7.3713 
  43   0.0000       0.272131         7.4051 
  44   0.0000       0.275487         7.4964 
  45   0.0000       0.283012         7.7011 
  46   0.0000       0.297269         8.0891 
  47   0.0000       0.300023         8.1640 
  48   0.0000       0.306803         8.3485 
  49   0.0000       0.310920         8.4606 
  50   0.0000       0.312526         8.5043 
  51   0.0000       0.317999         8.6532 
  52   0.0000       0.322085         8.7644 
  53   0.0000       0.336218         9.1489 
  54   0.0000       0.365593         9.9483 
  55   0.0000       0.367448         9.9988 
  56   0.0000       0.370081        10.0704 
  57   0.0000       0.391730        10.6595 
  58   0.0000       0.404701        11.0125 
  59   0.0000       0.410321        11.1654 
  60   0.0000       0.410428        11.1683 
  61   0.0000       0.413081        11.2405 
  62   0.0000       0.419368        11.4116 
  63   0.0000       0.426297        11.6001 
  64   0.0000       0.439969        11.9722 
  65   0.0000       0.444931        12.1072 
  66   0.0000       0.460074        12.5192 
  67   0.0000       0.471509        12.8304 
  68   0.0000       0.472961        12.8699 
  69   0.0000       0.484028        13.1711 
  70   0.0000       0.488974        13.3057 
  71   0.0000       0.502100        13.6628 
  72   0.0000       0.506285        13.7767 
  73   0.0000       0.519722        14.1424 
  74   0.0000       0.521942        14.2028 
  75   0.0000       0.529133        14.3984 
  76   0.0000       0.538383        14.6502 
  77   0.0000       0.548461        14.9244 
  78   0.0000       0.550531        14.9807 
  79   0.0000       0.569123        15.4866 
  80   0.0000       0.576608        15.6903 
  81   0.0000       0.579117        15.7586 
  82   0.0000       0.589474        16.0404 
  83   0.0000       0.609709        16.5910 
  84   0.0000       0.624212        16.9857 
  85   0.0000       0.628387        17.0993 
  86   0.0000       0.633682        17.2434 
  87   0.0000       0.641412        17.4537 
  88   0.0000       0.645098        17.5540 
  89   0.0000       0.647575        17.6214 
  90   0.0000       0.655444        17.8355 
  91   0.0000       0.664911        18.0931 
  92   0.0000       0.665070        18.0975 
  93   0.0000       0.667080        18.1522 
  94   0.0000       0.668057        18.1787 
  95   0.0000       0.683096        18.5880 
  96   0.0000       0.705213        19.1898 
  97   0.0000       0.707515        19.2525 
  98   0.0000       0.708728        19.2855 
  99   0.0000       0.709799        19.3146 
 100   0.0000       0.733765        19.9668 
 101   0.0000       0.741848        20.1867 
 102   0.0000       0.754421        20.5288 
 103   0.0000       0.766990        20.8709 
 104   0.0000       0.776545        21.1309 
 105   0.0000       0.779008        21.1979 
 106   0.0000       0.784907        21.3584 
 107   0.0000       0.785043        21.3621 
 108   0.0000       0.806666        21.9505 
 109   0.0000       0.814772        22.1711 
 110   0.0000       0.821733        22.3605 
 111   0.0000       0.822563        22.3831 
 112   0.0000       0.824092        22.4247 
 113   0.0000       0.843460        22.9517 
 114   0.0000       0.854620        23.2554 
 115   0.0000       0.861064        23.4308 
 116   0.0000       0.866317        23.5737 
 117   0.0000       0.895884        24.3783 
 118   0.0000       0.938646        25.5419 
 119   0.0000       0.967023        26.3140 
 120   0.0000       0.967473        26.3263 
 121   0.0000       1.021403        27.7938 
 122   0.0000       1.028940        27.9989 
 123   0.0000       1.033546        28.1242 
 124   0.0000       1.068558        29.0769 
 125   0.0000       1.174466        31.9588 
 126   0.0000       1.236663        33.6513 
 127   0.0000       1.251716        34.0609 
 128   0.0000       1.304168        35.4882 
 129   0.0000       1.307327        35.5742 
 130   0.0000       1.321736        35.9663 
 131   0.0000       1.356168        36.9032 
 132   0.0000       1.361811        37.0568 
 133   0.0000       1.375445        37.4278 
 134   0.0000       1.384036        37.6615 
 135   0.0000       1.419310        38.6214 
 136   0.0000       1.454353        39.5750 
 137   0.0000       1.461554        39.7709 
 138   0.0000       1.469949        39.9993 
 139   0.0000       1.474043        40.1107 
 140   0.0000       1.481799        40.3218 
 141   0.0000       1.497312        40.7439 
 142   0.0000       1.512334        41.1527 
 143   0.0000       1.563284        42.5391 
 144   0.0000       1.580099        42.9967 
 145   0.0000       1.750645        47.6375 
 146   0.0000       1.756196        47.7885 
 147   0.0000       1.778993        48.4089 
 148   0.0000       1.805524        49.1308 
 149   0.0000       1.807823        49.1934 
 150   0.0000       1.860918        50.6381 
 151   0.0000       2.253629        61.3244 
 152   0.0000       2.284191        62.1560 
 153   0.0000       2.302988        62.6675 
 154   0.0000       2.312210        62.9184 
 155   0.0000       2.313256        62.9469 
 156   0.0000       2.394117        65.1472 
 157   0.0000       2.451821        66.7174 
 158   0.0000       2.536411        69.0193 
 159   0.0000       2.631585        71.6091 
 160   0.0000       2.665095        72.5209 
 161   0.0000       2.761329        75.1396 
 162   0.0000       2.769648        75.3660 
 163   0.0000       2.801156        76.2233 
 164   0.0000       2.829787        77.0024 
 165   0.0000       3.006979        81.8241 
 166   0.0000       3.050954        83.0207 
 167   0.0000       3.073764        83.6414 
 168   0.0000       3.078008        83.7569 
 169   0.0000       3.180074        86.5342 
 170   0.0000       3.254336        88.5550 
 171   0.0000       3.255003        88.5731 
 172   0.0000       3.274608        89.1066 
 173   0.0000       3.302607        89.8685 
 174   0.0000       3.331481        90.6542 
 175   0.0000       3.334468        90.7355 
 176   0.0000       3.347435        91.0883 
 177   0.0000       3.374845        91.8342 
 178   0.0000       3.381285        92.0094 
 179   0.0000       3.397711        92.4564 
 180   0.0000       3.439138        93.5837 
 181   0.0000       3.467796        94.3635 
 182   0.0000       3.506297        95.4112 
 183   0.0000       3.526670        95.9656 
 184   0.0000       3.576906        97.3326 
 185   0.0000       3.596775        97.8732 
 186   0.0000       3.718443       101.1840 
 187   0.0000       3.720076       101.2284 
 188   0.0000       3.734305       101.6156 
 189   0.0000       3.764589       102.4397 
 190   0.0000       3.876186       105.4764 
 191   0.0000       3.928654       106.9041 
 192   0.0000       3.951623       107.5291 
 193   0.0000       3.964554       107.8810 
 194   0.0000       3.965004       107.8932 
 195   0.0000       4.011048       109.1462 
 196   0.0000       4.150010       112.9275 
 197   0.0000       4.173455       113.5655 
 198   0.0000       4.247374       115.5769 
 199   0.0000       4.453843       121.1952 
 200   0.0000       4.517701       122.9329 
 201   0.0000       4.741857       129.0325 
 202   0.0000       5.026102       136.7672 
 203   0.0000       5.112205       139.1102 
 204   0.0000       5.134152       139.7074 
 205   0.0000       5.185741       141.1112 
 206   0.0000       5.368169       146.0753 
 207   0.0000       5.398603       146.9035 
 208   0.0000       5.460428       148.5858 
 209   0.0000       5.465208       148.7159 
 210   0.0000       5.482578       149.1885 
 211   0.0000       5.702090       155.1617 
 212   0.0000       5.712941       155.4570 
 213   0.0000       5.806981       158.0160 
 214   0.0000       5.817486       158.3018 
 215   0.0000       5.838325       158.8689 
 216   0.0000       6.078621       165.4077 
 217   0.0000       6.094148       165.8302 
 218   0.0000       6.168942       167.8655 
 219   0.0000       6.277436       170.8177 
 220   0.0000       6.434620       175.0949 
 221   0.0000       6.654810       181.0866 
 222   0.0000       6.686247       181.9420 
 223   0.0000       6.807628       185.2450 
 224   0.0000       7.267449       197.7574 
 225   0.0000       7.664505       208.5618 
 226   0.0000       8.286168       225.4781 
 227   0.0000       8.286785       225.4949 
 228   0.0000       8.306002       226.0178 
 229   0.0000       8.327385       226.5997 
 230   0.0000       8.357483       227.4187 
 231   0.0000       8.369142       227.7359 
 232   0.0000       8.426655       229.3009 
 233   0.0000       8.548864       232.6264 
 234   0.0000       8.592868       233.8238 
 235   0.0000       8.648864       235.3476 
 236   0.0000       8.655913       235.5394 
 237   0.0000       8.682244       236.2559 
 238   0.0000       8.782991       238.9973 
 239   0.0000       8.788394       239.1444 
 240   0.0000       8.858048       241.0397 
 241   0.0000       8.878538       241.5973 
 242   0.0000       8.890671       241.9274 
 243   0.0000       9.134537       248.5634 
 244   0.0000       9.153302       249.0740 
 245   0.0000       9.165599       249.4086 
 246   0.0000       9.234700       251.2890 
 247   0.0000       9.246992       251.6234 
 248   0.0000       9.541872       259.6475 
 249   0.0000       9.919415       269.9210 
 250   0.0000      10.012887       272.4645 
 251   0.0000      11.643417       316.8335 
 252   0.0000      11.655458       317.1611 
 253   0.0000      11.815468       321.5152 
 254   0.0000      11.972190       325.7799 
 255   0.0000      12.009370       326.7916 
 256   0.0000      12.044721       327.7535 
 257   0.0000      12.171243       331.1964 
 258   0.0000      12.228299       332.7489 
 259   0.0000      12.281241       334.1895 
 260   0.0000      12.289937       334.4262 
 261   0.0000      12.324963       335.3793 
 262   0.0000      12.339768       335.7822 
 263   0.0000      12.396500       337.3259 
 264   0.0000      12.480418       339.6094 
 265   0.0000      12.550729       341.5227 
 266   0.0000      12.554512       341.6256 
 267   0.0000      12.781286       347.7965 
 268   0.0000      13.012445       354.0866 
 269   0.0000      13.026338       354.4647 
 270   0.0000      13.030759       354.5850 
 271   0.0000      13.363766       363.6466 
 272   0.0000      13.838225       376.5573 
 273   0.0000      14.117055       384.1446 
 274   0.0000      16.682882       453.9643 
 275   0.0000      16.689543       454.1455 
 276   0.0000      16.692061       454.2141 
 277   0.0000      16.692252       454.2193 
 278   0.0000      16.692456       454.2248 
 279   0.0000      16.743334       455.6093 
 280   0.0000      16.756376       455.9642 
 281   0.0000      16.787243       456.8041 
 282   0.0000      16.795530       457.0296 
 283   0.0000      16.807314       457.3503 
 284   0.0000      16.836234       458.1372 
 285   0.0000      17.128455       466.0889 
 286   0.0000      17.138657       466.3666 
 287   0.0000      17.246515       469.3015 
 288   0.0000      17.317565       471.2349 
 289   0.0000      17.455012       474.9750 
 290   0.0000      17.645565       480.1602 
 291   0.0000      18.107838       492.7393 
 292   0.0000      18.256158       496.7753 
 293   0.0000      18.256800       496.7928 
 294   0.0000      18.481925       502.9188 
 295   0.0000      18.788757       511.2681 
 296   0.0000      19.908055       541.7257 
 297   0.0000      23.222222       631.9088 
 298   0.0000      23.252315       632.7276 
 299   0.0000      23.284120       633.5931 
 300   0.0000      23.306617       634.2053 
 301   0.0000      24.084095       655.3616 
 302   0.0000      24.164969       657.5622 
 303   0.0000      32.029667       871.5716 
 304   0.0000      39.849608      1084.3630 
 305   0.0000      40.041658      1089.5889 
 306   0.0000      62.522820      1701.3324 
 307   0.0000      62.531489      1701.5683 
 308   0.0000      62.624422      1704.0972 
 309   0.0000      62.840736      1709.9834 
 310   0.0000      63.495513      1727.8008 
 311   0.0000      90.842916      2471.9614 
 312   0.0000      90.862832      2472.5034 
 313   0.0000      90.891507      2473.2836 
 314   0.0000      90.896583      2473.4218 
 315   0.0000      91.432667      2488.0093 
 316   0.0000      91.597977      2492.5077 

                 SPIN DOWN ORBITALS
  NO   OCC          E(Eh)            E(eV) 
   0   1.0000     -88.038247     -2395.6425 
   1   1.0000      -7.679288      -208.9641 
   2   1.0000      -5.700114      -155.1080 
   3   1.0000      -5.696762      -155.0168 
   4   1.0000      -5.690081      -154.8350 
   5   1.0000      -0.680979       -18.5304 
   6   1.0000      -0.406314       -11.0564 
   7   1.0000      -0.333588        -9.0774 
   8   1.0000      -0.231595        -6.3020 
   9   0.0000      -0.031619        -0.8604 
  10   0.0000      -0.022677        -0.6171 
  11   0.0000       0.013557         0.3689 
  12   0.0000       0.018202         0.4953 
  13   0.0000       0.020537         0.5588 
  14   0.0000       0.031603         0.8600 
  15   0.0000       0.046159         1.2560 
  16   0.0000       0.052739         1.4351 
  17   0.0000       0.057029         1.5518 
  18   0.0000       0.064613         1.7582 
  19   0.0000       0.068047         1.8516 
  20   0.0000       0.076799         2.0898 
  21   0.0000       0.094873         2.5816 
  22   0.0000       0.107222         2.9177 
  23   0.0000       0.116936         3.1820 
  24   0.0000       0.124888         3.3984 
  25   0.0000       0.135806         3.6955 
  26   0.0000       0.137696         3.7469 
  27   0.0000       0.138398         3.7660 
  28   0.0000       0.142273         3.8714 
  29   0.0000       0.146145         3.9768 
  30   0.0000       0.151653         4.1267 
  31   0.0000       0.172414         4.6916 
  32   0.0000       0.174786         4.7562 
  33   0.0000       0.176311         4.7977 
  34   0.0000       0.180826         4.9205 
  35   0.0000       0.196263         5.3406 
  36   0.0000       0.224645         6.1129 
  37   0.0000       0.230234         6.2650 
  38   0.0000       0.237491         6.4625 
  39   0.0000       0.245646         6.6844 
  40   0.0000       0.252824         6.8797 
  41   0.0000       0.258058         7.0221 
  42   0.0000       0.270890         7.3713 
  43   0.0000       0.272131         7.4051 
  44   0.0000       0.275487         7.4964 
  45   0.0000       0.283012         7.7011 
  46   0.0000       0.297269         8.0891 
  47   0.0000       0.300023         8.1640 
  48   0.0000       0.306803         8.3485 
  49   0.0000       0.310920         8.4606 
  50   0.0000       0.312526         8.5043 
  51   0.0000       0.317999         8.6532 
  52   0.0000       0.322085         8.7644 
  53   0.0000       0.336218         9.1489 
  54   0.0000       0.365593         9.9483 
  55   0.0000       0.367448         9.9988 
  56   0.0000       0.370081        10.0704 
  57   0.0000       0.391730        10.6595 
  58   0.0000       0.404701        11.0125 
  59   0.0000       0.410321        11.1654 
  60   0.0000       0.410428        11.1683 
  61   0.0000       0.413081        11.2405 
  62   0.0000       0.419368        11.4116 
  63   0.0000       0.426297        11.6001 
  64   0.0000       0.439969        11.9722 
  65   0.0000       0.444931        12.1072 
  66   0.0000       0.460074        12.5192 
  67   0.0000       0.471509        12.8304 
  68   0.0000       0.472961        12.8699 
  69   0.0000       0.484028        13.1711 
  70   0.0000       0.488974        13.3057 
  71   0.0000       0.502100        13.6628 
  72   0.0000       0.506285        13.7767 
  73   0.0000       0.519722        14.1424 
  74   0.0000       0.521942        14.2028 
  75   0.0000       0.529133        14.3984 
  76   0.0000       0.538383        14.6502 
  77   0.0000       0.548461        14.9244 
  78   0.0000       0.550531        14.9807 
  79   0.0000       0.569123        15.4866 
  80   0.0000       0.576608        15.6903 
  81   0.0000       0.579117        15.7586 
  82   0.0000       0.589474        16.0404 
  83   0.0000       0.609709        16.5910 
  84   0.0000       0.624212        16.9857 
  85   0.0000       0.628387        17.0993 
  86   0.0000       0.633682        17.2434 
  87   0.0000       0.641412        17.4537 
  88   0.0000       0.645098        17.5540 
  89   0.0000       0.647575        17.6214 
  90   0.0000       0.655444        17.8355 
  91   0.0000       0.664911        18.0931 
  92   0.0000       0.665070        18.0975 
  93   0.0000       0.667080        18.1522 
  94   0.0000       0.668057        18.1787 
  95   0.0000       0.683096        18.5880 
  96   0.0000       0.705213        19.1898 
  97   0.0000       0.707515        19.2525 
  98   0.0000       0.708728        19.2855 
  99   0.0000       0.709799        19.3146 
 100   0.0000       0.733765        19.9668 
 101   0.0000       0.741848        20.1867 
 102   0.0000       0.754421        20.5288 
 103   0.0000       0.766990        20.8709 
 104   0.0000       0.776545        21.1309 
 105   0.0000       0.779008        21.1979 
 106   0.0000       0.784907        21.3584 
 107   0.0000       0.785043        21.3621 
 108   0.0000       0.806666        21.9505 
 109   0.0000       0.814772        22.1711 
 110   0.0000       0.821733        22.3605 
 111   0.0000       0.822563        22.3831 
 112   0.0000       0.824092        22.4247 
 113   0.0000       0.843460        22.9517 
 114   0.0000       0.854620        23.2554 
 115   0.0000       0.861064        23.4308 
 116   0.0000       0.866317        23.5737 
 117   0.0000       0.895884        24.3783 
 118   0.0000       0.938646        25.5419 
 119   0.0000       0.967023        26.3140 
 120   0.0000       0.967473        26.3263 
 121   0.0000       1.021403        27.7938 
 122   0.0000       1.028940        27.9989 
 123   0.0000       1.033546        28.1242 
 124   0.0000       1.068558        29.0769 
 125   0.0000       1.174466        31.9588 
 126   0.0000       1.236663        33.6513 
 127   0.0000       1.251716        34.0609 
 128   0.0000       1.304168        35.4882 
 129   0.0000       1.307327        35.5742 
 130   0.0000       1.321736        35.9663 
 131   0.0000       1.356168        36.9032 
 132   0.0000       1.361811        37.0568 
 133   0.0000       1.375445        37.4278 
 134   0.0000       1.384036        37.6615 
 135   0.0000       1.419310        38.6214 
 136   0.0000       1.454353        39.5750 
 137   0.0000       1.461554        39.7709 
 138   0.0000       1.469949        39.9993 
 139   0.0000       1.474043        40.1107 
 140   0.0000       1.481799        40.3218 
 141   0.0000       1.497312        40.7439 
 142   0.0000       1.512334        41.1527 
 143   0.0000       1.563284        42.5391 
 144   0.0000       1.580099        42.9967 
 145   0.0000       1.750645        47.6375 
 146   0.0000       1.756196        47.7885 
 147   0.0000       1.778993        48.4089 
 148   0.0000       1.805524        49.1308 
 149   0.0000       1.807823        49.1934 
 150   0.0000       1.860918        50.6381 
 151   0.0000       2.253629        61.3244 
 152   0.0000       2.284191        62.1560 
 153   0.0000       2.302988        62.6675 
 154   0.0000       2.312210        62.9184 
 155   0.0000       2.313256        62.9469 
 156   0.0000       2.394117        65.1472 
 157   0.0000       2.451821        66.7174 
 158   0.0000       2.536411        69.0193 
 159   0.0000       2.631585        71.6091 
 160   0.0000       2.665095        72.5209 
 161   0.0000       2.761329        75.1396 
 162   0.0000       2.769648        75.3660 
 163   0.0000       2.801156        76.2233 
 164   0.0000       2.829787        77.0024 
 165   0.0000       3.006979        81.8241 
 166   0.0000       3.050954        83.0207 
 167   0.0000       3.073764        83.6414 
 168   0.0000       3.078008        83.7569 
 169   0.0000       3.180074        86.5342 
 170   0.0000       3.254336        88.5550 
 171   0.0000       3.255003        88.5731 
 172   0.0000       3.274608        89.1066 
 173   0.0000       3.302607        89.8685 
 174   0.0000       3.331481        90.6542 
 175   0.0000       3.334468        90.7355 
 176   0.0000       3.347435        91.0883 
 177   0.0000       3.374845        91.8342 
 178   0.0000       3.381285        92.0094 
 179   0.0000       3.397711        92.4564 
 180   0.0000       3.439138        93.5837 
 181   0.0000       3.467796        94.3635 
 182   0.0000       3.506297        95.4112 
 183   0.0000       3.526670        95.9656 
 184   0.0000       3.576906        97.3326 
 185   0.0000       3.596775        97.8732 
 186   0.0000       3.718443       101.1840 
 187   0.0000       3.720076       101.2284 
 188   0.0000       3.734305       101.6156 
 189   0.0000       3.764589       102.4397 
 190   0.0000       3.876186       105.4764 
 191   0.0000       3.928654       106.9041 
 192   0.0000       3.951623       107.5291 
 193   0.0000       3.964554       107.8810 
 194   0.0000       3.965004       107.8932 
 195   0.0000       4.011048       109.1462 
 196   0.0000       4.150010       112.9275 
 197   0.0000       4.173455       113.5655 
 198   0.0000       4.247374       115.5769 
 199   0.0000       4.453843       121.1952 
 200   0.0000       4.517701       122.9329 
 201   0.0000       4.741857       129.0325 
 202   0.0000       5.026102       136.7672 
 203   0.0000       5.112205       139.1102 
 204   0.0000       5.134152       139.7074 
 205   0.0000       5.185741       141.1112 
 206   0.0000       5.368169       146.0753 
 207   0.0000       5.398603       146.9035 
 208   0.0000       5.460428       148.5858 
 209   0.0000       5.465208       148.7159 
 210   0.0000       5.482578       149.1885 
 211   0.0000       5.702090       155.1617 
 212   0.0000       5.712941       155.4570 
 213   0.0000       5.806981       158.0160 
 214   0.0000       5.817486       158.3018 
 215   0.0000       5.838325       158.8689 
 216   0.0000       6.078621       165.4077 
 217   0.0000       6.094148       165.8302 
 218   0.0000       6.168942       167.8655 
 219   0.0000       6.277436       170.8177 
 220   0.0000       6.434620       175.0949 
 221   0.0000       6.654810       181.0866 
 222   0.0000       6.686247       181.9420 
 223   0.0000       6.807628       185.2450 
 224   0.0000       7.267449       197.7574 
 225   0.0000       7.664505       208.5618 
 226   0.0000       8.286168       225.4781 
 227   0.0000       8.286785       225.4949 
 228   0.0000       8.306002       226.0178 
 229   0.0000       8.327385       226.5997 
 230   0.0000       8.357483       227.4187 
 231   0.0000       8.369142       227.7359 
 232   0.0000       8.426655       229.3009 
 233   0.0000       8.548864       232.6264 
 234   0.0000       8.592868       233.8238 
 235   0.0000       8.648864       235.3476 
 236   0.0000       8.655913       235.5394 
 237   0.0000       8.682244       236.2559 
 238   0.0000       8.782991       238.9973 
 239   0.0000       8.788394       239.1444 
 240   0.0000       8.858048       241.0397 
 241   0.0000       8.878538       241.5973 
 242   0.0000       8.890671       241.9274 
 243   0.0000       9.134537       248.5634 
 244   0.0000       9.153302       249.0740 
 245   0.0000       9.165599       249.4086 
 246   0.0000       9.234700       251.2890 
 247   0.0000       9.246992       251.6234 
 248   0.0000       9.541872       259.6475 
 249   0.0000       9.919415       269.9210 
 250   0.0000      10.012887       272.4645 
 251   0.0000      11.643417       316.8335 
 252   0.0000      11.655458       317.1611 
 253   0.0000      11.815468       321.5152 
 254   0.0000      11.972190       325.7799 
 255   0.0000      12.009370       326.7916 
 256   0.0000      12.044721       327.7535 
 257   0.0000      12.171243       331.1964 
 258   0.0000      12.228299       332.7489 
 259   0.0000      12.281241       334.1895 
 260   0.0000      12.289937       334.4262 
 261   0.0000      12.324963       335.3793 
 262   0.0000      12.339768       335.7822 
 263   0.0000      12.396500       337.3259 
 264   0.0000      12.480418       339.6094 
 265   0.0000      12.550729       341.5227 
 266   0.0000      12.554512       341.6256 
 267   0.0000      12.781286       347.7965 
 268   0.0000      13.012445       354.0866 
 269   0.0000      13.026338       354.4647 
 270   0.0000      13.030759       354.5850 
 271   0.0000      13.363766       363.6466 
 272   0.0000      13.838225       376.5573 
 273   0.0000      14.117055       384.1446 
 274   0.0000      16.682882       453.9643 
 275   0.0000      16.689543       454.1455 
 276   0.0000      16.692061       454.2141 
 277   0.0000      16.692252       454.2193 
 278   0.0000      16.692456       454.2248 
 279   0.0000      16.743334       455.6093 
 280   0.0000      16.756376       455.9642 
 281   0.0000      16.787243       456.8041 
 282   0.0000      16.795530       457.0296 
 283   0.0000      16.807314       457.3503 
 284   0.0000      16.836234       458.1372 
 285   0.0000      17.128455       466.0889 
 286   0.0000      17.138657       466.3666 
 287   0.0000      17.246515       469.3015 
 288   0.0000      17.317565       471.2349 
 289   0.0000      17.455012       474.9750 
 290   0.0000      17.645565       480.1602 
 291   0.0000      18.107838       492.7393 
 292   0.0000      18.256158       496.7753 
 293   0.0000      18.256800       496.7928 
 294   0.0000      18.481925       502.9188 
 295   0.0000      18.788757       511.2681 
 296   0.0000      19.908055       541.7257 
 297   0.0000      23.222222       631.9088 
 298   0.0000      23.252315       632.7276 
 299   0.0000      23.284120       633.5931 
 300   0.0000      23.306617       634.2053 
 301   0.0000      24.084095       655.3616 
 302   0.0000      24.164969       657.5622 
 303   0.0000      32.029667       871.5716 
 304   0.0000      39.849608      1084.3630 
 305   0.0000      40.041658      1089.5889 
 306   0.0000      62.522820      1701.3324 
 307   0.0000      62.531489      1701.5683 
 308   0.0000      62.624422      1704.0972 
 309   0.0000      62.840736      1709.9834 
 310   0.0000      63.495513      1727.8008 
 311   0.0000      90.842916      2471.9614 
 312   0.0000      90.862832      2472.5034 
 313   0.0000      90.891507      2473.2836 
 314   0.0000      90.896583      2473.4218 
 315   0.0000      91.432667      2488.0093 
 316   0.0000      91.597977      2492.5077 

                    ********************************
                    * MULLIKEN POPULATION ANALYSIS *
                    ********************************

--------------------------------------------
MULLIKEN ATOMIC CHARGES AND SPIN POPULATIONS
--------------------------------------------
   0 S :   -0.136676   -0.000000
   1 H :    0.068340   -0.000000
   2 H :    0.068335    0.000000
Sum of atomic charges         :   -0.0000000
Sum of atomic spin populations:   -0.0000000

-----------------------------------------------------
MULLIKEN REDUCED ORBITAL CHARGES AND SPIN POPULATIONS
-----------------------------------------------------
CHARGE
  0 S s       :     5.889562  s :     5.889562
      pz      :     3.234002  p :    10.162240
      px      :     3.888119
      py      :     3.040120
      dz2     :     0.006178  d :     0.078689
      dxz     :     0.002561
      dyz     :     0.060755
      dx2y2   :     0.009195
      dxy     :    -0.000000
      f0      :     0.000067  f :     0.005558
      f+1     :     0.000060
      f-1     :     0.002128
      f+2     :     0.002416
      f-2     :    -0.000000
      f+3     :     0.000218
      f-3     :     0.000670
      g0      :     0.000114  g :     0.000561
      g+1     :    -0.000003
      g-1     :     0.000027
      g+2     :     0.000203
      g-2     :     0.000000
      g+3     :     0.000016
      g-3     :     0.000177
      g+4     :     0.000028
      g-4     :    -0.000000
      h0      :     0.000014  h :     0.000066
      h+1     :     0.000000
      h-1     :    -0.000004
      h+2     :     0.000010
      h-2     :    -0.000000
      h+3     :     0.000002
      h-3     :     0.000031
      h+4     :     0.000009
      h-4     :    -0.000000
      h+5     :     0.000001
      h-5     :     0.000003
  1 H s       :     0.851538  s :     0.851538
      pz      :     0.014433  p :     0.081460
      px      :     0.053317
      py      :     0.013710
      dz2     :     0.001759  d :     0.002000
      dxz     :     0.003251
      dyz     :    -0.000516
      dx2y2   :    -0.002783
      dxy     :     0.000289
      f0      :     0.000782  f :    -0.002876
      f+1     :     0.000505
      f-1     :    -0.000845
      f+2     :    -0.000051
      f-2     :    -0.001409
      f+3     :    -0.000983
      f-3     :    -0.000876
      g0      :    -0.000084  g :    -0.000463
      g+1     :     0.000019
      g-1     :     0.000185
      g+2     :     0.000011
      g-2     :    -0.000046
      g+3     :    -0.000342
      g-3     :    -0.000045
      g+4     :    -0.000071
      g-4     :    -0.000089
  2 H s       :     0.851542  s :     0.851542
      pz      :     0.014433  p :     0.081461
      px      :     0.053317
      py      :     0.013711
      dz2     :     0.001759  d :     0.002000
      dxz     :     0.003251
      dyz     :    -0.000516
      dx2y2   :    -0.002783
      dxy     :     0.000289
      f0      :     0.000782  f :    -0.002876
      f+1     :     0.000505
      f-1     :    -0.000845
      f+2     :    -0.000051
      f-2     :    -0.001409
      f+3     :    -0.000983
      f-3     :    -0.000876
      g0      :    -0.000084  g :    -0.000463
      g+1     :     0.000019
      g-1     :     0.000185
      g+2     :     0.000011
      g-2     :    -0.000046
      g+3     :    -0.000342
      g-3     :    -0.000045
      g+4     :    -0.000071
      g-4     :    -0.000089

SPIN
  0 S s       :    -0.000000  s :    -0.000000
      pz      :    -0.000000  p :    -0.000000
      px      :     0.000000
      py      :     0.000000
      dz2     :    -0.000000  d :    -0.000000
      dxz     :    -0.000000
      dyz     :    -0.000000
      dx2y2   :    -0.000000
      dxy     :    -0.000000
      f0      :     0.000000  f :    -0.000000
      f+1     :    -0.000000
      f-1     :    -0.000000
      f+2     :     0.000000
      f-2     :     0.000000
      f+3     :    -0.000000
      f-3     :     0.000000
      g0      :     0.000000  g :     0.000000
      g+1     :     0.000000
      g-1     :    -0.000000
      g+2     :     0.000000
      g-2     :    -0.000000
      g+3     :     0.000000
      g-3     :     0.000000
      g+4     :    -0.000000
      g-4     :    -0.000000
      h0      :     0.000000  h :     0.000000
      h+1     :    -0.000000
      h-1     :    -0.000000
      h+2     :     0.000000
      h-2     :     0.000000
      h+3     :     0.000000
      h-3     :     0.000000
      h+4     :    -0.000000
      h-4     :    -0.000000
      h+5     :     0.000000
      h-5     :     0.000000
  1 H s       :    -0.000000  s :    -0.000000
      pz      :    -0.000000  p :    -0.000000
      px      :     0.000000
      py      :    -0.000000
      dz2     :     0.000000  d :    -0.000000
      dxz     :     0.000000
      dyz     :    -0.000000
      dx2y2   :    -0.000000
      dxy     :    -0.000000
      f0      :     0.000000  f :     0.000000
      f+1     :    -0.000000
      f-1     :     0.000000
      f+2     :     0.000000
      f-2     :    -0.000000
      f+3     :    -0.000000
      f-3     :    -0.000000
      g0      :     0.000000  g :     0.000000
      g+1     :    -0.000000
      g-1     :     0.000000
      g+2     :     0.000000
      g-2     :    -0.000000
      g+3     :    -0.000000
      g-3     :    -0.000000
      g+4     :    -0.000000
      g-4     :    -0.000000
  2 H s       :     0.000000  s :     0.000000
      pz      :     0.000000  p :     0.000000
      px      :     0.000000
      py      :     0.000000
      dz2     :    -0.000000  d :    -0.000000
      dxz     :    -0.000000
      dyz     :    -0.000000
      dx2y2   :     0.000000
      dxy     :     0.000000
      f0      :     0.000000  f :    -0.000000
      f+1     :     0.000000
      f-1     :    -0.000000
      f+2     :    -0.000000
      f-2     :    -0.000000
      f+3     :     0.000000
      f-3     :     0.000000
      g0      :    -0.000000  g :    -0.000000
      g+1     :     0.000000
      g-1     :    -0.000000
      g+2     :    -0.000000
      g-2     :    -0.000000
      g+3     :    -0.000000
      g-3     :    -0.000000
      g+4     :    -0.000000
      g-4     :     0.000000


                     *******************************
                     * LOEWDIN POPULATION ANALYSIS *
                     *******************************

-------------------------------------------
LOEWDIN ATOMIC CHARGES AND SPIN POPULATIONS
-------------------------------------------
   0 S :    1.832903   -0.000000
   1 H :   -0.916451   -0.000000
   2 H :   -0.916451    0.000000

----------------------------------------------------
LOEWDIN REDUCED ORBITAL CHARGES AND SPIN POPULATIONS
----------------------------------------------------
CHARGE
  0 S s       :     4.892859  s :     4.892859
      pz      :     3.048153  p :     9.109119
      px      :     3.235308
      py      :     2.825658
      dz2     :     0.005621  d :     0.129527
      dxz     :     0.002671
      dyz     :     0.099018
      dx2y2   :     0.022217
      dxy     :     0.000000
      f0      :     0.002337  f :     0.029473
      f+1     :     0.000298
      f-1     :     0.013510
      f+2     :     0.011386
      f-2     :    -0.000000
      f+3     :     0.000628
      f-3     :     0.001314
      g0      :     0.000677  g :     0.004680
      g+1     :     0.000004
      g-1     :     0.000733
      g+2     :     0.001384
      g-2     :     0.000000
      g+3     :     0.000575
      g-3     :     0.000955
      g+4     :     0.000351
      g-4     :     0.000000
      h0      :     0.000120  h :     0.001440
      h+1     :     0.000004
      h-1     :     0.000173
      h+2     :     0.000338
      h-2     :     0.000000
      h+3     :     0.000298
      h-3     :     0.000320
      h+4     :     0.000109
      h-4     :     0.000000
      h+5     :     0.000017
      h-5     :     0.000061
  1 H s       :     0.790605  s :     0.790605
      pz      :     0.201395  p :     0.553473
      px      :     0.179447
      py      :     0.172632
      dz2     :     0.087642  d :     0.394221
      dxz     :     0.063448
      dyz     :     0.097615
      dx2y2   :     0.067294
      dxy     :     0.078222
      f0      :     0.007066  f :     0.136942
      f+1     :     0.004556
      f-1     :     0.046787
      f+2     :     0.018907
      f-2     :     0.027689
      f+3     :     0.013048
      f-3     :     0.018889
      g0      :     0.002277  g :     0.041211
      g+1     :     0.000047
      g-1     :     0.006209
      g+2     :     0.010475
      g-2     :     0.004341
      g+3     :     0.007468
      g-3     :     0.003155
      g+4     :     0.005406
      g-4     :     0.001833
  2 H s       :     0.790605  s :     0.790605
      pz      :     0.201395  p :     0.553473
      px      :     0.179447
      py      :     0.172632
      dz2     :     0.087642  d :     0.394221
      dxz     :     0.063448
      dyz     :     0.097615
      dx2y2   :     0.067294
      dxy     :     0.078222
      f0      :     0.007066  f :     0.136942
      f+1     :     0.004556
      f-1     :     0.046787
      f+2     :     0.018907
      f-2     :     0.027689
      f+3     :     0.013048
      f-3     :     0.018889
      g0      :     0.002277  g :     0.041211
      g+1     :     0.000047
      g-1     :     0.006209
      g+2     :     0.010475
      g-2     :     0.004341
      g+3     :     0.007468
      g-3     :     0.003155
      g+4     :     0.005406
      g-4     :     0.001833

SPIN
  0 S s       :    -0.000000  s :    -0.000000
      pz      :    -0.000000  p :    -0.000000
      px      :    -0.000000
      py      :    -0.000000
      dz2     :    -0.000000  d :     0.000000
      dxz     :     0.000000
      dyz     :     0.000000
      dx2y2   :    -0.000000
      dxy     :    -0.000000
      f0      :     0.000000  f :    -0.000000
      f+1     :     0.000000
      f-1     :    -0.000000
      f+2     :    -0.000000
      f-2     :    -0.000000
      f+3     :     0.000000
      f-3     :     0.000000
      g0      :     0.000000  g :     0.000000
      g+1     :    -0.000000
      g-1     :    -0.000000
      g+2     :     0.000000
      g-2     :    -0.000000
      g+3     :     0.000000
      g-3     :     0.000000
      g+4     :    -0.000000
      g-4     :    -0.000000
      h0      :     0.000000  h :    -0.000000
      h+1     :    -0.000000
      h-1     :    -0.000000
      h+2     :    -0.000000
      h-2     :    -0.000000
      h+3     :    -0.000000
      h-3     :    -0.000000
      h+4     :     0.000000
      h-4     :     0.000000
      h+5     :    -0.000000
      h-5     :    -0.000000
  1 H s       :    -0.000000  s :    -0.000000
      pz      :    -0.000000  p :     0.000000
      px      :    -0.000000
      py      :     0.000000
      dz2     :    -0.000000  d :    -0.000000
      dxz     :    -0.000000
      dyz     :     0.000000
      dx2y2   :    -0.000000
      dxy     :     0.000000
      f0      :     0.000000  f :    -0.000000
      f+1     :    -0.000000
      f-1     :     0.000000
      f+2     :    -0.000000
      f-2     :     0.000000
      f+3     :    -0.000000
      f-3     :    -0.000000
      g0      :     0.000000  g :     0.000000
      g+1     :    -0.000000
      g-1     :    -0.000000
      g+2     :     0.000000
      g-2     :     0.000000
      g+3     :     0.000000
      g-3     :    -0.000000
      g+4     :    -0.000000
      g-4     :    -0.000000
  2 H s       :     0.000000  s :     0.000000
      pz      :    -0.000000  p :     0.000000
      px      :     0.000000
      py      :     0.000000
      dz2     :    -0.000000  d :    -0.000000
      dxz     :     0.000000
      dyz     :    -0.000000
      dx2y2   :    -0.000000
      dxy     :     0.000000
      f0      :     0.000000  f :    -0.000000
      f+1     :    -0.000000
      f-1     :    -0.000000
      f+2     :    -0.000000
      f-2     :    -0.000000
      f+3     :    -0.000000
      f-3     :     0.000000
      g0      :     0.000000  g :    -0.000000
      g+1     :    -0.000000
      g-1     :    -0.000000
      g+2     :     0.000000
      g-2     :     0.000000
      g+3     :     0.000000
      g-3     :    -0.000000
      g+4     :    -0.000000
      g-4     :    -0.000000


                      *****************************
                      * MAYER POPULATION ANALYSIS *
                      *****************************

  NA   - Mulliken gross atomic population
  ZA   - Total nuclear charge
  QA   - Mulliken gross atomic charge
  VA   - Mayer's total valence
  BVA  - Mayer's bonded valence
  FA   - Mayer's free valence

  ATOM       NA         ZA         QA         VA         BVA        FA
  0 S     16.1367    16.0000    -0.1367     2.0679     2.0679    -0.0000
  1 H      0.9317     1.0000     0.0683     1.0576     1.0576    -0.0000
  2 H      0.9317     1.0000     0.0683     1.0576     1.0576    -0.0000

  Mayer bond orders larger than 0.1
B(  0-S ,  1-H ) :   1.0340 B(  0-S ,  2-H ) :   1.0340 

-------
TIMINGS
-------

Total SCF time: 0 days 0 hours 6 min 26 sec 

Total time                  ....     386.409 sec
Sum of individual times     ....     383.829 sec  ( 99.3%)

Fock matrix formation       ....     381.746 sec  ( 98.8%)
  XC integration            ....       8.263 sec  (  2.2% of F)
    Basis function eval.    ....       0.652 sec  (  7.9% of XC)
    Density eval.           ....       1.699 sec  ( 20.6% of XC)
    XC-Functional eval.     ....       0.101 sec  (  1.2% of XC)
    XC-Potential eval.      ....       5.301 sec  ( 64.2% of XC)
Diagonalization             ....       0.798 sec  (  0.2%)
Density matrix formation    ....       0.016 sec  (  0.0%)
Population analysis         ....       0.100 sec  (  0.0%)
Initial guess               ....       0.477 sec  (  0.1%)
Orbital Transformation      ....       0.000 sec  (  0.0%)
Orbital Orthonormalization  ....       0.000 sec  (  0.0%)
DIIS solution               ....       0.438 sec  (  0.1%)
Grid generation             ....       0.254 sec  (  0.1%)

-------------------------   --------------------
FINAL SINGLE POINT ENERGY      -399.242900533963
-------------------------   --------------------


                            ***************************************
                            *     ORCA property calculations      *
                            ***************************************

                                    ---------------------
                                    Active property flags
                                    ---------------------
   (+) Dipole Moment
   (+) Polarizability


------------------------------------------------------------------------------
                       ORCA ELECTRIC PROPERTIES CALCULATION
------------------------------------------------------------------------------

Dipole Moment Calculation                       ... on
Quadrupole Moment Calculation                   ... off
Polarizability Calculation                      ... Analytic (CP-SCF)
GBWName                                         ... sh2_pbe.gbw
Electron density file                           ... sh2_pbe.scfp.tmp
The origin for moment calculation is the CENTER OF MASS  = ( 0.000000,  0.000000  0.091015)

-------------
DIPOLE MOMENT
-------------
                                X             Y             Z
Electronic contribution:      0.00000      -0.00000       1.25801
Nuclear contribution   :      0.00000       0.00000      -1.63789
                        -----------------------------------------
Total Dipole Moment    :      0.00000      -0.00000      -0.37988
                        -----------------------------------------
Magnitude (a.u.)       :      0.37988
Magnitude (Debye)      :      0.96557



--------------------
Rotational spectrum 
--------------------
 
Rotational constants in cm-1:    10.344886     9.043103     4.825145 
Rotational constants in MHz : 310131.873993 271105.399200 144654.221918 

 Dipole components along the rotational axes: 
x,y,z [a.u.] :    -0.000000    -0.379878     0.000000 
x,y,z [Debye]:    -0.000000    -0.965572     0.000000 

 
Transforming and storing MO dipole integrals   ... done

                ... starting polarizability calculation

Opening the Dipole integral file               ... (sh2_pbe.dmo.tmp) done
Reading Dipole-MO integrals                    ... done
Solving CP-SCF equations                       ... 

           ************************************************************
           *        Program running with 4 parallel MPI-processes     *
           *              working on a common directory               *
           ************************************************************

------------------------------------------------------------------------------
                           ORCA CP-SCF CALCULATION
------------------------------------------------------------------------------

Input orbitals are from        ... sh2_pbe.gbw
Input Perturbation             ... sh2_pbe.cpv.tmp
Wavefunction output            ... sh2_pbe.cpu.tmp
Perturbation mode              ... Real perturbation (singlet)
Solver                         ... POPLE
Max. number of iterations      ... 200
Convergence tolerance          ... 1.000e-06
Integral handling              ... Direct
Number of perturbations        ... 3
Number of operators            ... 2
Orbital ranges used for CP-SCF:
 Operator 0:  Orbitals   0...  8  to   9...316
 Operator 1:  Orbitals   0...  8  to   9...316
DFT calculation                         ... on
Exchange functional (SCF)               ... PBE
Exchange functional (CP-SCF)            ... PBE
   PBE kappa parameter  XKappa (SCF)    ...  0.804000
   PBE kappa parameter  XKappa (CP-SCF) ...  0.804000
   PBE mue parameter   XMuePBE (SCF)    ...  0.219520
   PBE mue parameter   XMuePBE (CP-SCF) ...  0.219520
Correlation functional (SCF)            ... PBE
Correlation functional (CP-SCF)         ... PBE
   PBE beta parameter CBetaPBE (SCF)    ...  0.066725
   PBE beta parameter CBetaPBE (CP-SCF) ...  0.066725
 LDA part of GGA corr.  LDAOpt (SCF)    ... PW91-LDA
 LDA part of GGA corr.  LDAOpt (CP-SCF) ... PW91-LDA
Variables per vector in CP-SCF ... 5544
Number of vectors sought       ... 3
Recalculating density on grid  ... done
Calculating the xc-kernel      ... done
     CP-SCF ITERATION   0: 
     CP-SCF ITERATION   1:      0.110940632311
     CP-SCF ITERATION   2:      0.003780429239
     CP-SCF ITERATION   3:      0.000045243461
     CP-SCF ITERATION   4:      0.000000286705
done
Reading CP-SCF coefficients                    ... done
Doing the polarizability tensor   ... done
Cleaning up                                    ... done

-------------------------
THE POLARIZABILITY TENSOR
-------------------------

The raw cartesian tensor (atomic units):
   26.83545      0.00000      0.00000  
    0.00000     25.31774     -0.00000  
    0.00000     -0.00000     25.45933  
diagonalized tensor: 
   25.31774     25.45933     26.83545  

   -0.00000      0.00000     -1.00000  
    1.00000      0.00000     -0.00000  
    0.00000     -1.00000     -0.00000  

Isotropic polarizability :  25.87084


Timings for individual modules:

Sum of individual times         ...      616.977 sec (=  10.283 min)
GTO integral calculation        ...        1.447 sec (=   0.024 min)   0.2 %
SCF iterations                  ...      386.728 sec (=   6.445 min)  62.7 %
Solution of CP-SCF eqns.        ...      228.802 sec (=   3.813 min)  37.1 %
                             ****ORCA TERMINATED NORMALLY****
TOTAL RUN TIME: 0 days 0 hours 10 minutes 17 seconds 667 msec
