
                                 *****************
                                 * O   R   C   A *
                                 *****************

           --- An Ab Initio, DFT and Semiempirical electronic structure package ---

                  #######################################################
                  #                        -***-                        #
                  #          Department of theory and spectroscopy      #
                  #               Directorship: Frank Neese             #
                  #        Max Planck Institute fuer Kohlenforschung    #
                  #                Kaiser Wilhelm Platz 1               #
                  #                 D-45470 Muelheim/Ruhr               #
                  #                      Germany                        #
                  #                                                     #
                  #                  All rights reserved                #
                  #                        -***-                        #
                  #######################################################


                         Program Version 4.1.2  - RELEASE  -


 With contributions from (in alphabetic order):
   Daniel Aravena         : Magnetic Properties
   Michael Atanasov       : Ab Initio Ligand Field Theory
   Alexander A. Auer      : GIAO ZORA
   Ute Becker             : Parallelization
   Giovanni Bistoni       : ED, Open-shell LED
   Martin Brehm           : Molecular dynamics
   Dmytro Bykov           : SCF Hessian
   Vijay G. Chilkuri      : MRCI spin determinant printing
   Dipayan Datta          : RHF DLPNO-CCSD density
   Achintya Kumar Dutta   : EOM-CC, STEOM-CC
   Dmitry Ganyushin       : Spin-Orbit,Spin-Spin,Magnetic field MRCI
   Miquel Garcia          : C-PCM Hessian
   Yang Guo               : DLPNO-NEVPT2, CIM, IAO-localization
   Andreas Hansen         : Spin unrestricted coupled pair/coupled cluster methods
   Benjamin Helmich-Paris : CASSCF linear response (MC-RPA)
   Lee Huntington         : MR-EOM, pCC
   Robert Izsak           : Overlap fitted RIJCOSX, COSX-SCS-MP3, EOM
   Christian Kollmar      : KDIIS, OOCD, Brueckner-CCSD(T), CCSD density
   Simone Kossmann        : Meta GGA functionals, TD-DFT gradient, OOMP2, MP2 Hessian
   Martin Krupicka        : AUTO-CI
   Lucas Lang             : DCDCAS
   Dagmar Lenk            : GEPOL surface, SMD
   Dimitrios Liakos       : Extrapolation schemes; parallel MDCI
   Dimitrios Manganas     : ROCIS; embedding schemes
   Dimitrios Pantazis     : SARC Basis sets
   Taras Petrenko         : DFT Hessian,TD-DFT gradient, ASA, ECA, R-Raman, ABS, FL, XAS/XES, NRVS
   Peter Pinski           : DLPNO-MP2, DLPNO-MP2 Gradient
   Christoph Reimann      : Effective Core Potentials
   Marius Retegan         : Local ZFS, SOC
   Christoph Riplinger    : Optimizer, TS searches, QM/MM, DLPNO-CCSD(T), (RO)-DLPNO pert. Triples
   Tobias Risthaus        : Range-separated hybrids, TD-DFT gradient, RPA, STAB
   Michael Roemelt        : Restricted open shell CIS
   Masaaki Saitow         : Open-shell DLPNO
   Barbara Sandhoefer     : DKH picture change effects
   Avijit Sen             : IP-ROCIS
   Kantharuban Sivalingam : CASSCF convergence, NEVPT2, FIC-MRCI
   Bernardo de Souza      : ESD, SOC TD-DFT
   Georgi Stoychev        : AutoAux, RI-MP2 NMR
   Willem Van den Heuvel  : Paramagnetic NMR
   Boris Wezisla          : Elementary symmetry handling
   Frank Wennmohs         : Technical directorship


 We gratefully acknowledge several colleagues who have allowed us to
 interface, adapt or use parts of their codes:
   Stefan Grimme, W. Hujo, H. Kruse,             : VdW corrections, initial TS optimization,
                  C. Bannwarth                     DFT functionals, gCP, sTDA/sTD-DF
   Ed Valeev                                     : LibInt (2-el integral package), F12 methods
   Garnet Chan, S. Sharma, J. Yang, R. Olivares  : DMRG
   Ulf Ekstrom                                   : XCFun DFT Library
   Mihaly Kallay                                 : mrcc  (arbitrary order and MRCC methods)
   Andreas Klamt, Michael Diedenhofen            : otool_cosmo (COSMO solvation model)
   Jiri Pittner, Ondrej Demel                    : Mk-CCSD
   Frank Weinhold                                : gennbo (NPA and NBO analysis)
   Christopher J. Cramer and Donald G. Truhlar   : smd solvation model
   Lars Goerigk                                  : TD-DFT with DH, B97 family of functionals
   V. Asgeirsson, H. Jonsson                     : NEB implementation
   FAccTs GmbH                                   : IRC, NEB, NEB-TS, Multilevel


 Your calculation uses the libint2 library for the computation of 2-el integrals
 For citations please refer to: http://libint.valeyev.net

 This ORCA versions uses:
   CBLAS   interface :  Fast vector & matrix operations
   LAPACKE interface :  Fast linear algebra routines
   SCALAPACK package :  Parallel linear algebra routines


----- Orbital basis set information -----
Your calculation utilizes the basis: aug-pc-4
   H, C-F              : F. Jensen, J. Chem. Phys. 115, 9113 (2001).
                         F. Jensen, J. Chem. Phys. 116, 7372 (2002).
                         F. Jensen, J. Chem. Phys. 117, 9234 (2002).
   Si-Cl               : F. Jensen, T. Helgaker, J. Chem. Phys. 121, 3463 (2004).
   He-B, Ne-Mg, Al, Ar : F. Jensen, J. Phys. Chem. A 111, 11198 (2007).
   K, Ca, Ga-Kr        : F. Jensen, J. Chem. Phys. 136, 094110 (2012).
   Sc-Zn               : F. Jensen, J. Chem. Phys. 138, 014107 (2013).

================================================================================
                                        WARNINGS
                       Please study these warnings very carefully!
================================================================================


INFO   : the flag for use of LIBINT has been found!

================================================================================
                                       INPUT FILE
================================================================================
NAME = sih3f_pbe.inp
|  1> !uks pbe nori aug-pc-4 grid5 nofinalgrid verytightscf
|  2> 
|  3> %maxcore 1500
|  4> 
|  5> %pal nprocs 4 end
|  6> 
|  7> %scf
|  8> 	maxiter 200
|  9> end
| 10> %elprop
| 11> 	dipole true
| 12> 	 polar 1
| 13> 	 maxiter 200
| 14> end
| 15> 
| 16> * xyz 0 1
| 17> Si 0.0000 0.0000 0.4986
| 18> F 0.0000 0.0000 -1.0959
| 19> H 0.0000 1.4017 0.9613
| 20> H -1.2139 -0.7008 0.9613
| 21> H 1.2139 -0.7008 0.9613
| 22> *
| 23> 
| 24>                          ****END OF INPUT****
================================================================================

                       ****************************
                       * Single Point Calculation *
                       ****************************

---------------------------------
CARTESIAN COORDINATES (ANGSTROEM)
---------------------------------
  Si     0.000000    0.000000    0.498600
  F      0.000000    0.000000   -1.095900
  H      0.000000    1.401700    0.961300
  H     -1.213900   -0.700800    0.961300
  H      1.213900   -0.700800    0.961300

----------------------------
CARTESIAN COORDINATES (A.U.)
----------------------------
  NO LB      ZA    FRAG     MASS         X           Y           Z
   0 Si   14.0000    0    28.086    0.000000    0.000000    0.942217
   1 F     9.0000    0    18.998    0.000000    0.000000   -2.070951
   2 H     1.0000    0     1.008    0.000000    2.648829    1.816594
   3 H     1.0000    0     1.008   -2.293939   -1.324320    1.816594
   4 H     1.0000    0     1.008    2.293939   -1.324320    1.816594

--------------------------------
INTERNAL COORDINATES (ANGSTROEM)
--------------------------------
 Si     0   0   0     0.000000000000     0.00000000     0.00000000
 F      1   0   0     1.594500000000     0.00000000     0.00000000
 H      1   2   0     1.476094231409   108.26801357     0.00000000
 H      1   2   3     1.476064070425   108.26840003   119.99838957
 H      1   2   3     1.476064070425   108.26840003   240.00161043

---------------------------
INTERNAL COORDINATES (A.U.)
---------------------------
 Si     0   0   0     0.000000000000     0.00000000     0.00000000
 F      1   0   0     3.013168320537     0.00000000     0.00000000
 H      1   2   0     2.789413845225   108.26801357     0.00000000
 H      1   2   3     2.789356849225   108.26840003   119.99838957
 H      1   2   3     2.789356849225   108.26840003   240.00161043

---------------------
BASIS SET INFORMATION
---------------------
There are 3 groups of distinct atoms

 Group   1 Type Si  : 44s27p7d4f3g2h contracted to 8s7p7d4f3g2h pattern {15121211111/111111111/1111111/1111/111/11}
 Group   2 Type F   : 27s12p7d4f3g2h contracted to 9s8p7d4f3g2h pattern {1191111111/51111111/1111111/1111/111/11}
 Group   3 Type H   : 12s7p4d3f2g contracted to 8s7p4d3f2g pattern {51111111/1111111/1111/111/11}

Atom   0Si   basis set group =>   1
Atom   1F    basis set group =>   2
Atom   2H    basis set group =>   3
Atom   3H    basis set group =>   3
Atom   4H    basis set group =>   3


           ************************************************************
           *        Program running with 4 parallel MPI-processes     *
           *              working on a common directory               *
           ************************************************************
------------------------------------------------------------------------------
                           ORCA GTO INTEGRAL CALCULATION
------------------------------------------------------------------------------

                         BASIS SET STATISTICS AND STARTUP INFO

 # of primitive gaussian shells          ...  226
 # of primitive gaussian functions       ...  688
 # of contracted shells                  ...  136
 # of contracted basis functions         ...  550
 Highest angular momentum                ...    5
 Maximum contraction depth               ...   15
 Integral package used                   ... LIBINT
 Integral threshhold            Thresh   ...  1.000e-12
 Primitive cut-off              TCut     ...  1.000e-14


------------------------------ INTEGRAL EVALUATION ----------------------------


 * One electron integrals 
 Pre-screening matrix                    ... done
 Shell pair data                         ... done (   0.003 sec)



           ************************************************************
           *        Program running with 4 parallel MPI-processes     *
           *              working on a common directory               *
           ************************************************************
-------------------------------------------------------------------------------
                                 ORCA SCF
-------------------------------------------------------------------------------

------------
SCF SETTINGS
------------
Hamiltonian:
 Density Functional     Method          .... DFT(GTOs)
 Exchange Functional    Exchange        .... PBE
   PBE kappa parameter   XKappa         ....  0.804000
   PBE mue parameter    XMuePBE         ....  0.219520
 Correlation Functional Correlation     .... PBE
   PBE beta parameter  CBetaPBE         ....  0.066725
 LDA part of GGA corr.  LDAOpt          .... PW91-LDA
 Gradients option       PostSCFGGA      .... off
   Density functional embedding theory  .... OFF
   NL short-range parameter             ....  6.400000


General Settings:
 Integral files         IntName         .... sih3f_pbe
 Hartree-Fock type      HFTyp           .... UHF
 Total Charge           Charge          ....    0
 Multiplicity           Mult            ....    1
 Number of Electrons    NEL             ....   26
 Basis Dimension        Dim             ....  550
 Nuclear Repulsion      ENuc            ....     63.2670891225 Eh

Convergence Acceleration:
 DIIS                   CNVDIIS         .... on
   Start iteration      DIISMaxIt       ....    12
   Startup error        DIISStart       ....  0.200000
   # of expansion vecs  DIISMaxEq       ....     5
   Bias factor          DIISBfac        ....   1.050
   Max. coefficient     DIISMaxC        ....  10.000
 Newton-Raphson         CNVNR           .... off
 SOSCF                  CNVSOSCF        .... off
 Level Shifting         CNVShift        .... on
   Level shift para.    LevelShift      ....    0.2500
   Turn off err/grad.   ShiftErr        ....    0.0010
 Zerner damping         CNVZerner       .... off
 Static damping         CNVDamp         .... on
   Fraction old density DampFac         ....    0.7000
   Max. Damping (<1)    DampMax         ....    0.9800
   Min. Damping (>=0)   DampMin         ....    0.0000
   Turn off err/grad.   DampErr         ....    0.1000
 Fernandez-Rico         CNVRico         .... off

SCF Procedure:
 Maximum # iterations   MaxIter         ....   200
 SCF integral mode      SCFMode         .... Direct
   Integral package                     .... LIBINT
 Reset frequency        DirectResetFreq ....    20
 Integral Threshold     Thresh          ....  1.000e-12 Eh
 Primitive CutOff       TCut            ....  1.000e-14 Eh

Convergence Tolerance:
 Convergence Check Mode ConvCheckMode   .... Total+1el-Energy
 Convergence forced     ConvForced      .... 0
 Energy Change          TolE            ....  1.000e-09 Eh
 1-El. energy change                    ....  1.000e-06 Eh
 DIIS Error             TolErr          ....  1.000e-08


Diagonalization of the overlap matrix:
Smallest eigenvalue                        ... 1.283e-06
Time for diagonalization                   ...    0.074 sec
Threshold for overlap eigenvalues          ... 1.000e-08
Number of eigenvalues below threshold      ... 0
Time for construction of square roots      ...    0.057 sec
Total time needed                          ...    0.132 sec

-------------------
DFT GRID GENERATION
-------------------

General Integration Accuracy     IntAcc      ...  5.010
Radial Grid Type                 RadialGrid  ... Gauss-Chebyshev
Angular Grid (max. acc.)         AngularGrid ... Lebedev-434
Angular grid pruning method      GridPruning ... 3 (G Style)
Weight generation scheme         WeightScheme... Becke
Basis function cutoff            BFCut       ...    1.0000e-12
Integration weight cutoff        WCut        ...    1.0000e-14
Grids for H and He will be reduced by one unit

# of grid points (after initial pruning)     ...  42526 (   0.0 sec)
# of grid points (after weights+screening)   ...  41564 (   0.0 sec)
nearest neighbour list constructed           ...    0.0 sec
Grid point re-assignment to atoms done       ...    0.0 sec
Grid point division into batches done        ...    0.3 sec
Reduced shell lists constructed in    0.5 sec

Total number of grid points                  ...    41564
Total number of batches                      ...      653
Average number of points per batch           ...       63
Average number of grid points per atom       ...     8313
Average number of shells per batch           ...    98.48 (72.41%)
Average number of basis functions per batch  ...   414.44 (75.35%)
Average number of large shells per batch     ...    87.13 (88.48%)
Average number of large basis fcns per batch ...   367.42 (88.66%)
Maximum spatial batch extension              ...  18.91, 19.21, 16.76 au
Average spatial batch extension              ...   0.73,  0.74,  0.66 au

Time for grid setup =    0.513 sec

------------------------------
INITIAL GUESS: MODEL POTENTIAL
------------------------------
Loading Hartree-Fock densities                     ... done
Calculating cut-offs                               ... done
Setting up the integral package                    ... done
Initializing the effective Hamiltonian             ... done
Starting the Coulomb interaction                   ... done (   0.1 sec)
Reading the grid                                   ... done
Mapping shells                                     ... done
Starting the XC term evaluation                    ... done (   1.2 sec)
  promolecular density results
     # of electrons  =     25.998530693
     EX              =    -31.093397468
     EC              =     -0.907448309
     EX+EC           =    -32.000845777
Transforming the Hamiltonian                       ... done (   0.0 sec)
Diagonalizing the Hamiltonian                      ... done (   0.1 sec)
Back transforming the eigenvectors                 ... done (   0.0 sec)
Now organizing SCF variables                       ... done
                      ------------------
                      INITIAL GUESS DONE (   2.0 sec)
                      ------------------
--------------
SCF ITERATIONS
--------------
ITER       Energy         Delta-E        Max-DP      RMS-DP      [F,P]     Damp
               ***  Starting incremental Fock matrix formation  ***
  0   -390.9697442612   0.000000000000 0.01161923  0.00011395  0.2004571 0.7000
  1   -390.9870692138  -0.017324952633 0.01077346  0.00008478  0.0576833 0.7000
                               ***Turning on DIIS***
  2   -390.9924203496  -0.005351135759 0.02483683  0.00017385  0.0256616 0.0000
  3   -391.0051601887  -0.012739839065 0.00598601  0.00004728  0.0243831 0.0000
  4   -391.0054562357  -0.000296047039 0.00223975  0.00001389  0.0249004 0.0000
  5   -391.0058428615  -0.000386625793 0.00091950  0.00000490  0.0045340 0.0000
  6   -391.0058668146  -0.000023953156 0.00013475  0.00000199  0.0007391 0.0000
  7   -391.0058678737  -0.000001059075 0.00012741  0.00000079  0.0001145 0.0000
  8   -391.0058679006  -0.000000026888 0.00003235  0.00000018  0.0000440 0.0000
  9   -391.0058679057  -0.000000005087 0.00000790  0.00000004  0.0000030 0.0000
 10   -391.0058679057  -0.000000000034 0.00000990  0.00000005  0.0000010 0.0000
 11   -391.0058679057  -0.000000000000 0.00006374  0.00000019  0.0000001 0.0000
 12   -391.0058679057   0.000000000022 0.00001361  0.00000006  0.0000001 0.0000
                 **** Energy Check signals convergence ****

               *****************************************************
               *                     SUCCESS                       *
               *           SCF CONVERGED AFTER  13 CYCLES          *
               *****************************************************


----------------
TOTAL SCF ENERGY
----------------

Total Energy       :         -391.00586791 Eh          -10639.81058 eV

Components:
Nuclear Repulsion  :           63.26708912 Eh            1721.58502 eV
Electronic Energy  :         -454.27295703 Eh          -12361.39560 eV
One Electron Energy:         -668.39017888 Eh          -18187.82142 eV
Two Electron Energy:          214.11722185 Eh            5826.42582 eV

Virial components:
Potential Energy   :         -781.51158352 Eh          -21266.01133 eV
Kinetic Energy     :          390.50571561 Eh           10626.20075 eV
Virial Ratio       :            2.00128078


DFT components:
N(Alpha)           :       12.999999107025 electrons
N(Beta)            :       12.999999107025 electrons
N(Total)           :       25.999998214050 electrons
E(X)               :      -31.371495519456 Eh       
E(C)               :       -0.905250709846 Eh       
E(XC)              :      -32.276746229302 Eh       
DFET-embed. en.    :        0.000000000000 Eh       

---------------
SCF CONVERGENCE
---------------

  Last Energy change         ...    1.1198e-11  Tolerance :   1.0000e-09
  Last MAX-Density change    ...    7.7642e-06  Tolerance :   1.0000e-08
  Last RMS-Density change    ...    3.4201e-08  Tolerance :   1.0000e-09
  Last DIIS Error            ...    3.8057e-08  Tolerance :   1.0000e-08

             **** THE GBW FILE WAS UPDATED (sih3f_pbe.gbw) ****
             **** DENSITY FILE WAS UPDATED (sih3f_pbe.scfp.tmp) ****
             **** ENERGY FILE WAS UPDATED (sih3f_pbe.en.tmp) ****
----------------------
UHF SPIN CONTAMINATION
----------------------

Warning: in a DFT calculation there is little theoretical justification to 
         calculate <S**2> as in Hartree-Fock theory. We will do it anyways
         but you should keep in mind that the values have only limited relevance

Expectation value of <S**2>     :     0.000000
Ideal value S*(S+1) for S=0.0   :     0.000000
Deviation                       :     0.000000

----------------
ORBITAL ENERGIES
----------------
                 SPIN UP ORBITALS
  NO   OCC          E(Eh)            E(eV) 
   0   1.0000     -65.414418     -1780.0168 
   1   1.0000     -24.250760      -659.8967 
   2   1.0000      -5.078234      -138.1858 
   3   1.0000      -3.489692       -94.9594 
   4   1.0000      -3.486315       -94.8675 
   5   1.0000      -3.486315       -94.8674 
   6   1.0000      -1.090773       -29.6814 
   7   1.0000      -0.510141       -13.8817 
   8   1.0000      -0.406954       -11.0738 
   9   1.0000      -0.395032       -10.7494 
  10   1.0000      -0.395030       -10.7493 
  11   1.0000      -0.306631        -8.3438 
  12   1.0000      -0.306624        -8.3437 
  13   0.0000      -0.044955        -1.2233 
  14   0.0000      -0.014032        -0.3818 
  15   0.0000       0.006103         0.1661 
  16   0.0000       0.006106         0.1662 
  17   0.0000       0.014413         0.3922 
  18   0.0000       0.014415         0.3923 
  19   0.0000       0.020386         0.5547 
  20   0.0000       0.034887         0.9493 
  21   0.0000       0.036893         1.0039 
  22   0.0000       0.036893         1.0039 
  23   0.0000       0.047299         1.2871 
  24   0.0000       0.051926         1.4130 
  25   0.0000       0.051926         1.4130 
  26   0.0000       0.062616         1.7039 
  27   0.0000       0.062617         1.7039 
  28   0.0000       0.074668         2.0318 
  29   0.0000       0.084977         2.3123 
  30   0.0000       0.090938         2.4745 
  31   0.0000       0.090938         2.4745 
  32   0.0000       0.102442         2.7876 
  33   0.0000       0.103616         2.8195 
  34   0.0000       0.103617         2.8196 
  35   0.0000       0.112261         3.0548 
  36   0.0000       0.113146         3.0789 
  37   0.0000       0.113147         3.0789 
  38   0.0000       0.126014         3.4290 
  39   0.0000       0.132872         3.6156 
  40   0.0000       0.132872         3.6156 
  41   0.0000       0.135714         3.6930 
  42   0.0000       0.152893         4.1604 
  43   0.0000       0.152894         4.1605 
  44   0.0000       0.159729         4.3464 
  45   0.0000       0.166865         4.5406 
  46   0.0000       0.166866         4.5406 
  47   0.0000       0.172117         4.6835 
  48   0.0000       0.176257         4.7962 
  49   0.0000       0.184508         5.0207 
  50   0.0000       0.184509         5.0207 
  51   0.0000       0.187758         5.1092 
  52   0.0000       0.201594         5.4856 
  53   0.0000       0.201597         5.4857 
  54   0.0000       0.209196         5.6925 
  55   0.0000       0.214383         5.8337 
  56   0.0000       0.214386         5.8337 
  57   0.0000       0.219298         5.9674 
  58   0.0000       0.223878         6.0920 
  59   0.0000       0.223878         6.0920 
  60   0.0000       0.242046         6.5864 
  61   0.0000       0.250356         6.8125 
  62   0.0000       0.250358         6.8126 
  63   0.0000       0.258071         7.0225 
  64   0.0000       0.258071         7.0225 
  65   0.0000       0.275381         7.4935 
  66   0.0000       0.278721         7.5844 
  67   0.0000       0.278723         7.5844 
  68   0.0000       0.289193         7.8693 
  69   0.0000       0.296387         8.0651 
  70   0.0000       0.296499         8.0682 
  71   0.0000       0.296500         8.0682 
  72   0.0000       0.308698         8.4001 
  73   0.0000       0.308699         8.4001 
  74   0.0000       0.312870         8.5136 
  75   0.0000       0.315016         8.5720 
  76   0.0000       0.315022         8.5722 
  77   0.0000       0.328605         8.9418 
  78   0.0000       0.336415         9.1543 
  79   0.0000       0.336421         9.1545 
  80   0.0000       0.340791         9.2734 
  81   0.0000       0.342133         9.3099 
  82   0.0000       0.347931         9.4677 
  83   0.0000       0.347932         9.4677 
  84   0.0000       0.374041        10.1782 
  85   0.0000       0.374044        10.1783 
  86   0.0000       0.374771        10.1980 
  87   0.0000       0.383913        10.4468 
  88   0.0000       0.383915        10.4469 
  89   0.0000       0.388542        10.5728 
  90   0.0000       0.410177        11.1615 
  91   0.0000       0.416878        11.3438 
  92   0.0000       0.416878        11.3438 
  93   0.0000       0.434872        11.8335 
  94   0.0000       0.443461        12.0672 
  95   0.0000       0.451765        12.2932 
  96   0.0000       0.451772        12.2933 
  97   0.0000       0.459432        12.5018 
  98   0.0000       0.461987        12.5713 
  99   0.0000       0.461993        12.5715 
 100   0.0000       0.471322        12.8253 
 101   0.0000       0.471329        12.8255 
 102   0.0000       0.474606        12.9147 
 103   0.0000       0.478151        13.0112 
 104   0.0000       0.479034        13.0352 
 105   0.0000       0.479044        13.0354 
 106   0.0000       0.490282        13.3412 
 107   0.0000       0.490284        13.3413 
 108   0.0000       0.492472        13.4008 
 109   0.0000       0.502874        13.6839 
 110   0.0000       0.502881        13.6841 
 111   0.0000       0.505114        13.7449 
 112   0.0000       0.505120        13.7450 
 113   0.0000       0.532567        14.4919 
 114   0.0000       0.539850        14.6901 
 115   0.0000       0.539859        14.6903 
 116   0.0000       0.549265        14.9463 
 117   0.0000       0.553368        15.0579 
 118   0.0000       0.553372        15.0580 
 119   0.0000       0.563195        15.3253 
 120   0.0000       0.570516        15.5245 
 121   0.0000       0.570526        15.5248 
 122   0.0000       0.582783        15.8583 
 123   0.0000       0.596586        16.2339 
 124   0.0000       0.598331        16.2814 
 125   0.0000       0.600836        16.3496 
 126   0.0000       0.600844        16.3498 
 127   0.0000       0.608775        16.5656 
 128   0.0000       0.608786        16.5659 
 129   0.0000       0.640382        17.4257 
 130   0.0000       0.640642        17.4328 
 131   0.0000       0.640643        17.4328 
 132   0.0000       0.661978        18.0133 
 133   0.0000       0.665821        18.1179 
 134   0.0000       0.665822        18.1179 
 135   0.0000       0.674626        18.3575 
 136   0.0000       0.680708        18.5230 
 137   0.0000       0.692674        18.8486 
 138   0.0000       0.692685        18.8489 
 139   0.0000       0.708805        19.2876 
 140   0.0000       0.711922        19.3724 
 141   0.0000       0.711926        19.3725 
 142   0.0000       0.724990        19.7280 
 143   0.0000       0.724995        19.7281 
 144   0.0000       0.737824        20.0772 
 145   0.0000       0.741675        20.1820 
 146   0.0000       0.741678        20.1821 
 147   0.0000       0.742755        20.2114 
 148   0.0000       0.764384        20.8000 
 149   0.0000       0.764399        20.8004 
 150   0.0000       0.769921        20.9506 
 151   0.0000       0.785675        21.3793 
 152   0.0000       0.785703        21.3801 
 153   0.0000       0.792984        21.5782 
 154   0.0000       0.807755        21.9801 
 155   0.0000       0.807770        21.9805 
 156   0.0000       0.818332        22.2680 
 157   0.0000       0.818352        22.2685 
 158   0.0000       0.820557        22.3285 
 159   0.0000       0.822024        22.3684 
 160   0.0000       0.852405        23.1951 
 161   0.0000       0.861674        23.4473 
 162   0.0000       0.861676        23.4474 
 163   0.0000       0.881275        23.9807 
 164   0.0000       0.881697        23.9922 
 165   0.0000       0.881700        23.9923 
 166   0.0000       0.887465        24.1491 
 167   0.0000       0.902524        24.5589 
 168   0.0000       0.902526        24.5590 
 169   0.0000       0.908670        24.7262 
 170   0.0000       0.917236        24.9593 
 171   0.0000       0.917237        24.9593 
 172   0.0000       0.939121        25.5548 
 173   0.0000       0.941718        25.6255 
 174   0.0000       0.941723        25.6256 
 175   0.0000       0.949004        25.8237 
 176   0.0000       0.949012        25.8239 
 177   0.0000       0.972624        26.4665 
 178   0.0000       0.972642        26.4669 
 179   0.0000       0.990891        26.9635 
 180   0.0000       1.015134        27.6232 
 181   0.0000       1.027748        27.9665 
 182   0.0000       1.027750        27.9665 
 183   0.0000       1.040648        28.3175 
 184   0.0000       1.046660        28.4811 
 185   0.0000       1.067775        29.0556 
 186   0.0000       1.067779        29.0557 
 187   0.0000       1.082825        29.4652 
 188   0.0000       1.082832        29.4654 
 189   0.0000       1.096753        29.8442 
 190   0.0000       1.096755        29.8442 
 191   0.0000       1.134958        30.8838 
 192   0.0000       1.134959        30.8838 
 193   0.0000       1.156718        31.4759 
 194   0.0000       1.175516        31.9874 
 195   0.0000       1.188962        32.3533 
 196   0.0000       1.220347        33.2073 
 197   0.0000       1.220349        33.2074 
 198   0.0000       1.260835        34.3091 
 199   0.0000       1.261396        34.3243 
 200   0.0000       1.261401        34.3245 
 201   0.0000       1.276476        34.7347 
 202   0.0000       1.281928        34.8830 
 203   0.0000       1.281939        34.8833 
 204   0.0000       1.307087        35.5677 
 205   0.0000       1.307101        35.5680 
 206   0.0000       1.319192        35.8970 
 207   0.0000       1.349709        36.7274 
 208   0.0000       1.385399        37.6986 
 209   0.0000       1.385421        37.6992 
 210   0.0000       1.397912        38.0391 
 211   0.0000       1.413167        38.4542 
 212   0.0000       1.414655        38.4947 
 213   0.0000       1.414661        38.4949 
 214   0.0000       1.431560        38.9547 
 215   0.0000       1.470132        40.0043 
 216   0.0000       1.470135        40.0044 
 217   0.0000       1.489482        40.5309 
 218   0.0000       1.509298        41.0701 
 219   0.0000       1.509305        41.0703 
 220   0.0000       1.549532        42.1649 
 221   0.0000       1.568330        42.6764 
 222   0.0000       1.568336        42.6766 
 223   0.0000       1.591197        43.2987 
 224   0.0000       1.591208        43.2990 
 225   0.0000       1.625142        44.2224 
 226   0.0000       1.625163        44.2229 
 227   0.0000       1.630785        44.3759 
 228   0.0000       1.646937        44.8154 
 229   0.0000       1.646954        44.8159 
 230   0.0000       1.681298        45.7505 
 231   0.0000       1.697884        46.2018 
 232   0.0000       1.697888        46.2019 
 233   0.0000       1.721150        46.8349 
 234   0.0000       1.721171        46.8354 
 235   0.0000       1.721189        46.8359 
 236   0.0000       1.770871        48.1879 
 237   0.0000       1.826778        49.7092 
 238   0.0000       1.846498        50.2458 
 239   0.0000       1.846504        50.2459 
 240   0.0000       1.878000        51.1030 
 241   0.0000       1.878005        51.1031 
 242   0.0000       1.968224        53.5581 
 243   0.0000       2.142306        58.2951 
 244   0.0000       2.169110        59.0245 
 245   0.0000       2.169133        59.0251 
 246   0.0000       2.226307        60.5809 
 247   0.0000       2.231032        60.7095 
 248   0.0000       2.231045        60.7098 
 249   0.0000       2.295422        62.4616 
 250   0.0000       2.295427        62.4617 
 251   0.0000       2.308169        62.8085 
 252   0.0000       2.361429        64.2577 
 253   0.0000       2.374549        64.6148 
 254   0.0000       2.374559        64.6150 
 255   0.0000       2.413148        65.6651 
 256   0.0000       2.413154        65.6653 
 257   0.0000       2.440324        66.4046 
 258   0.0000       2.494420        67.8766 
 259   0.0000       2.494420        67.8766 
 260   0.0000       2.517812        68.5131 
 261   0.0000       2.533606        68.9429 
 262   0.0000       2.534208        68.9593 
 263   0.0000       2.534216        68.9595 
 264   0.0000       2.597183        70.6730 
 265   0.0000       2.633517        71.6616 
 266   0.0000       2.659006        72.3552 
 267   0.0000       2.659024        72.3557 
 268   0.0000       2.690388        73.2092 
 269   0.0000       2.690399        73.2095 
 270   0.0000       2.790722        75.9394 
 271   0.0000       2.804362        76.3106 
 272   0.0000       2.815594        76.6162 
 273   0.0000       2.815605        76.6165 
 274   0.0000       2.870683        78.1153 
 275   0.0000       2.911663        79.2304 
 276   0.0000       2.911677        79.2308 
 277   0.0000       2.963685        80.6460 
 278   0.0000       3.092459        84.1501 
 279   0.0000       3.092471        84.1504 
 280   0.0000       3.126369        85.0728 
 281   0.0000       3.126389        85.0734 
 282   0.0000       3.201395        87.1144 
 283   0.0000       3.228776        87.8595 
 284   0.0000       3.303667        89.8973 
 285   0.0000       3.303675        89.8976 
 286   0.0000       3.340425        90.8976 
 287   0.0000       3.378909        91.9448 
 288   0.0000       3.378914        91.9449 
 289   0.0000       3.387009        92.1652 
 290   0.0000       3.387044        92.1662 
 291   0.0000       3.421100        93.0929 
 292   0.0000       3.421108        93.0931 
 293   0.0000       3.446841        93.7933 
 294   0.0000       3.511957        95.5652 
 295   0.0000       3.595924        97.8501 
 296   0.0000       3.620520        98.5194 
 297   0.0000       3.620541        98.5199 
 298   0.0000       3.638305        99.0033 
 299   0.0000       3.638342        99.0043 
 300   0.0000       3.639531        99.0367 
 301   0.0000       3.682601       100.2087 
 302   0.0000       3.708105       100.9027 
 303   0.0000       3.743649       101.8699 
 304   0.0000       3.743663       101.8702 
 305   0.0000       3.772718       102.6609 
 306   0.0000       3.772735       102.6613 
 307   0.0000       3.895664       106.0064 
 308   0.0000       3.914158       106.5096 
 309   0.0000       3.914169       106.5100 
 310   0.0000       3.967459       107.9601 
 311   0.0000       4.008102       109.0660 
 312   0.0000       4.008112       109.0663 
 313   0.0000       4.029313       109.6432 
 314   0.0000       4.121638       112.1555 
 315   0.0000       4.121666       112.1562 
 316   0.0000       4.247650       115.5844 
 317   0.0000       4.305153       117.1492 
 318   0.0000       4.305171       117.1497 
 319   0.0000       4.418831       120.2425 
 320   0.0000       4.642922       126.3403 
 321   0.0000       4.642942       126.3409 
 322   0.0000       4.672598       127.1479 
 323   0.0000       4.812817       130.9634 
 324   0.0000       4.812864       130.9647 
 325   0.0000       4.830828       131.4535 
 326   0.0000       4.948227       134.6481 
 327   0.0000       4.967775       135.1800 
 328   0.0000       4.967815       135.1811 
 329   0.0000       5.040762       137.1661 
 330   0.0000       5.040763       137.1661 
 331   0.0000       5.151768       140.1867 
 332   0.0000       5.151801       140.1876 
 333   0.0000       5.270335       143.4131 
 334   0.0000       5.324108       144.8764 
 335   0.0000       5.328634       144.9995 
 336   0.0000       5.328655       145.0001 
 337   0.0000       5.359316       145.8344 
 338   0.0000       5.359318       145.8345 
 339   0.0000       5.502236       149.7234 
 340   0.0000       5.506144       149.8298 
 341   0.0000       5.506152       149.8300 
 342   0.0000       5.647890       153.6869 
 343   0.0000       5.647901       153.6872 
 344   0.0000       5.670596       154.3048 
 345   0.0000       5.670639       154.3059 
 346   0.0000       5.683691       154.6611 
 347   0.0000       5.792672       157.6266 
 348   0.0000       5.809859       158.0943 
 349   0.0000       5.841558       158.9569 
 350   0.0000       5.841563       158.9570 
 351   0.0000       6.028287       164.0380 
 352   0.0000       6.079072       165.4199 
 353   0.0000       6.079073       165.4200 
 354   0.0000       6.210158       168.9870 
 355   0.0000       6.234192       169.6410 
 356   0.0000       6.389051       173.8549 
 357   0.0000       6.389055       173.8550 
 358   0.0000       6.489869       176.5983 
 359   0.0000       6.537640       177.8982 
 360   0.0000       6.537642       177.8983 
 361   0.0000       6.646086       180.8492 
 362   0.0000       6.646152       180.8510 
 363   0.0000       6.814184       185.4234 
 364   0.0000       6.965602       189.5437 
 365   0.0000       6.965634       189.5445 
 366   0.0000       7.027709       191.2337 
 367   0.0000       7.030147       191.3000 
 368   0.0000       7.097757       193.1398 
 369   0.0000       7.097782       193.1405 
 370   0.0000       7.112852       193.5506 
 371   0.0000       7.112914       193.5522 
 372   0.0000       7.154075       194.6723 
 373   0.0000       7.154282       194.6779 
 374   0.0000       7.213132       196.2793 
 375   0.0000       7.347147       199.9260 
 376   0.0000       7.430441       202.1926 
 377   0.0000       7.430449       202.1928 
 378   0.0000       7.433059       202.2638 
 379   0.0000       7.743420       210.7092 
 380   0.0000       8.055694       219.2066 
 381   0.0000       8.055704       219.2068 
 382   0.0000       8.453263       230.0250 
 383   0.0000       8.498487       231.2556 
 384   0.0000       8.498521       231.2565 
 385   0.0000       8.611604       234.3337 
 386   0.0000       8.611703       234.3363 
 387   0.0000       8.633800       234.9377 
 388   0.0000       8.714609       237.1366 
 389   0.0000       8.714639       237.1374 
 390   0.0000       8.840828       240.5712 
 391   0.0000       8.915623       242.6064 
 392   0.0000       8.915651       242.6072 
 393   0.0000       8.924060       242.8360 
 394   0.0000       8.970573       244.1017 
 395   0.0000       8.978676       244.3222 
 396   0.0000       8.978727       244.3236 
 397   0.0000       9.078352       247.0345 
 398   0.0000       9.089633       247.3415 
 399   0.0000       9.089641       247.3417 
 400   0.0000       9.185772       249.9576 
 401   0.0000       9.379516       255.2296 
 402   0.0000       9.379544       255.2304 
 403   0.0000       9.423075       256.4149 
 404   0.0000       9.423102       256.4156 
 405   0.0000       9.448519       257.1073 
 406   0.0000       9.506303       258.6797 
 407   0.0000       9.529036       259.2983 
 408   0.0000       9.529040       259.2984 
 409   0.0000      10.148097       276.1438 
 410   0.0000      10.148102       276.1439 
 411   0.0000      10.175286       276.8836 
 412   0.0000      10.239217       278.6233 
 413   0.0000      10.239261       278.6245 
 414   0.0000      10.334788       281.2239 
 415   0.0000      10.689553       290.8775 
 416   0.0000      11.133962       302.9705 
 417   0.0000      11.585439       315.2558 
 418   0.0000      11.585443       315.2559 
 419   0.0000      12.242149       333.1258 
 420   0.0000      12.242445       333.1339 
 421   0.0000      12.280471       334.1686 
 422   0.0000      12.368121       336.5537 
 423   0.0000      12.368213       336.5562 
 424   0.0000      12.414129       337.8056 
 425   0.0000      12.414221       337.8081 
 426   0.0000      12.441777       338.5580 
 427   0.0000      12.513302       340.5043 
 428   0.0000      12.513319       340.5047 
 429   0.0000      12.551294       341.5381 
 430   0.0000      12.659684       344.4875 
 431   0.0000      12.659721       344.4885 
 432   0.0000      12.676035       344.9325 
 433   0.0000      12.676037       344.9325 
 434   0.0000      12.729599       346.3900 
 435   0.0000      12.733125       346.4859 
 436   0.0000      12.733129       346.4861 
 437   0.0000      12.740298       346.6811 
 438   0.0000      12.766009       347.3808 
 439   0.0000      12.828757       349.0882 
 440   0.0000      12.828761       349.0883 
 441   0.0000      12.897645       350.9628 
 442   0.0000      12.897713       350.9646 
 443   0.0000      12.909860       351.2951 
 444   0.0000      12.960900       352.6840 
 445   0.0000      13.049318       355.0900 
 446   0.0000      13.049319       355.0900 
 447   0.0000      13.086584       356.1041 
 448   0.0000      13.086589       356.1042 
 449   0.0000      13.087156       356.1196 
 450   0.0000      13.168324       358.3283 
 451   0.0000      13.168383       358.3299 
 452   0.0000      13.296198       361.8079 
 453   0.0000      13.320953       362.4815 
 454   0.0000      13.320974       362.4821 
 455   0.0000      13.384878       364.2211 
 456   0.0000      14.440817       392.9546 
 457   0.0000      14.440819       392.9547 
 458   0.0000      14.737119       401.0174 
 459   0.0000      15.050589       409.5474 
 460   0.0000      15.062099       409.8606 
 461   0.0000      15.235437       414.5773 
 462   0.0000      15.235580       414.5812 
 463   0.0000      15.313946       416.7137 
 464   0.0000      15.313960       416.7140 
 465   0.0000      15.603278       424.5868 
 466   0.0000      15.666751       426.3140 
 467   0.0000      15.720036       427.7639 
 468   0.0000      15.720050       427.7643 
 469   0.0000      16.215093       441.2351 
 470   0.0000      16.215127       441.2360 
 471   0.0000      16.538210       450.0276 
 472   0.0000      16.727686       455.1835 
 473   0.0000      16.736424       455.4212 
 474   0.0000      16.736675       455.4281 
 475   0.0000      16.740125       455.5219 
 476   0.0000      16.740170       455.5232 
 477   0.0000      16.740243       455.5252 
 478   0.0000      16.742477       455.5860 
 479   0.0000      16.774216       456.4496 
 480   0.0000      16.774541       456.4585 
 481   0.0000      16.789170       456.8565 
 482   0.0000      16.789332       456.8610 
 483   0.0000      16.792755       456.9541 
 484   0.0000      16.896977       459.7901 
 485   0.0000      16.903413       459.9653 
 486   0.0000      16.903471       459.9668 
 487   0.0000      17.137175       466.3263 
 488   0.0000      17.137206       466.3271 
 489   0.0000      17.141624       466.4473 
 490   0.0000      17.188597       467.7255 
 491   0.0000      17.363472       472.4841 
 492   0.0000      17.407957       473.6946 
 493   0.0000      17.408020       473.6963 
 494   0.0000      17.704367       481.7603 
 495   0.0000      17.704479       481.7634 
 496   0.0000      17.748860       482.9710 
 497   0.0000      17.923426       487.7212 
 498   0.0000      17.923446       487.7218 
 499   0.0000      20.118252       547.4455 
 500   0.0000      20.118854       547.4618 
 501   0.0000      20.189742       549.3908 
 502   0.0000      20.222822       550.2910 
 503   0.0000      20.586907       560.1982 
 504   0.0000      20.587069       560.2026 
 505   0.0000      20.840146       567.0892 
 506   0.0000      21.137921       575.1921 
 507   0.0000      21.137926       575.1922 
 508   0.0000      23.358921       635.6286 
 509   0.0000      23.401057       636.7751 
 510   0.0000      23.401120       636.7768 
 511   0.0000      23.445513       637.9848 
 512   0.0000      23.445581       637.9867 
 513   0.0000      23.484421       639.0436 
 514   0.0000      23.804424       647.7513 
 515   0.0000      23.991203       652.8338 
 516   0.0000      23.991228       652.8345 
 517   0.0000      26.349487       717.0060 
 518   0.0000      30.413138       827.5835 
 519   0.0000      30.413844       827.6028 
 520   0.0000      30.710680       835.6801 
 521   0.0000      30.710683       835.6802 
 522   0.0000      31.244676       850.2109 
 523   0.0000      39.772694      1082.2700 
 524   0.0000      39.905170      1085.8749 
 525   0.0000      39.905216      1085.8761 
 526   0.0000      41.665207      1133.7679 
 527   0.0000      41.665211      1133.7680 
 528   0.0000      41.924266      1140.8173 
 529   0.0000      42.941146      1168.4880 
 530   0.0000      55.435089      1508.4654 
 531   0.0000      55.435093      1508.4656 
 532   0.0000      55.828111      1519.1601 
 533   0.0000      55.828142      1519.1610 
 534   0.0000      55.868604      1520.2620 
 535   0.0000      90.974293      2475.5364 
 536   0.0000      91.000375      2476.2461 
 537   0.0000      91.000392      2476.2466 
 538   0.0000      91.035988      2477.2152 
 539   0.0000      91.035995      2477.2154 
 540   0.0000      91.064020      2477.9780 
 541   0.0000      91.327309      2485.1424 
 542   0.0000      91.327446      2485.1462 
 543   0.0000      91.419698      2487.6564 
 544   0.0000      91.419713      2487.6568 
 545   0.0000      91.552145      2491.2605 
 546   0.0000      91.552145      2491.2605 
 547   0.0000      91.578256      2491.9710 
 548   0.0000      91.889629      2500.4439 
 549   0.0000     201.795511      5491.1350 

                 SPIN DOWN ORBITALS
  NO   OCC          E(Eh)            E(eV) 
   0   1.0000     -65.414418     -1780.0168 
   1   1.0000     -24.250760      -659.8967 
   2   1.0000      -5.078234      -138.1858 
   3   1.0000      -3.489692       -94.9594 
   4   1.0000      -3.486315       -94.8675 
   5   1.0000      -3.486315       -94.8674 
   6   1.0000      -1.090773       -29.6814 
   7   1.0000      -0.510141       -13.8817 
   8   1.0000      -0.406954       -11.0738 
   9   1.0000      -0.395032       -10.7494 
  10   1.0000      -0.395030       -10.7493 
  11   1.0000      -0.306631        -8.3438 
  12   1.0000      -0.306624        -8.3437 
  13   0.0000      -0.044955        -1.2233 
  14   0.0000      -0.014032        -0.3818 
  15   0.0000       0.006103         0.1661 
  16   0.0000       0.006106         0.1662 
  17   0.0000       0.014413         0.3922 
  18   0.0000       0.014415         0.3923 
  19   0.0000       0.020386         0.5547 
  20   0.0000       0.034887         0.9493 
  21   0.0000       0.036893         1.0039 
  22   0.0000       0.036893         1.0039 
  23   0.0000       0.047299         1.2871 
  24   0.0000       0.051926         1.4130 
  25   0.0000       0.051926         1.4130 
  26   0.0000       0.062616         1.7039 
  27   0.0000       0.062617         1.7039 
  28   0.0000       0.074668         2.0318 
  29   0.0000       0.084977         2.3123 
  30   0.0000       0.090938         2.4745 
  31   0.0000       0.090938         2.4745 
  32   0.0000       0.102442         2.7876 
  33   0.0000       0.103616         2.8195 
  34   0.0000       0.103617         2.8196 
  35   0.0000       0.112261         3.0548 
  36   0.0000       0.113146         3.0789 
  37   0.0000       0.113147         3.0789 
  38   0.0000       0.126014         3.4290 
  39   0.0000       0.132872         3.6156 
  40   0.0000       0.132872         3.6156 
  41   0.0000       0.135714         3.6930 
  42   0.0000       0.152893         4.1604 
  43   0.0000       0.152894         4.1605 
  44   0.0000       0.159729         4.3464 
  45   0.0000       0.166865         4.5406 
  46   0.0000       0.166866         4.5406 
  47   0.0000       0.172117         4.6835 
  48   0.0000       0.176257         4.7962 
  49   0.0000       0.184508         5.0207 
  50   0.0000       0.184509         5.0207 
  51   0.0000       0.187758         5.1092 
  52   0.0000       0.201594         5.4856 
  53   0.0000       0.201597         5.4857 
  54   0.0000       0.209196         5.6925 
  55   0.0000       0.214383         5.8337 
  56   0.0000       0.214386         5.8337 
  57   0.0000       0.219298         5.9674 
  58   0.0000       0.223878         6.0920 
  59   0.0000       0.223878         6.0920 
  60   0.0000       0.242046         6.5864 
  61   0.0000       0.250356         6.8125 
  62   0.0000       0.250358         6.8126 
  63   0.0000       0.258071         7.0225 
  64   0.0000       0.258071         7.0225 
  65   0.0000       0.275381         7.4935 
  66   0.0000       0.278721         7.5844 
  67   0.0000       0.278723         7.5844 
  68   0.0000       0.289193         7.8693 
  69   0.0000       0.296387         8.0651 
  70   0.0000       0.296499         8.0682 
  71   0.0000       0.296500         8.0682 
  72   0.0000       0.308698         8.4001 
  73   0.0000       0.308699         8.4001 
  74   0.0000       0.312870         8.5136 
  75   0.0000       0.315016         8.5720 
  76   0.0000       0.315022         8.5722 
  77   0.0000       0.328605         8.9418 
  78   0.0000       0.336415         9.1543 
  79   0.0000       0.336421         9.1545 
  80   0.0000       0.340791         9.2734 
  81   0.0000       0.342133         9.3099 
  82   0.0000       0.347931         9.4677 
  83   0.0000       0.347932         9.4677 
  84   0.0000       0.374041        10.1782 
  85   0.0000       0.374044        10.1783 
  86   0.0000       0.374771        10.1980 
  87   0.0000       0.383913        10.4468 
  88   0.0000       0.383915        10.4469 
  89   0.0000       0.388542        10.5728 
  90   0.0000       0.410177        11.1615 
  91   0.0000       0.416878        11.3438 
  92   0.0000       0.416878        11.3438 
  93   0.0000       0.434872        11.8335 
  94   0.0000       0.443461        12.0672 
  95   0.0000       0.451765        12.2932 
  96   0.0000       0.451772        12.2933 
  97   0.0000       0.459432        12.5018 
  98   0.0000       0.461987        12.5713 
  99   0.0000       0.461993        12.5715 
 100   0.0000       0.471322        12.8253 
 101   0.0000       0.471329        12.8255 
 102   0.0000       0.474606        12.9147 
 103   0.0000       0.478151        13.0112 
 104   0.0000       0.479034        13.0352 
 105   0.0000       0.479044        13.0354 
 106   0.0000       0.490282        13.3412 
 107   0.0000       0.490284        13.3413 
 108   0.0000       0.492472        13.4008 
 109   0.0000       0.502874        13.6839 
 110   0.0000       0.502881        13.6841 
 111   0.0000       0.505114        13.7449 
 112   0.0000       0.505120        13.7450 
 113   0.0000       0.532567        14.4919 
 114   0.0000       0.539850        14.6901 
 115   0.0000       0.539859        14.6903 
 116   0.0000       0.549265        14.9463 
 117   0.0000       0.553368        15.0579 
 118   0.0000       0.553372        15.0580 
 119   0.0000       0.563195        15.3253 
 120   0.0000       0.570516        15.5245 
 121   0.0000       0.570526        15.5248 
 122   0.0000       0.582783        15.8583 
 123   0.0000       0.596586        16.2339 
 124   0.0000       0.598331        16.2814 
 125   0.0000       0.600836        16.3496 
 126   0.0000       0.600844        16.3498 
 127   0.0000       0.608775        16.5656 
 128   0.0000       0.608786        16.5659 
 129   0.0000       0.640382        17.4257 
 130   0.0000       0.640642        17.4328 
 131   0.0000       0.640643        17.4328 
 132   0.0000       0.661978        18.0133 
 133   0.0000       0.665821        18.1179 
 134   0.0000       0.665822        18.1179 
 135   0.0000       0.674626        18.3575 
 136   0.0000       0.680708        18.5230 
 137   0.0000       0.692674        18.8486 
 138   0.0000       0.692685        18.8489 
 139   0.0000       0.708805        19.2876 
 140   0.0000       0.711922        19.3724 
 141   0.0000       0.711926        19.3725 
 142   0.0000       0.724990        19.7280 
 143   0.0000       0.724995        19.7281 
 144   0.0000       0.737824        20.0772 
 145   0.0000       0.741675        20.1820 
 146   0.0000       0.741678        20.1821 
 147   0.0000       0.742755        20.2114 
 148   0.0000       0.764384        20.8000 
 149   0.0000       0.764399        20.8004 
 150   0.0000       0.769921        20.9506 
 151   0.0000       0.785675        21.3793 
 152   0.0000       0.785703        21.3801 
 153   0.0000       0.792984        21.5782 
 154   0.0000       0.807755        21.9801 
 155   0.0000       0.807770        21.9805 
 156   0.0000       0.818332        22.2680 
 157   0.0000       0.818352        22.2685 
 158   0.0000       0.820557        22.3285 
 159   0.0000       0.822024        22.3684 
 160   0.0000       0.852405        23.1951 
 161   0.0000       0.861674        23.4473 
 162   0.0000       0.861676        23.4474 
 163   0.0000       0.881275        23.9807 
 164   0.0000       0.881697        23.9922 
 165   0.0000       0.881700        23.9923 
 166   0.0000       0.887465        24.1491 
 167   0.0000       0.902524        24.5589 
 168   0.0000       0.902526        24.5590 
 169   0.0000       0.908670        24.7262 
 170   0.0000       0.917236        24.9593 
 171   0.0000       0.917237        24.9593 
 172   0.0000       0.939121        25.5548 
 173   0.0000       0.941718        25.6255 
 174   0.0000       0.941723        25.6256 
 175   0.0000       0.949004        25.8237 
 176   0.0000       0.949012        25.8239 
 177   0.0000       0.972624        26.4665 
 178   0.0000       0.972642        26.4669 
 179   0.0000       0.990891        26.9635 
 180   0.0000       1.015134        27.6232 
 181   0.0000       1.027748        27.9665 
 182   0.0000       1.027750        27.9665 
 183   0.0000       1.040648        28.3175 
 184   0.0000       1.046660        28.4811 
 185   0.0000       1.067775        29.0556 
 186   0.0000       1.067779        29.0557 
 187   0.0000       1.082825        29.4652 
 188   0.0000       1.082832        29.4654 
 189   0.0000       1.096753        29.8442 
 190   0.0000       1.096755        29.8442 
 191   0.0000       1.134958        30.8838 
 192   0.0000       1.134959        30.8838 
 193   0.0000       1.156718        31.4759 
 194   0.0000       1.175516        31.9874 
 195   0.0000       1.188962        32.3533 
 196   0.0000       1.220347        33.2073 
 197   0.0000       1.220349        33.2074 
 198   0.0000       1.260835        34.3091 
 199   0.0000       1.261396        34.3243 
 200   0.0000       1.261401        34.3245 
 201   0.0000       1.276476        34.7347 
 202   0.0000       1.281928        34.8830 
 203   0.0000       1.281939        34.8833 
 204   0.0000       1.307087        35.5677 
 205   0.0000       1.307101        35.5680 
 206   0.0000       1.319192        35.8970 
 207   0.0000       1.349709        36.7274 
 208   0.0000       1.385399        37.6986 
 209   0.0000       1.385421        37.6992 
 210   0.0000       1.397912        38.0391 
 211   0.0000       1.413167        38.4542 
 212   0.0000       1.414655        38.4947 
 213   0.0000       1.414661        38.4949 
 214   0.0000       1.431560        38.9547 
 215   0.0000       1.470132        40.0043 
 216   0.0000       1.470135        40.0044 
 217   0.0000       1.489482        40.5309 
 218   0.0000       1.509298        41.0701 
 219   0.0000       1.509305        41.0703 
 220   0.0000       1.549532        42.1649 
 221   0.0000       1.568330        42.6764 
 222   0.0000       1.568336        42.6766 
 223   0.0000       1.591197        43.2987 
 224   0.0000       1.591208        43.2990 
 225   0.0000       1.625142        44.2224 
 226   0.0000       1.625163        44.2229 
 227   0.0000       1.630785        44.3759 
 228   0.0000       1.646937        44.8154 
 229   0.0000       1.646954        44.8159 
 230   0.0000       1.681298        45.7505 
 231   0.0000       1.697884        46.2018 
 232   0.0000       1.697888        46.2019 
 233   0.0000       1.721150        46.8349 
 234   0.0000       1.721171        46.8354 
 235   0.0000       1.721189        46.8359 
 236   0.0000       1.770871        48.1879 
 237   0.0000       1.826778        49.7092 
 238   0.0000       1.846498        50.2458 
 239   0.0000       1.846504        50.2459 
 240   0.0000       1.878000        51.1030 
 241   0.0000       1.878005        51.1031 
 242   0.0000       1.968224        53.5581 
 243   0.0000       2.142306        58.2951 
 244   0.0000       2.169110        59.0245 
 245   0.0000       2.169133        59.0251 
 246   0.0000       2.226307        60.5809 
 247   0.0000       2.231032        60.7095 
 248   0.0000       2.231045        60.7098 
 249   0.0000       2.295422        62.4616 
 250   0.0000       2.295427        62.4617 
 251   0.0000       2.308169        62.8085 
 252   0.0000       2.361429        64.2577 
 253   0.0000       2.374549        64.6148 
 254   0.0000       2.374559        64.6150 
 255   0.0000       2.413148        65.6651 
 256   0.0000       2.413154        65.6653 
 257   0.0000       2.440324        66.4046 
 258   0.0000       2.494420        67.8766 
 259   0.0000       2.494420        67.8766 
 260   0.0000       2.517812        68.5131 
 261   0.0000       2.533606        68.9429 
 262   0.0000       2.534208        68.9593 
 263   0.0000       2.534216        68.9595 
 264   0.0000       2.597183        70.6730 
 265   0.0000       2.633517        71.6616 
 266   0.0000       2.659006        72.3552 
 267   0.0000       2.659024        72.3557 
 268   0.0000       2.690388        73.2092 
 269   0.0000       2.690399        73.2095 
 270   0.0000       2.790722        75.9394 
 271   0.0000       2.804362        76.3106 
 272   0.0000       2.815594        76.6162 
 273   0.0000       2.815605        76.6165 
 274   0.0000       2.870683        78.1153 
 275   0.0000       2.911663        79.2304 
 276   0.0000       2.911677        79.2308 
 277   0.0000       2.963685        80.6460 
 278   0.0000       3.092459        84.1501 
 279   0.0000       3.092471        84.1504 
 280   0.0000       3.126369        85.0728 
 281   0.0000       3.126389        85.0734 
 282   0.0000       3.201395        87.1144 
 283   0.0000       3.228776        87.8595 
 284   0.0000       3.303667        89.8973 
 285   0.0000       3.303675        89.8976 
 286   0.0000       3.340425        90.8976 
 287   0.0000       3.378909        91.9448 
 288   0.0000       3.378914        91.9449 
 289   0.0000       3.387009        92.1652 
 290   0.0000       3.387044        92.1662 
 291   0.0000       3.421100        93.0929 
 292   0.0000       3.421108        93.0931 
 293   0.0000       3.446841        93.7933 
 294   0.0000       3.511957        95.5652 
 295   0.0000       3.595924        97.8501 
 296   0.0000       3.620520        98.5194 
 297   0.0000       3.620541        98.5199 
 298   0.0000       3.638305        99.0033 
 299   0.0000       3.638342        99.0043 
 300   0.0000       3.639531        99.0367 
 301   0.0000       3.682601       100.2087 
 302   0.0000       3.708105       100.9027 
 303   0.0000       3.743649       101.8699 
 304   0.0000       3.743663       101.8702 
 305   0.0000       3.772718       102.6609 
 306   0.0000       3.772735       102.6613 
 307   0.0000       3.895664       106.0064 
 308   0.0000       3.914158       106.5096 
 309   0.0000       3.914169       106.5100 
 310   0.0000       3.967459       107.9601 
 311   0.0000       4.008102       109.0660 
 312   0.0000       4.008112       109.0663 
 313   0.0000       4.029313       109.6432 
 314   0.0000       4.121638       112.1555 
 315   0.0000       4.121666       112.1562 
 316   0.0000       4.247650       115.5844 
 317   0.0000       4.305153       117.1492 
 318   0.0000       4.305171       117.1497 
 319   0.0000       4.418831       120.2425 
 320   0.0000       4.642922       126.3403 
 321   0.0000       4.642942       126.3409 
 322   0.0000       4.672598       127.1479 
 323   0.0000       4.812817       130.9634 
 324   0.0000       4.812864       130.9647 
 325   0.0000       4.830828       131.4535 
 326   0.0000       4.948227       134.6481 
 327   0.0000       4.967775       135.1800 
 328   0.0000       4.967815       135.1811 
 329   0.0000       5.040762       137.1661 
 330   0.0000       5.040763       137.1661 
 331   0.0000       5.151768       140.1867 
 332   0.0000       5.151801       140.1876 
 333   0.0000       5.270335       143.4131 
 334   0.0000       5.324108       144.8764 
 335   0.0000       5.328634       144.9995 
 336   0.0000       5.328655       145.0001 
 337   0.0000       5.359316       145.8344 
 338   0.0000       5.359318       145.8345 
 339   0.0000       5.502236       149.7234 
 340   0.0000       5.506144       149.8298 
 341   0.0000       5.506152       149.8300 
 342   0.0000       5.647890       153.6869 
 343   0.0000       5.647901       153.6872 
 344   0.0000       5.670596       154.3048 
 345   0.0000       5.670639       154.3059 
 346   0.0000       5.683691       154.6611 
 347   0.0000       5.792672       157.6266 
 348   0.0000       5.809859       158.0943 
 349   0.0000       5.841558       158.9569 
 350   0.0000       5.841563       158.9570 
 351   0.0000       6.028287       164.0380 
 352   0.0000       6.079072       165.4199 
 353   0.0000       6.079073       165.4200 
 354   0.0000       6.210158       168.9870 
 355   0.0000       6.234192       169.6410 
 356   0.0000       6.389051       173.8549 
 357   0.0000       6.389055       173.8550 
 358   0.0000       6.489869       176.5983 
 359   0.0000       6.537640       177.8982 
 360   0.0000       6.537642       177.8983 
 361   0.0000       6.646086       180.8492 
 362   0.0000       6.646152       180.8510 
 363   0.0000       6.814184       185.4234 
 364   0.0000       6.965602       189.5437 
 365   0.0000       6.965634       189.5445 
 366   0.0000       7.027709       191.2337 
 367   0.0000       7.030147       191.3000 
 368   0.0000       7.097757       193.1398 
 369   0.0000       7.097782       193.1405 
 370   0.0000       7.112852       193.5506 
 371   0.0000       7.112914       193.5522 
 372   0.0000       7.154075       194.6723 
 373   0.0000       7.154282       194.6779 
 374   0.0000       7.213132       196.2793 
 375   0.0000       7.347147       199.9260 
 376   0.0000       7.430441       202.1926 
 377   0.0000       7.430449       202.1928 
 378   0.0000       7.433059       202.2638 
 379   0.0000       7.743420       210.7092 
 380   0.0000       8.055694       219.2066 
 381   0.0000       8.055704       219.2068 
 382   0.0000       8.453263       230.0250 
 383   0.0000       8.498487       231.2556 
 384   0.0000       8.498521       231.2565 
 385   0.0000       8.611604       234.3337 
 386   0.0000       8.611703       234.3363 
 387   0.0000       8.633800       234.9377 
 388   0.0000       8.714609       237.1366 
 389   0.0000       8.714639       237.1374 
 390   0.0000       8.840828       240.5712 
 391   0.0000       8.915623       242.6064 
 392   0.0000       8.915651       242.6072 
 393   0.0000       8.924060       242.8360 
 394   0.0000       8.970573       244.1017 
 395   0.0000       8.978676       244.3222 
 396   0.0000       8.978727       244.3236 
 397   0.0000       9.078352       247.0345 
 398   0.0000       9.089633       247.3415 
 399   0.0000       9.089641       247.3417 
 400   0.0000       9.185772       249.9576 
 401   0.0000       9.379516       255.2296 
 402   0.0000       9.379544       255.2304 
 403   0.0000       9.423075       256.4149 
 404   0.0000       9.423102       256.4156 
 405   0.0000       9.448519       257.1073 
 406   0.0000       9.506303       258.6797 
 407   0.0000       9.529036       259.2983 
 408   0.0000       9.529040       259.2984 
 409   0.0000      10.148097       276.1438 
 410   0.0000      10.148102       276.1439 
 411   0.0000      10.175286       276.8836 
 412   0.0000      10.239217       278.6233 
 413   0.0000      10.239261       278.6245 
 414   0.0000      10.334788       281.2239 
 415   0.0000      10.689553       290.8775 
 416   0.0000      11.133962       302.9705 
 417   0.0000      11.585439       315.2558 
 418   0.0000      11.585443       315.2559 
 419   0.0000      12.242149       333.1258 
 420   0.0000      12.242445       333.1339 
 421   0.0000      12.280471       334.1686 
 422   0.0000      12.368121       336.5537 
 423   0.0000      12.368213       336.5562 
 424   0.0000      12.414129       337.8056 
 425   0.0000      12.414221       337.8081 
 426   0.0000      12.441777       338.5580 
 427   0.0000      12.513302       340.5043 
 428   0.0000      12.513319       340.5047 
 429   0.0000      12.551294       341.5381 
 430   0.0000      12.659684       344.4875 
 431   0.0000      12.659721       344.4885 
 432   0.0000      12.676035       344.9325 
 433   0.0000      12.676037       344.9325 
 434   0.0000      12.729599       346.3900 
 435   0.0000      12.733125       346.4859 
 436   0.0000      12.733129       346.4861 
 437   0.0000      12.740298       346.6811 
 438   0.0000      12.766009       347.3808 
 439   0.0000      12.828757       349.0882 
 440   0.0000      12.828761       349.0883 
 441   0.0000      12.897645       350.9628 
 442   0.0000      12.897713       350.9646 
 443   0.0000      12.909860       351.2951 
 444   0.0000      12.960900       352.6840 
 445   0.0000      13.049318       355.0900 
 446   0.0000      13.049319       355.0900 
 447   0.0000      13.086584       356.1041 
 448   0.0000      13.086589       356.1042 
 449   0.0000      13.087156       356.1196 
 450   0.0000      13.168324       358.3283 
 451   0.0000      13.168383       358.3299 
 452   0.0000      13.296198       361.8079 
 453   0.0000      13.320953       362.4815 
 454   0.0000      13.320974       362.4821 
 455   0.0000      13.384878       364.2211 
 456   0.0000      14.440817       392.9546 
 457   0.0000      14.440819       392.9547 
 458   0.0000      14.737119       401.0174 
 459   0.0000      15.050589       409.5474 
 460   0.0000      15.062099       409.8606 
 461   0.0000      15.235437       414.5773 
 462   0.0000      15.235580       414.5812 
 463   0.0000      15.313946       416.7137 
 464   0.0000      15.313960       416.7140 
 465   0.0000      15.603278       424.5868 
 466   0.0000      15.666751       426.3140 
 467   0.0000      15.720036       427.7639 
 468   0.0000      15.720050       427.7643 
 469   0.0000      16.215093       441.2351 
 470   0.0000      16.215127       441.2360 
 471   0.0000      16.538210       450.0276 
 472   0.0000      16.727686       455.1835 
 473   0.0000      16.736424       455.4212 
 474   0.0000      16.736675       455.4281 
 475   0.0000      16.740125       455.5219 
 476   0.0000      16.740170       455.5232 
 477   0.0000      16.740243       455.5252 
 478   0.0000      16.742477       455.5860 
 479   0.0000      16.774216       456.4496 
 480   0.0000      16.774541       456.4585 
 481   0.0000      16.789170       456.8565 
 482   0.0000      16.789332       456.8610 
 483   0.0000      16.792755       456.9541 
 484   0.0000      16.896977       459.7901 
 485   0.0000      16.903413       459.9653 
 486   0.0000      16.903471       459.9668 
 487   0.0000      17.137175       466.3263 
 488   0.0000      17.137206       466.3271 
 489   0.0000      17.141624       466.4473 
 490   0.0000      17.188597       467.7255 
 491   0.0000      17.363472       472.4841 
 492   0.0000      17.407957       473.6946 
 493   0.0000      17.408020       473.6963 
 494   0.0000      17.704367       481.7603 
 495   0.0000      17.704479       481.7634 
 496   0.0000      17.748860       482.9710 
 497   0.0000      17.923426       487.7212 
 498   0.0000      17.923446       487.7218 
 499   0.0000      20.118252       547.4455 
 500   0.0000      20.118854       547.4618 
 501   0.0000      20.189742       549.3908 
 502   0.0000      20.222822       550.2910 
 503   0.0000      20.586907       560.1982 
 504   0.0000      20.587069       560.2026 
 505   0.0000      20.840146       567.0892 
 506   0.0000      21.137921       575.1921 
 507   0.0000      21.137926       575.1922 
 508   0.0000      23.358921       635.6286 
 509   0.0000      23.401057       636.7751 
 510   0.0000      23.401120       636.7768 
 511   0.0000      23.445513       637.9848 
 512   0.0000      23.445581       637.9867 
 513   0.0000      23.484421       639.0436 
 514   0.0000      23.804424       647.7513 
 515   0.0000      23.991203       652.8338 
 516   0.0000      23.991228       652.8345 
 517   0.0000      26.349487       717.0060 
 518   0.0000      30.413138       827.5835 
 519   0.0000      30.413844       827.6028 
 520   0.0000      30.710680       835.6801 
 521   0.0000      30.710683       835.6802 
 522   0.0000      31.244676       850.2109 
 523   0.0000      39.772694      1082.2700 
 524   0.0000      39.905170      1085.8749 
 525   0.0000      39.905216      1085.8761 
 526   0.0000      41.665207      1133.7679 
 527   0.0000      41.665211      1133.7680 
 528   0.0000      41.924266      1140.8173 
 529   0.0000      42.941146      1168.4880 
 530   0.0000      55.435089      1508.4654 
 531   0.0000      55.435093      1508.4656 
 532   0.0000      55.828111      1519.1601 
 533   0.0000      55.828142      1519.1610 
 534   0.0000      55.868604      1520.2620 
 535   0.0000      90.974293      2475.5364 
 536   0.0000      91.000375      2476.2461 
 537   0.0000      91.000392      2476.2466 
 538   0.0000      91.035988      2477.2152 
 539   0.0000      91.035995      2477.2154 
 540   0.0000      91.064020      2477.9780 
 541   0.0000      91.327309      2485.1424 
 542   0.0000      91.327446      2485.1462 
 543   0.0000      91.419698      2487.6564 
 544   0.0000      91.419713      2487.6568 
 545   0.0000      91.552145      2491.2605 
 546   0.0000      91.552145      2491.2605 
 547   0.0000      91.578256      2491.9710 
 548   0.0000      91.889629      2500.4439 
 549   0.0000     201.795511      5491.1350 

                    ********************************
                    * MULLIKEN POPULATION ANALYSIS *
                    ********************************

--------------------------------------------
MULLIKEN ATOMIC CHARGES AND SPIN POPULATIONS
--------------------------------------------
   0 Si:    0.892598    0.000000
   1 F :   -0.361927    0.000000
   2 H :   -0.177065   -0.000000
   3 H :   -0.176796   -0.000000
   4 H :   -0.176810    0.000000
Sum of atomic charges         :    0.0000000
Sum of atomic spin populations:    0.0000000

-----------------------------------------------------
MULLIKEN REDUCED ORBITAL CHARGES AND SPIN POPULATIONS
-----------------------------------------------------
CHARGE
  0 Sis       :     5.010737  s :     5.010737
      pz      :     2.416016  p :     7.668573
      px      :     2.626287
      py      :     2.626270
      dz2     :     0.077668  d :     0.369498
      dxz     :     0.105683
      dyz     :     0.105685
      dx2y2   :     0.040233
      dxy     :     0.040230
      f0      :     0.011009  f :     0.049056
      f+1     :     0.015911
      f-1     :     0.015912
      f+2     :     0.001426
      f-2     :     0.001425
      f+3     :     0.000000
      f-3     :     0.003373
      g0      :     0.002977  g :     0.008208
      g+1     :     0.001987
      g-1     :     0.001988
      g+2     :     0.000009
      g-2     :     0.000009
      g+3     :    -0.000000
      g-3     :     0.000332
      g+4     :     0.000454
      g-4     :     0.000453
      h0      :     0.000472  h :     0.001330
      h+1     :     0.000288
      h-1     :     0.000288
      h+2     :     0.000038
      h-2     :     0.000038
      h+3     :     0.000000
      h-3     :    -0.000000
      h+4     :     0.000058
      h-4     :     0.000058
      h+5     :     0.000045
      h-5     :     0.000045
  1 F s       :     3.905089  s :     3.905089
      pz      :     1.596435  p :     5.391361
      px      :     1.897486
      py      :     1.897441
      dz2     :     0.003806  d :     0.050294
      dxz     :     0.024492
      dyz     :     0.024482
      dx2y2   :    -0.001245
      dxy     :    -0.001242
      f0      :     0.000826  f :     0.012708
      f+1     :     0.007035
      f-1     :     0.007033
      f+2     :    -0.001041
      f-2     :    -0.001039
      f+3     :     0.000000
      f-3     :    -0.000105
      g0      :     0.000005  g :     0.002339
      g+1     :     0.001725
      g-1     :     0.001726
      g+2     :    -0.000463
      g-2     :    -0.000462
      g+3     :    -0.000000
      g-3     :    -0.000160
      g+4     :    -0.000016
      g-4     :    -0.000016
      h0      :    -0.000067  h :     0.000135
      h+1     :     0.000256
      h-1     :     0.000257
      h+2     :    -0.000089
      h-2     :    -0.000089
      h+3     :    -0.000000
      h-3     :    -0.000088
      h+4     :    -0.000021
      h-4     :    -0.000021
      h+5     :    -0.000000
      h-5     :    -0.000000
  2 H s       :     1.203456  s :     1.203456
      pz      :     0.000771  p :    -0.004804
      px      :    -0.010447
      py      :     0.004873
      dz2     :    -0.005659  d :    -0.015346
      dxz     :     0.000845
      dyz     :    -0.000579
      dx2y2   :     0.004237
      dxy     :    -0.014190
      f0      :     0.000192  f :    -0.005776
      f+1     :     0.001698
      f-1     :    -0.001280
      f+2     :     0.000846
      f-2     :    -0.001626
      f+3     :    -0.005477
      f-3     :    -0.000129
      g0      :    -0.000049  g :    -0.000465
      g+1     :     0.000137
      g-1     :    -0.000007
      g+2     :    -0.000033
      g-2     :     0.000219
      g+3     :    -0.000223
      g-3     :     0.000168
      g+4     :    -0.000038
      g-4     :    -0.000638
  3 H s       :     1.203223  s :     1.203223
      pz      :     0.000773  p :    -0.004836
      px      :     0.001011
      py      :    -0.006620
      dz2     :    -0.005672  d :    -0.015354
      dxz     :    -0.000225
      dyz     :     0.000488
      dx2y2   :    -0.009573
      dxy     :    -0.000372
      f0      :     0.000192  f :    -0.005773
      f+1     :    -0.000537
      f-1     :     0.000952
      f+2     :    -0.001009
      f-2     :     0.000227
      f+3     :    -0.005467
      f-3     :    -0.000131
      g0      :    -0.000049  g :    -0.000464
      g+1     :     0.000029
      g-1     :     0.000100
      g+2     :     0.000156
      g-2     :     0.000030
      g+3     :    -0.000223
      g-3     :     0.000167
      g+4     :    -0.000487
      g-4     :    -0.000187
  4 H s       :     1.203238  s :     1.203238
      pz      :     0.000772  p :    -0.004837
      px      :     0.001011
      py      :    -0.006620
      dz2     :    -0.005672  d :    -0.015354
      dxz     :    -0.000225
      dyz     :     0.000488
      dx2y2   :    -0.009573
      dxy     :    -0.000372
      f0      :     0.000192  f :    -0.005773
      f+1     :    -0.000537
      f-1     :     0.000952
      f+2     :    -0.001009
      f-2     :     0.000227
      f+3     :    -0.005467
      f-3     :    -0.000131
      g0      :    -0.000049  g :    -0.000464
      g+1     :     0.000029
      g-1     :     0.000100
      g+2     :     0.000156
      g-2     :     0.000030
      g+3     :    -0.000223
      g-3     :     0.000167
      g+4     :    -0.000487
      g-4     :    -0.000187

SPIN
  0 Sis       :     0.000000  s :     0.000000
      pz      :     0.000000  p :    -0.000000
      px      :    -0.000000
      py      :    -0.000000
      dz2     :    -0.000000  d :    -0.000000
      dxz     :    -0.000000
      dyz     :     0.000000
      dx2y2   :    -0.000000
      dxy     :     0.000000
      f0      :     0.000000  f :     0.000000
      f+1     :    -0.000000
      f-1     :    -0.000000
      f+2     :    -0.000000
      f-2     :     0.000000
      f+3     :     0.000000
      f-3     :     0.000000
      g0      :    -0.000000  g :     0.000000
      g+1     :     0.000000
      g-1     :     0.000000
      g+2     :    -0.000000
      g-2     :    -0.000000
      g+3     :     0.000000
      g-3     :    -0.000000
      g+4     :     0.000000
      g-4     :     0.000000
      h0      :     0.000000  h :     0.000000
      h+1     :     0.000000
      h-1     :    -0.000000
      h+2     :     0.000000
      h-2     :     0.000000
      h+3     :    -0.000000
      h-3     :     0.000000
      h+4     :     0.000000
      h-4     :    -0.000000
      h+5     :    -0.000000
      h-5     :    -0.000000
  1 F s       :     0.000000  s :     0.000000
      pz      :    -0.000000  p :    -0.000000
      px      :     0.000000
      py      :     0.000000
      dz2     :    -0.000000  d :     0.000000
      dxz     :     0.000000
      dyz     :     0.000000
      dx2y2   :    -0.000000
      dxy     :    -0.000000
      f0      :    -0.000000  f :     0.000000
      f+1     :     0.000000
      f-1     :     0.000000
      f+2     :    -0.000000
      f-2     :    -0.000000
      f+3     :    -0.000000
      f-3     :     0.000000
      g0      :    -0.000000  g :    -0.000000
      g+1     :     0.000000
      g-1     :     0.000000
      g+2     :    -0.000000
      g-2     :    -0.000000
      g+3     :    -0.000000
      g-3     :     0.000000
      g+4     :     0.000000
      g-4     :    -0.000000
      h0      :    -0.000000  h :    -0.000000
      h+1     :    -0.000000
      h-1     :     0.000000
      h+2     :    -0.000000
      h-2     :    -0.000000
      h+3     :    -0.000000
      h-3     :     0.000000
      h+4     :    -0.000000
      h-4     :     0.000000
      h+5     :     0.000000
      h-5     :     0.000000
  2 H s       :    -0.000000  s :    -0.000000
      pz      :    -0.000000  p :    -0.000000
      px      :     0.000000
      py      :    -0.000000
      dz2     :    -0.000000  d :    -0.000000
      dxz     :    -0.000000
      dyz     :    -0.000000
      dx2y2   :     0.000000
      dxy     :     0.000000
      f0      :    -0.000000  f :    -0.000000
      f+1     :    -0.000000
      f-1     :    -0.000000
      f+2     :     0.000000
      f-2     :     0.000000
      f+3     :     0.000000
      f-3     :    -0.000000
      g0      :    -0.000000  g :    -0.000000
      g+1     :    -0.000000
      g-1     :    -0.000000
      g+2     :    -0.000000
      g-2     :    -0.000000
      g+3     :     0.000000
      g-3     :     0.000000
      g+4     :    -0.000000
      g-4     :     0.000000
  3 H s       :    -0.000000  s :    -0.000000
      pz      :     0.000000  p :     0.000000
      px      :     0.000000
      py      :    -0.000000
      dz2     :     0.000000  d :     0.000000
      dxz     :    -0.000000
      dyz     :    -0.000000
      dx2y2   :     0.000000
      dxy     :    -0.000000
      f0      :     0.000000  f :    -0.000000
      f+1     :     0.000000
      f-1     :    -0.000000
      f+2     :    -0.000000
      f-2     :    -0.000000
      f+3     :    -0.000000
      f-3     :    -0.000000
      g0      :    -0.000000  g :    -0.000000
      g+1     :     0.000000
      g-1     :    -0.000000
      g+2     :     0.000000
      g-2     :    -0.000000
      g+3     :    -0.000000
      g-3     :    -0.000000
      g+4     :    -0.000000
      g-4     :     0.000000
  4 H s       :     0.000000  s :     0.000000
      pz      :     0.000000  p :    -0.000000
      px      :    -0.000000
      py      :     0.000000
      dz2     :    -0.000000  d :    -0.000000
      dxz     :    -0.000000
      dyz     :     0.000000
      dx2y2   :    -0.000000
      dxy     :     0.000000
      f0      :     0.000000  f :    -0.000000
      f+1     :    -0.000000
      f-1     :    -0.000000
      f+2     :    -0.000000
      f-2     :     0.000000
      f+3     :    -0.000000
      f-3     :    -0.000000
      g0      :     0.000000  g :    -0.000000
      g+1     :    -0.000000
      g-1     :    -0.000000
      g+2     :    -0.000000
      g-2     :    -0.000000
      g+3     :    -0.000000
      g-3     :     0.000000
      g+4     :    -0.000000
      g-4     :    -0.000000


                     *******************************
                     * LOEWDIN POPULATION ANALYSIS *
                     *******************************

-------------------------------------------
LOEWDIN ATOMIC CHARGES AND SPIN POPULATIONS
-------------------------------------------
   0 Si:    1.477540    0.000000
   1 F :   -0.060480   -0.000000
   2 H :   -0.472341    0.000000
   3 H :   -0.472359    0.000000
   4 H :   -0.472359   -0.000000

----------------------------------------------------
LOEWDIN REDUCED ORBITAL CHARGES AND SPIN POPULATIONS
----------------------------------------------------
CHARGE
  0 Sis       :     4.284735  s :     4.284735
      pz      :     2.290118  p :     7.210765
      px      :     2.460326
      py      :     2.460320
      dz2     :     0.185837  d :     0.617302
      dxz     :     0.144588
      dyz     :     0.144585
      dx2y2   :     0.071150
      dxy     :     0.071142
      f0      :     0.094312  f :     0.273341
      f+1     :     0.072021
      f-1     :     0.072021
      f+2     :     0.011471
      f-2     :     0.011470
      f+3     :     0.000000
      f-3     :     0.012045
      g0      :     0.038762  g :     0.109340
      g+1     :     0.032166
      g-1     :     0.032165
      g+2     :     0.000168
      g-2     :     0.000168
      g+3     :     0.000000
      g-3     :     0.002057
      g+4     :     0.001927
      g-4     :     0.001928
      h0      :     0.009941  h :     0.026978
      h+1     :     0.007634
      h-1     :     0.007634
      h+2     :     0.000295
      h-2     :     0.000295
      h+3     :     0.000000
      h-3     :     0.000085
      h+4     :     0.000243
      h-4     :     0.000243
      h+5     :     0.000305
      h-5     :     0.000305
  1 F s       :     3.388886  s :     3.388886
      pz      :     1.731193  p :     5.071136
      px      :     1.669972
      py      :     1.669971
      dz2     :     0.082323  d :     0.250109
      dxz     :     0.081139
      dyz     :     0.081139
      dx2y2   :     0.002754
      dxy     :     0.002753
      f0      :     0.037348  f :     0.173965
      f+1     :     0.059768
      f-1     :     0.059766
      f+2     :     0.008417
      f-2     :     0.008415
      f+3     :     0.000000
      f-3     :     0.000252
      g0      :     0.022920  g :     0.106781
      g+1     :     0.031051
      g-1     :     0.031050
      g+2     :     0.010200
      g-2     :     0.010199
      g+3     :     0.000000
      g-3     :     0.001332
      g+4     :     0.000015
      g-4     :     0.000015
      h0      :     0.026267  h :     0.069603
      h+1     :     0.013924
      h-1     :     0.013924
      h+2     :     0.006655
      h-2     :     0.006654
      h+3     :     0.000000
      h-3     :     0.001750
      h+4     :     0.000179
      h-4     :     0.000179
      h+5     :     0.000035
      h-5     :     0.000035
  2 H s       :     0.779147  s :     0.779147
      pz      :     0.024965  p :     0.207872
      px      :     0.049482
      py      :     0.133425
      dz2     :     0.035936  d :     0.203659
      dxz     :     0.006995
      dyz     :     0.033614
      dx2y2   :     0.050332
      dxy     :     0.076781
      f0      :     0.015472  f :     0.159278
      f+1     :     0.013593
      f-1     :     0.041939
      f+2     :     0.016092
      f-2     :     0.010791
      f+3     :     0.052252
      f-3     :     0.009140
      g0      :     0.016628  g :     0.122384
      g+1     :     0.002094
      g-1     :     0.023188
      g+2     :     0.019031
      g-2     :     0.022176
      g+3     :     0.007006
      g-3     :     0.008319
      g+4     :     0.002498
      g-4     :     0.021444
  3 H s       :     0.779151  s :     0.779151
      pz      :     0.024967  p :     0.207877
      px      :     0.112441
      py      :     0.070469
      dz2     :     0.035937  d :     0.203665
      dxz     :     0.026962
      dyz     :     0.013650
      dx2y2   :     0.070169
      dxy     :     0.056946
      f0      :     0.015473  f :     0.159282
      f+1     :     0.034853
      f-1     :     0.020679
      f+2     :     0.012117
      f-2     :     0.014767
      f+3     :     0.052252
      f-3     :     0.009141
      g0      :     0.016628  g :     0.122385
      g+1     :     0.017915
      g-1     :     0.007367
      g+2     :     0.021390
      g-2     :     0.019817
      g+3     :     0.007006
      g-3     :     0.008319
      g+4     :     0.016708
      g-4     :     0.007234
  4 H s       :     0.779151  s :     0.779151
      pz      :     0.024967  p :     0.207877
      px      :     0.112441
      py      :     0.070469
      dz2     :     0.035937  d :     0.203665
      dxz     :     0.026962
      dyz     :     0.013650
      dx2y2   :     0.070169
      dxy     :     0.056946
      f0      :     0.015473  f :     0.159282
      f+1     :     0.034853
      f-1     :     0.020679
      f+2     :     0.012117
      f-2     :     0.014767
      f+3     :     0.052252
      f-3     :     0.009141
      g0      :     0.016628  g :     0.122385
      g+1     :     0.017915
      g-1     :     0.007367
      g+2     :     0.021390
      g-2     :     0.019817
      g+3     :     0.007006
      g-3     :     0.008319
      g+4     :     0.016708
      g-4     :     0.007234

SPIN
  0 Sis       :     0.000000  s :     0.000000
      pz      :     0.000000  p :    -0.000000
      px      :     0.000000
      py      :    -0.000000
      dz2     :     0.000000  d :     0.000000
      dxz     :     0.000000
      dyz     :     0.000000
      dx2y2   :    -0.000000
      dxy     :     0.000000
      f0      :     0.000000  f :     0.000000
      f+1     :     0.000000
      f-1     :     0.000000
      f+2     :     0.000000
      f-2     :     0.000000
      f+3     :     0.000000
      f-3     :     0.000000
      g0      :    -0.000000  g :    -0.000000
      g+1     :    -0.000000
      g-1     :     0.000000
      g+2     :     0.000000
      g-2     :    -0.000000
      g+3     :     0.000000
      g-3     :    -0.000000
      g+4     :     0.000000
      g-4     :    -0.000000
      h0      :     0.000000  h :     0.000000
      h+1     :    -0.000000
      h-1     :     0.000000
      h+2     :     0.000000
      h-2     :    -0.000000
      h+3     :    -0.000000
      h-3     :    -0.000000
      h+4     :    -0.000000
      h-4     :    -0.000000
      h+5     :     0.000000
      h-5     :     0.000000
  1 F s       :     0.000000  s :     0.000000
      pz      :    -0.000000  p :    -0.000000
      px      :    -0.000000
      py      :     0.000000
      dz2     :     0.000000  d :     0.000000
      dxz     :    -0.000000
      dyz     :    -0.000000
      dx2y2   :     0.000000
      dxy     :     0.000000
      f0      :    -0.000000  f :    -0.000000
      f+1     :    -0.000000
      f-1     :    -0.000000
      f+2     :    -0.000000
      f-2     :    -0.000000
      f+3     :    -0.000000
      f-3     :    -0.000000
      g0      :     0.000000  g :     0.000000
      g+1     :     0.000000
      g-1     :     0.000000
      g+2     :     0.000000
      g-2     :    -0.000000
      g+3     :     0.000000
      g-3     :    -0.000000
      g+4     :    -0.000000
      g-4     :    -0.000000
      h0      :     0.000000  h :     0.000000
      h+1     :    -0.000000
      h-1     :    -0.000000
      h+2     :     0.000000
      h-2     :     0.000000
      h+3     :     0.000000
      h-3     :     0.000000
      h+4     :     0.000000
      h-4     :    -0.000000
      h+5     :     0.000000
      h-5     :     0.000000
  2 H s       :    -0.000000  s :    -0.000000
      pz      :    -0.000000  p :     0.000000
      px      :     0.000000
      py      :     0.000000
      dz2     :    -0.000000  d :    -0.000000
      dxz     :    -0.000000
      dyz     :    -0.000000
      dx2y2   :    -0.000000
      dxy     :     0.000000
      f0      :    -0.000000  f :    -0.000000
      f+1     :    -0.000000
      f-1     :    -0.000000
      f+2     :     0.000000
      f-2     :     0.000000
      f+3     :    -0.000000
      f-3     :     0.000000
      g0      :    -0.000000  g :    -0.000000
      g+1     :     0.000000
      g-1     :     0.000000
      g+2     :    -0.000000
      g-2     :    -0.000000
      g+3     :     0.000000
      g-3     :    -0.000000
      g+4     :    -0.000000
      g-4     :     0.000000
  3 H s       :     0.000000  s :     0.000000
      pz      :     0.000000  p :     0.000000
      px      :     0.000000
      py      :     0.000000
      dz2     :     0.000000  d :    -0.000000
      dxz     :    -0.000000
      dyz     :    -0.000000
      dx2y2   :    -0.000000
      dxy     :    -0.000000
      f0      :    -0.000000  f :    -0.000000
      f+1     :    -0.000000
      f-1     :    -0.000000
      f+2     :     0.000000
      f-2     :     0.000000
      f+3     :    -0.000000
      f-3     :    -0.000000
      g0      :    -0.000000  g :     0.000000
      g+1     :     0.000000
      g-1     :     0.000000
      g+2     :     0.000000
      g-2     :    -0.000000
      g+3     :    -0.000000
      g-3     :    -0.000000
      g+4     :     0.000000
      g-4     :    -0.000000
  4 H s       :    -0.000000  s :    -0.000000
      pz      :    -0.000000  p :     0.000000
      px      :     0.000000
      py      :     0.000000
      dz2     :    -0.000000  d :    -0.000000
      dxz     :    -0.000000
      dyz     :     0.000000
      dx2y2   :    -0.000000
      dxy     :    -0.000000
      f0      :    -0.000000  f :     0.000000
      f+1     :     0.000000
      f-1     :    -0.000000
      f+2     :     0.000000
      f-2     :     0.000000
      f+3     :    -0.000000
      f-3     :    -0.000000
      g0      :    -0.000000  g :    -0.000000
      g+1     :     0.000000
      g-1     :     0.000000
      g+2     :    -0.000000
      g-2     :    -0.000000
      g+3     :     0.000000
      g-3     :    -0.000000
      g+4     :     0.000000
      g-4     :    -0.000000


                      *****************************
                      * MAYER POPULATION ANALYSIS *
                      *****************************

  NA   - Mulliken gross atomic population
  ZA   - Total nuclear charge
  QA   - Mulliken gross atomic charge
  VA   - Mayer's total valence
  BVA  - Mayer's bonded valence
  FA   - Mayer's free valence

  ATOM       NA         ZA         QA         VA         BVA        FA
  0 Si    13.1074    14.0000     0.8926     3.9114     3.9114     0.0000
  1 F      9.3619     9.0000    -0.3619     1.3382     1.3382    -0.0000
  2 H      1.1771     1.0000    -0.1771     0.8436     0.8436    -0.0000
  3 H      1.1768     1.0000    -0.1768     0.8436     0.8436     0.0000
  4 H      1.1768     1.0000    -0.1768     0.8436     0.8436    -0.0000

  Mayer bond orders larger than 0.1
B(  0-Si,  1-F ) :   1.1933 B(  0-Si,  2-H ) :   0.9060 B(  0-Si,  3-H ) :   0.9061 
B(  0-Si,  4-H ) :   0.9061 

-------
TIMINGS
-------

Total SCF time: 0 days 0 hours 42 min 41 sec 

Total time                  ....    2561.192 sec
Sum of individual times     ....    2559.944 sec  (100.0%)

Fock matrix formation       ....    2552.469 sec  ( 99.7%)
  XC integration            ....      31.480 sec  (  1.2% of F)
    Basis function eval.    ....       1.957 sec  (  6.2% of XC)
    Density eval.           ....       8.783 sec  ( 27.9% of XC)
    XC-Functional eval.     ....       0.184 sec  (  0.6% of XC)
    XC-Potential eval.      ....      19.792 sec  ( 62.9% of XC)
Diagonalization             ....       3.355 sec  (  0.1%)
Density matrix formation    ....       0.050 sec  (  0.0%)
Population analysis         ....       0.325 sec  (  0.0%)
Initial guess               ....       1.523 sec  (  0.1%)
Orbital Transformation      ....       0.000 sec  (  0.0%)
Orbital Orthonormalization  ....       0.000 sec  (  0.0%)
DIIS solution               ....       1.710 sec  (  0.1%)
Grid generation             ....       0.513 sec  (  0.0%)

-------------------------   --------------------
FINAL SINGLE POINT ENERGY      -391.005867905694
-------------------------   --------------------


                            ***************************************
                            *     ORCA property calculations      *
                            ***************************************

                                    ---------------------
                                    Active property flags
                                    ---------------------
   (+) Dipole Moment
   (+) Polarizability


------------------------------------------------------------------------------
                       ORCA ELECTRIC PROPERTIES CALCULATION
------------------------------------------------------------------------------

Dipole Moment Calculation                       ... on
Quadrupole Moment Calculation                   ... off
Polarizability Calculation                      ... Analytic (CP-SCF)
GBWName                                         ... sih3f_pbe.gbw
Electron density file                           ... sih3f_pbe.scfp.tmp
The origin for moment calculation is the CENTER OF MASS  = ( 0.000000,  0.000004 -0.147430)

-------------
DIPOLE MOMENT
-------------
                                X             Y             Z
Electronic contribution:     -0.00000      -0.00014      -3.37342
Nuclear contribution   :      0.00000       0.00009       3.83545
                        -----------------------------------------
Total Dipole Moment    :     -0.00000      -0.00005       0.46203
                        -----------------------------------------
Magnitude (a.u.)       :      0.46203
Magnitude (Debye)      :      1.17438



--------------------
Rotational spectrum 
--------------------
 
Rotational constants in cm-1:     2.837384     0.478111     0.478110 
Rotational constants in MHz : 85062.627148 14333.413377 14333.371477 

 Dipole components along the rotational axes: 
x,y,z [a.u.] :    -0.462029    -0.000000     0.000048 
x,y,z [Debye]:    -1.174385    -0.000000     0.000121 

 
Transforming and storing MO dipole integrals   ... done

                ... starting polarizability calculation

Opening the Dipole integral file               ... (sih3f_pbe.dmo.tmp) done
Reading Dipole-MO integrals                    ... done
Solving CP-SCF equations                       ... 

           ************************************************************
           *        Program running with 4 parallel MPI-processes     *
           *              working on a common directory               *
           ************************************************************

------------------------------------------------------------------------------
                           ORCA CP-SCF CALCULATION
------------------------------------------------------------------------------

Input orbitals are from        ... sih3f_pbe.gbw
Input Perturbation             ... sih3f_pbe.cpv.tmp
Wavefunction output            ... sih3f_pbe.cpu.tmp
Perturbation mode              ... Real perturbation (singlet)
Solver                         ... POPLE
Max. number of iterations      ... 200
Convergence tolerance          ... 1.000e-06
Integral handling              ... Direct
Number of perturbations        ... 3
Number of operators            ... 2
Orbital ranges used for CP-SCF:
 Operator 0:  Orbitals   0... 12  to  13...549
 Operator 1:  Orbitals   0... 12  to  13...549
DFT calculation                         ... on
Exchange functional (SCF)               ... PBE
Exchange functional (CP-SCF)            ... PBE
   PBE kappa parameter  XKappa (SCF)    ...  0.804000
   PBE kappa parameter  XKappa (CP-SCF) ...  0.804000
   PBE mue parameter   XMuePBE (SCF)    ...  0.219520
   PBE mue parameter   XMuePBE (CP-SCF) ...  0.219520
Correlation functional (SCF)            ... PBE
Correlation functional (CP-SCF)         ... PBE
   PBE beta parameter CBetaPBE (SCF)    ...  0.066725
   PBE beta parameter CBetaPBE (CP-SCF) ...  0.066725
 LDA part of GGA corr.  LDAOpt (SCF)    ... PW91-LDA
 LDA part of GGA corr.  LDAOpt (CP-SCF) ... PW91-LDA
Variables per vector in CP-SCF ... 13962
Number of vectors sought       ... 3
Recalculating density on grid  ... done
Calculating the xc-kernel      ... done
     CP-SCF ITERATION   0: 
     CP-SCF ITERATION   1:      0.312601463799
     CP-SCF ITERATION   2:      0.005146442445
     CP-SCF ITERATION   3:      0.000288851908
     CP-SCF ITERATION   4:      0.000008076927
     CP-SCF ITERATION   5:      0.000000086717
done
Reading CP-SCF coefficients                    ... done
Doing the polarizability tensor   ... done
Cleaning up                                    ... done

-------------------------
THE POLARIZABILITY TENSOR
-------------------------

The raw cartesian tensor (atomic units):
   30.83059      0.00000      0.00000  
    0.00000     30.83078      0.00023  
    0.00000      0.00023     28.22520  
diagonalized tensor: 
   28.22520     30.83059     30.83078  

   -0.00000     -1.00000     -0.00005  
   -0.00009      0.00005     -1.00000  
    1.00000      0.00000     -0.00009  

Isotropic polarizability :  29.96219


Timings for individual modules:

Sum of individual times         ...     4368.115 sec (=  72.802 min)
GTO integral calculation        ...        2.467 sec (=   0.041 min)   0.1 %
SCF iterations                  ...     2561.503 sec (=  42.692 min)  58.6 %
Solution of CP-SCF eqns.        ...     1804.145 sec (=  30.069 min)  41.3 %
                             ****ORCA TERMINATED NORMALLY****
TOTAL RUN TIME: 0 days 1 hours 12 minutes 49 seconds 123 msec
