
                                 *****************
                                 * O   R   C   A *
                                 *****************

           --- An Ab Initio, DFT and Semiempirical electronic structure package ---

                  #######################################################
                  #                        -***-                        #
                  #          Department of theory and spectroscopy      #
                  #               Directorship: Frank Neese             #
                  #        Max Planck Institute fuer Kohlenforschung    #
                  #                Kaiser Wilhelm Platz 1               #
                  #                 D-45470 Muelheim/Ruhr               #
                  #                      Germany                        #
                  #                                                     #
                  #                  All rights reserved                #
                  #                        -***-                        #
                  #######################################################


                         Program Version 4.1.2  - RELEASE  -


 With contributions from (in alphabetic order):
   Daniel Aravena         : Magnetic Properties
   Michael Atanasov       : Ab Initio Ligand Field Theory
   Alexander A. Auer      : GIAO ZORA
   Ute Becker             : Parallelization
   Giovanni Bistoni       : ED, Open-shell LED
   Martin Brehm           : Molecular dynamics
   Dmytro Bykov           : SCF Hessian
   Vijay G. Chilkuri      : MRCI spin determinant printing
   Dipayan Datta          : RHF DLPNO-CCSD density
   Achintya Kumar Dutta   : EOM-CC, STEOM-CC
   Dmitry Ganyushin       : Spin-Orbit,Spin-Spin,Magnetic field MRCI
   Miquel Garcia          : C-PCM Hessian
   Yang Guo               : DLPNO-NEVPT2, CIM, IAO-localization
   Andreas Hansen         : Spin unrestricted coupled pair/coupled cluster methods
   Benjamin Helmich-Paris : CASSCF linear response (MC-RPA)
   Lee Huntington         : MR-EOM, pCC
   Robert Izsak           : Overlap fitted RIJCOSX, COSX-SCS-MP3, EOM
   Christian Kollmar      : KDIIS, OOCD, Brueckner-CCSD(T), CCSD density
   Simone Kossmann        : Meta GGA functionals, TD-DFT gradient, OOMP2, MP2 Hessian
   Martin Krupicka        : AUTO-CI
   Lucas Lang             : DCDCAS
   Dagmar Lenk            : GEPOL surface, SMD
   Dimitrios Liakos       : Extrapolation schemes; parallel MDCI
   Dimitrios Manganas     : ROCIS; embedding schemes
   Dimitrios Pantazis     : SARC Basis sets
   Taras Petrenko         : DFT Hessian,TD-DFT gradient, ASA, ECA, R-Raman, ABS, FL, XAS/XES, NRVS
   Peter Pinski           : DLPNO-MP2, DLPNO-MP2 Gradient
   Christoph Reimann      : Effective Core Potentials
   Marius Retegan         : Local ZFS, SOC
   Christoph Riplinger    : Optimizer, TS searches, QM/MM, DLPNO-CCSD(T), (RO)-DLPNO pert. Triples
   Tobias Risthaus        : Range-separated hybrids, TD-DFT gradient, RPA, STAB
   Michael Roemelt        : Restricted open shell CIS
   Masaaki Saitow         : Open-shell DLPNO
   Barbara Sandhoefer     : DKH picture change effects
   Avijit Sen             : IP-ROCIS
   Kantharuban Sivalingam : CASSCF convergence, NEVPT2, FIC-MRCI
   Bernardo de Souza      : ESD, SOC TD-DFT
   Georgi Stoychev        : AutoAux, RI-MP2 NMR
   Willem Van den Heuvel  : Paramagnetic NMR
   Boris Wezisla          : Elementary symmetry handling
   Frank Wennmohs         : Technical directorship


 We gratefully acknowledge several colleagues who have allowed us to
 interface, adapt or use parts of their codes:
   Stefan Grimme, W. Hujo, H. Kruse,             : VdW corrections, initial TS optimization,
                  C. Bannwarth                     DFT functionals, gCP, sTDA/sTD-DF
   Ed Valeev                                     : LibInt (2-el integral package), F12 methods
   Garnet Chan, S. Sharma, J. Yang, R. Olivares  : DMRG
   Ulf Ekstrom                                   : XCFun DFT Library
   Mihaly Kallay                                 : mrcc  (arbitrary order and MRCC methods)
   Andreas Klamt, Michael Diedenhofen            : otool_cosmo (COSMO solvation model)
   Jiri Pittner, Ondrej Demel                    : Mk-CCSD
   Frank Weinhold                                : gennbo (NPA and NBO analysis)
   Christopher J. Cramer and Donald G. Truhlar   : smd solvation model
   Lars Goerigk                                  : TD-DFT with DH, B97 family of functionals
   V. Asgeirsson, H. Jonsson                     : NEB implementation
   FAccTs GmbH                                   : IRC, NEB, NEB-TS, Multilevel


 Your calculation uses the libint2 library for the computation of 2-el integrals
 For citations please refer to: http://libint.valeyev.net

 This ORCA versions uses:
   CBLAS   interface :  Fast vector & matrix operations
   LAPACKE interface :  Fast linear algebra routines
   SCALAPACK package :  Parallel linear algebra routines


----- Orbital basis set information -----
Your calculation utilizes the basis: aug-pc-4
   H, C-F              : F. Jensen, J. Chem. Phys. 115, 9113 (2001).
                         F. Jensen, J. Chem. Phys. 116, 7372 (2002).
                         F. Jensen, J. Chem. Phys. 117, 9234 (2002).
   Si-Cl               : F. Jensen, T. Helgaker, J. Chem. Phys. 121, 3463 (2004).
   He-B, Ne-Mg, Al, Ar : F. Jensen, J. Phys. Chem. A 111, 11198 (2007).
   K, Ca, Ga-Kr        : F. Jensen, J. Chem. Phys. 136, 094110 (2012).
   Sc-Zn               : F. Jensen, J. Chem. Phys. 138, 014107 (2013).

================================================================================
                                        WARNINGS
                       Please study these warnings very carefully!
================================================================================


INFO   : the flag for use of LIBINT has been found!

================================================================================
                                       INPUT FILE
================================================================================
NAME = sih4_pbe.inp
|  1> !uks pbe nori aug-pc-4 grid5 nofinalgrid verytightscf
|  2> 
|  3> %maxcore 1500
|  4> 
|  5> %pal nprocs 4 end
|  6> 
|  7> %scf
|  8> 	maxiter 200
|  9> end
| 10> %elprop
| 11> 	dipole true
| 12> 	 polar 1
| 13> 	 maxiter 200
| 14> end
| 15> 
| 16> * xyz 0 1
| 17> Si 0.0000 0.0000 0.0000
| 18> H 0.8544 0.8544 0.8544
| 19> H -0.8544 -0.8544 0.8544
| 20> H -0.8544 0.8544 -0.8544
| 21> H 0.8544 -0.8544 -0.8544
| 22> *
| 23> 
| 24>                          ****END OF INPUT****
================================================================================

                       ****************************
                       * Single Point Calculation *
                       ****************************

---------------------------------
CARTESIAN COORDINATES (ANGSTROEM)
---------------------------------
  Si     0.000000    0.000000    0.000000
  H      0.854400    0.854400    0.854400
  H     -0.854400   -0.854400    0.854400
  H     -0.854400    0.854400   -0.854400
  H      0.854400   -0.854400   -0.854400

----------------------------
CARTESIAN COORDINATES (A.U.)
----------------------------
  NO LB      ZA    FRAG     MASS         X           Y           Z
   0 Si   14.0000    0    28.086    0.000000    0.000000    0.000000
   1 H     1.0000    0     1.008    1.614582    1.614582    1.614582
   2 H     1.0000    0     1.008   -1.614582   -1.614582    1.614582
   3 H     1.0000    0     1.008   -1.614582    1.614582   -1.614582
   4 H     1.0000    0     1.008    1.614582   -1.614582   -1.614582

--------------------------------
INTERNAL COORDINATES (ANGSTROEM)
--------------------------------
 Si     0   0   0     0.000000000000     0.00000000     0.00000000
 H      1   0   0     1.479864209987     0.00000000     0.00000000
 H      1   2   0     1.479864209987   109.47122063     0.00000000
 H      1   2   3     1.479864209987   109.47122063   120.00000000
 H      1   2   3     1.479864209987   109.47122063   240.00000000

---------------------------
INTERNAL COORDINATES (A.U.)
---------------------------
 Si     0   0   0     0.000000000000     0.00000000     0.00000000
 H      1   0   0     2.796538072267     0.00000000     0.00000000
 H      1   2   0     2.796538072267   109.47122063     0.00000000
 H      1   2   3     2.796538072267   109.47122063   120.00000000
 H      1   2   3     2.796538072267   109.47122063   240.00000000

---------------------
BASIS SET INFORMATION
---------------------
There are 2 groups of distinct atoms

 Group   1 Type Si  : 44s27p7d4f3g2h contracted to 8s7p7d4f3g2h pattern {15121211111/111111111/1111111/1111/111/11}
 Group   2 Type H   : 12s7p4d3f2g contracted to 8s7p4d3f2g pattern {51111111/1111111/1111/111/11}

Atom   0Si   basis set group =>   1
Atom   1H    basis set group =>   2
Atom   2H    basis set group =>   2
Atom   3H    basis set group =>   2
Atom   4H    basis set group =>   2


           ************************************************************
           *        Program running with 4 parallel MPI-processes     *
           *              working on a common directory               *
           ************************************************************
------------------------------------------------------------------------------
                           ORCA GTO INTEGRAL CALCULATION
------------------------------------------------------------------------------

                         BASIS SET STATISTICS AND STARTUP INFO

 # of primitive gaussian shells          ...  199
 # of primitive gaussian functions       ...  605
 # of contracted shells                  ...  127
 # of contracted basis functions         ...  493
 Highest angular momentum                ...    5
 Maximum contraction depth               ...   15
 Integral package used                   ... LIBINT
 Integral threshhold            Thresh   ...  1.000e-12
 Primitive cut-off              TCut     ...  1.000e-14


------------------------------ INTEGRAL EVALUATION ----------------------------


 * One electron integrals 
 Pre-screening matrix                    ... done
 Shell pair data                         ... done (   0.003 sec)



           ************************************************************
           *        Program running with 4 parallel MPI-processes     *
           *              working on a common directory               *
           ************************************************************
-------------------------------------------------------------------------------
                                 ORCA SCF
-------------------------------------------------------------------------------

------------
SCF SETTINGS
------------
Hamiltonian:
 Density Functional     Method          .... DFT(GTOs)
 Exchange Functional    Exchange        .... PBE
   PBE kappa parameter   XKappa         ....  0.804000
   PBE mue parameter    XMuePBE         ....  0.219520
 Correlation Functional Correlation     .... PBE
   PBE beta parameter  CBetaPBE         ....  0.066725
 LDA part of GGA corr.  LDAOpt          .... PW91-LDA
 Gradients option       PostSCFGGA      .... off
   Density functional embedding theory  .... OFF
   NL short-range parameter             ....  6.400000


General Settings:
 Integral files         IntName         .... sih4_pbe
 Hartree-Fock type      HFTyp           .... UHF
 Total Charge           Charge          ....    0
 Multiplicity           Mult            ....    1
 Number of Electrons    NEL             ....   18
 Basis Dimension        Dim             ....  493
 Nuclear Repulsion      ENuc            ....     21.3386097640 Eh

Convergence Acceleration:
 DIIS                   CNVDIIS         .... on
   Start iteration      DIISMaxIt       ....    12
   Startup error        DIISStart       ....  0.200000
   # of expansion vecs  DIISMaxEq       ....     5
   Bias factor          DIISBfac        ....   1.050
   Max. coefficient     DIISMaxC        ....  10.000
 Newton-Raphson         CNVNR           .... off
 SOSCF                  CNVSOSCF        .... off
 Level Shifting         CNVShift        .... on
   Level shift para.    LevelShift      ....    0.2500
   Turn off err/grad.   ShiftErr        ....    0.0010
 Zerner damping         CNVZerner       .... off
 Static damping         CNVDamp         .... on
   Fraction old density DampFac         ....    0.7000
   Max. Damping (<1)    DampMax         ....    0.9800
   Min. Damping (>=0)   DampMin         ....    0.0000
   Turn off err/grad.   DampErr         ....    0.1000
 Fernandez-Rico         CNVRico         .... off

SCF Procedure:
 Maximum # iterations   MaxIter         ....   200
 SCF integral mode      SCFMode         .... Direct
   Integral package                     .... LIBINT
 Reset frequency        DirectResetFreq ....    20
 Integral Threshold     Thresh          ....  1.000e-12 Eh
 Primitive CutOff       TCut            ....  1.000e-14 Eh

Convergence Tolerance:
 Convergence Check Mode ConvCheckMode   .... Total+1el-Energy
 Convergence forced     ConvForced      .... 0
 Energy Change          TolE            ....  1.000e-09 Eh
 1-El. energy change                    ....  1.000e-06 Eh
 DIIS Error             TolErr          ....  1.000e-08


Diagonalization of the overlap matrix:
Smallest eigenvalue                        ... 1.346e-06
Time for diagonalization                   ...    0.050 sec
Threshold for overlap eigenvalues          ... 1.000e-08
Number of eigenvalues below threshold      ... 0
Time for construction of square roots      ...    0.042 sec
Total time needed                          ...    0.093 sec

-------------------
DFT GRID GENERATION
-------------------

General Integration Accuracy     IntAcc      ...  5.010
Radial Grid Type                 RadialGrid  ... Gauss-Chebyshev
Angular Grid (max. acc.)         AngularGrid ... Lebedev-434
Angular grid pruning method      GridPruning ... 3 (G Style)
Weight generation scheme         WeightScheme... Becke
Basis function cutoff            BFCut       ...    1.0000e-12
Integration weight cutoff        WCut        ...    1.0000e-14
Grids for H and He will be reduced by one unit

# of grid points (after initial pruning)     ...  38400 (   0.0 sec)
# of grid points (after weights+screening)   ...  37604 (   0.0 sec)
nearest neighbour list constructed           ...    0.0 sec
Grid point re-assignment to atoms done       ...    0.0 sec
Grid point division into batches done        ...    0.2 sec
Reduced shell lists constructed in    0.4 sec

Total number of grid points                  ...    37604
Total number of batches                      ...      591
Average number of points per batch           ...       63
Average number of grid points per atom       ...     7521
Average number of shells per batch           ...    97.97 (77.14%)
Average number of basis functions per batch  ...   390.81 (79.27%)
Average number of large shells per batch     ...    88.27 (90.10%)
Average number of large basis fcns per batch ...   352.31 (90.15%)
Maximum spatial batch extension              ...  19.19, 19.19, 18.05 au
Average spatial batch extension              ...   0.66,  0.68,  0.66 au

Time for grid setup =    0.427 sec

------------------------------
INITIAL GUESS: MODEL POTENTIAL
------------------------------
Loading Hartree-Fock densities                     ... done
Calculating cut-offs                               ... done
Setting up the integral package                    ... done
Initializing the effective Hamiltonian             ... done
Starting the Coulomb interaction                   ... done (   0.0 sec)
Reading the grid                                   ... done
Mapping shells                                     ... done
Starting the XC term evaluation                    ... done (   1.1 sec)
  promolecular density results
     # of electrons  =     17.998054163
     EX              =    -21.369080011
     EC              =     -0.617790947
     EX+EC           =    -21.986870958
Transforming the Hamiltonian                       ... done (   0.0 sec)
Diagonalizing the Hamiltonian                      ... done (   0.1 sec)
Back transforming the eigenvectors                 ... done (   0.0 sec)
Now organizing SCF variables                       ... done
                      ------------------
                      INITIAL GUESS DONE (   1.8 sec)
                      ------------------
--------------
SCF ITERATIONS
--------------
ITER       Energy         Delta-E        Max-DP      RMS-DP      [F,P]     Damp
               ***  Starting incremental Fock matrix formation  ***
  0   -291.7213345818   0.000000000000 0.01952369  0.00013566  0.0511449 0.7000
  1   -291.7257409637  -0.004406381961 0.01788802  0.00010423  0.0366058 0.7000
                               ***Turning on DIIS***
  2   -291.7285742423  -0.002833278607 0.03954296  0.00020597  0.0237379 0.0000
  3   -291.7333295929  -0.004755350555 0.00982608  0.00008112  0.0078395 0.0000
  4   -291.7337307825  -0.000401189619 0.00148922  0.00001252  0.0025909 0.0000
  5   -291.7337571849  -0.000026402434 0.00162304  0.00000643  0.0005918 0.0000
  6   -291.7337599471  -0.000002762142 0.00057462  0.00000290  0.0002355 0.0000
  7   -291.7337600326  -0.000000085489 0.00007430  0.00000047  0.0000629 0.0000
  8   -291.7337600377  -0.000000005160 0.00000464  0.00000003  0.0000021 0.0000
  9   -291.7337600377  -0.000000000008 0.00000682  0.00000004  0.0000008 0.0000
 10   -291.7337600377  -0.000000000012 0.00002322  0.00000011  0.0000001 0.0000
                 **** Energy Check signals convergence ****

               *****************************************************
               *                     SUCCESS                       *
               *           SCF CONVERGED AFTER  11 CYCLES          *
               *****************************************************


----------------
TOTAL SCF ENERGY
----------------

Total Energy       :         -291.73376004 Eh           -7938.47920 eV

Components:
Nuclear Repulsion  :           21.33860976 Eh             580.65309 eV
Electronic Energy  :         -313.07236980 Eh           -8519.13229 eV
One Electron Energy:         -445.97210773 Eh          -12135.51801 eV
Two Electron Energy:          132.89973793 Eh            3616.38572 eV

Virial components:
Potential Energy   :         -583.19737058 Eh          -15869.60725 eV
Kinetic Energy     :          291.46361054 Eh            7931.12805 eV
Virial Ratio       :            2.00092687


DFT components:
N(Alpha)           :        9.000002200906 electrons
N(Beta)            :        9.000002200906 electrons
N(Total)           :       18.000004401811 electrons
E(X)               :      -21.589122375601 Eh       
E(C)               :       -0.614943778640 Eh       
E(XC)              :      -22.204066154241 Eh       
DFET-embed. en.    :        0.000000000000 Eh       

---------------
SCF CONVERGENCE
---------------

  Last Energy change         ...    2.6716e-12  Tolerance :   1.0000e-09
  Last MAX-Density change    ...    1.5204e-05  Tolerance :   1.0000e-08
  Last RMS-Density change    ...    5.5428e-08  Tolerance :   1.0000e-09
  Last DIIS Error            ...    1.8912e-09  Tolerance :   1.0000e-08

             **** THE GBW FILE WAS UPDATED (sih4_pbe.gbw) ****
             **** DENSITY FILE WAS UPDATED (sih4_pbe.scfp.tmp) ****
             **** ENERGY FILE WAS UPDATED (sih4_pbe.en.tmp) ****
----------------------
UHF SPIN CONTAMINATION
----------------------

Warning: in a DFT calculation there is little theoretical justification to 
         calculate <S**2> as in Hartree-Fock theory. We will do it anyways
         but you should keep in mind that the values have only limited relevance

Expectation value of <S**2>     :     0.000000
Ideal value S*(S+1) for S=0.0   :     0.000000
Deviation                       :     0.000000

----------------
ORBITAL ENERGIES
----------------
                 SPIN UP ORBITALS
  NO   OCC          E(Eh)            E(eV) 
   0   1.0000     -65.375476     -1778.9571 
   1   1.0000      -5.044505      -137.2680 
   2   1.0000      -3.453303       -93.9691 
   3   1.0000      -3.453303       -93.9691 
   4   1.0000      -3.453303       -93.9691 
   5   1.0000      -0.494797       -13.4641 
   6   1.0000      -0.313207        -8.5228 
   7   1.0000      -0.313207        -8.5228 
   8   1.0000      -0.313207        -8.5228 
   9   0.0000      -0.017721        -0.4822 
  10   0.0000      -0.002377        -0.0647 
  11   0.0000      -0.002377        -0.0647 
  12   0.0000      -0.002377        -0.0647 
  13   0.0000       0.013895         0.3781 
  14   0.0000       0.013895         0.3781 
  15   0.0000       0.013895         0.3781 
  16   0.0000       0.034236         0.9316 
  17   0.0000       0.038017         1.0345 
  18   0.0000       0.038017         1.0345 
  19   0.0000       0.038017         1.0345 
  20   0.0000       0.038562         1.0493 
  21   0.0000       0.038562         1.0493 
  22   0.0000       0.062653         1.7049 
  23   0.0000       0.062653         1.7049 
  24   0.0000       0.062653         1.7049 
  25   0.0000       0.089207         2.4275 
  26   0.0000       0.100309         2.7296 
  27   0.0000       0.100309         2.7296 
  28   0.0000       0.100310         2.7296 
  29   0.0000       0.103000         2.8028 
  30   0.0000       0.103000         2.8028 
  31   0.0000       0.112757         3.0683 
  32   0.0000       0.112757         3.0683 
  33   0.0000       0.112757         3.0683 
  34   0.0000       0.125473         3.4143 
  35   0.0000       0.125473         3.4143 
  36   0.0000       0.125473         3.4143 
  37   0.0000       0.127567         3.4713 
  38   0.0000       0.155726         4.2375 
  39   0.0000       0.155726         4.2375 
  40   0.0000       0.155726         4.2375 
  41   0.0000       0.168694         4.5904 
  42   0.0000       0.170287         4.6337 
  43   0.0000       0.170287         4.6338 
  44   0.0000       0.170287         4.6338 
  45   0.0000       0.176240         4.7957 
  46   0.0000       0.180030         4.8989 
  47   0.0000       0.180031         4.8989 
  48   0.0000       0.180032         4.8989 
  49   0.0000       0.203151         5.5280 
  50   0.0000       0.203151         5.5280 
  51   0.0000       0.219607         5.9758 
  52   0.0000       0.219607         5.9758 
  53   0.0000       0.219608         5.9758 
  54   0.0000       0.234760         6.3881 
  55   0.0000       0.234760         6.3881 
  56   0.0000       0.245614         6.6835 
  57   0.0000       0.245614         6.6835 
  58   0.0000       0.245614         6.6835 
  59   0.0000       0.258019         7.0210 
  60   0.0000       0.258020         7.0211 
  61   0.0000       0.258021         7.0211 
  62   0.0000       0.282492         7.6870 
  63   0.0000       0.282493         7.6870 
  64   0.0000       0.282495         7.6871 
  65   0.0000       0.286695         7.8014 
  66   0.0000       0.286695         7.8014 
  67   0.0000       0.286695         7.8014 
  68   0.0000       0.291276         7.9260 
  69   0.0000       0.293684         7.9915 
  70   0.0000       0.293684         7.9915 
  71   0.0000       0.316690         8.6176 
  72   0.0000       0.316691         8.6176 
  73   0.0000       0.316691         8.6176 
  74   0.0000       0.329564         8.9679 
  75   0.0000       0.335975         9.1423 
  76   0.0000       0.335976         9.1424 
  77   0.0000       0.335976         9.1424 
  78   0.0000       0.344423         9.3722 
  79   0.0000       0.344423         9.3722 
  80   0.0000       0.344423         9.3722 
  81   0.0000       0.362333         9.8596 
  82   0.0000       0.377937        10.2842 
  83   0.0000       0.377937        10.2842 
  84   0.0000       0.377939        10.2842 
  85   0.0000       0.385477        10.4894 
  86   0.0000       0.385477        10.4894 
  87   0.0000       0.399363        10.8672 
  88   0.0000       0.399363        10.8672 
  89   0.0000       0.399364        10.8672 
  90   0.0000       0.438071        11.9205 
  91   0.0000       0.438071        11.9205 
  92   0.0000       0.438071        11.9205 
  93   0.0000       0.443905        12.0793 
  94   0.0000       0.447150        12.1676 
  95   0.0000       0.447150        12.1676 
  96   0.0000       0.469648        12.7798 
  97   0.0000       0.469649        12.7798 
  98   0.0000       0.469650        12.7798 
  99   0.0000       0.479030        13.0351 
 100   0.0000       0.491040        13.3619 
 101   0.0000       0.491040        13.3619 
 102   0.0000       0.491040        13.3619 
 103   0.0000       0.503141        13.6912 
 104   0.0000       0.503143        13.6912 
 105   0.0000       0.503145        13.6913 
 106   0.0000       0.503514        13.7013 
 107   0.0000       0.503514        13.7013 
 108   0.0000       0.518639        14.1129 
 109   0.0000       0.518639        14.1129 
 110   0.0000       0.518639        14.1129 
 111   0.0000       0.539263        14.6741 
 112   0.0000       0.539265        14.6741 
 113   0.0000       0.539266        14.6742 
 114   0.0000       0.549969        14.9654 
 115   0.0000       0.549969        14.9654 
 116   0.0000       0.549969        14.9654 
 117   0.0000       0.571014        15.5381 
 118   0.0000       0.571014        15.5381 
 119   0.0000       0.571015        15.5381 
 120   0.0000       0.573748        15.6125 
 121   0.0000       0.573748        15.6125 
 122   0.0000       0.577516        15.7150 
 123   0.0000       0.577517        15.7150 
 124   0.0000       0.577517        15.7150 
 125   0.0000       0.596616        16.2347 
 126   0.0000       0.633339        17.2340 
 127   0.0000       0.633340        17.2340 
 128   0.0000       0.633340        17.2340 
 129   0.0000       0.656086        17.8530 
 130   0.0000       0.659428        17.9439 
 131   0.0000       0.659428        17.9439 
 132   0.0000       0.659428        17.9439 
 133   0.0000       0.670005        18.2318 
 134   0.0000       0.670005        18.2318 
 135   0.0000       0.684426        18.6242 
 136   0.0000       0.684427        18.6242 
 137   0.0000       0.684427        18.6242 
 138   0.0000       0.691973        18.8295 
 139   0.0000       0.692156        18.8345 
 140   0.0000       0.692157        18.8345 
 141   0.0000       0.692157        18.8346 
 142   0.0000       0.717784        19.5319 
 143   0.0000       0.717784        19.5319 
 144   0.0000       0.717784        19.5319 
 145   0.0000       0.723189        19.6790 
 146   0.0000       0.755930        20.5699 
 147   0.0000       0.755930        20.5699 
 148   0.0000       0.776746        21.1363 
 149   0.0000       0.776748        21.1364 
 150   0.0000       0.776749        21.1364 
 151   0.0000       0.809242        22.0206 
 152   0.0000       0.809242        22.0206 
 153   0.0000       0.809243        22.0206 
 154   0.0000       0.812170        22.1003 
 155   0.0000       0.812170        22.1003 
 156   0.0000       0.812170        22.1003 
 157   0.0000       0.824003        22.4223 
 158   0.0000       0.831377        22.6229 
 159   0.0000       0.831378        22.6229 
 160   0.0000       0.831379        22.6230 
 161   0.0000       0.840836        22.8803 
 162   0.0000       0.840836        22.8803 
 163   0.0000       0.847219        23.0540 
 164   0.0000       0.847220        23.0540 
 165   0.0000       0.847220        23.0540 
 166   0.0000       0.880773        23.9670 
 167   0.0000       0.880774        23.9671 
 168   0.0000       0.880775        23.9671 
 169   0.0000       0.915123        24.9018 
 170   0.0000       0.915123        24.9018 
 171   0.0000       0.918938        25.0056 
 172   0.0000       0.918938        25.0056 
 173   0.0000       0.918940        25.0056 
 174   0.0000       0.921375        25.0719 
 175   0.0000       0.921375        25.0719 
 176   0.0000       0.921375        25.0719 
 177   0.0000       0.945481        25.7278 
 178   0.0000       0.945482        25.7279 
 179   0.0000       0.945483        25.7279 
 180   0.0000       1.001450        27.2509 
 181   0.0000       1.032452        28.0944 
 182   0.0000       1.032452        28.0945 
 183   0.0000       1.071858        29.1667 
 184   0.0000       1.071862        29.1669 
 185   0.0000       1.071865        29.1669 
 186   0.0000       1.076945        29.3052 
 187   0.0000       1.133115        30.8336 
 188   0.0000       1.133115        30.8336 
 189   0.0000       1.133115        30.8336 
 190   0.0000       1.183493        32.2045 
 191   0.0000       1.183493        32.2045 
 192   0.0000       1.183493        32.2045 
 193   0.0000       1.205992        32.8167 
 194   0.0000       1.205992        32.8167 
 195   0.0000       1.259208        34.2648 
 196   0.0000       1.259208        34.2648 
 197   0.0000       1.259208        34.2648 
 198   0.0000       1.316956        35.8362 
 199   0.0000       1.330682        36.2097 
 200   0.0000       1.330683        36.2097 
 201   0.0000       1.330684        36.2097 
 202   0.0000       1.385198        37.6931 
 203   0.0000       1.385198        37.6932 
 204   0.0000       1.385198        37.6932 
 205   0.0000       1.472487        40.0684 
 206   0.0000       1.503571        40.9142 
 207   0.0000       1.503571        40.9142 
 208   0.0000       1.503571        40.9142 
 209   0.0000       1.569299        42.7028 
 210   0.0000       1.569300        42.7028 
 211   0.0000       1.569300        42.7028 
 212   0.0000       1.576961        42.9113 
 213   0.0000       1.622712        44.1562 
 214   0.0000       1.622715        44.1563 
 215   0.0000       1.622717        44.1564 
 216   0.0000       1.627329        44.2819 
 217   0.0000       1.627329        44.2819 
 218   0.0000       1.655551        45.0498 
 219   0.0000       1.655551        45.0498 
 220   0.0000       1.655551        45.0498 
 221   0.0000       1.672880        45.5214 
 222   0.0000       1.672880        45.5214 
 223   0.0000       1.672880        45.5214 
 224   0.0000       1.835713        49.9523 
 225   0.0000       1.835713        49.9523 
 226   0.0000       1.844391        50.1884 
 227   0.0000       1.844393        50.1885 
 228   0.0000       1.844395        50.1885 
 229   0.0000       2.081257        56.6339 
 230   0.0000       2.203094        59.9492 
 231   0.0000       2.234243        60.7968 
 232   0.0000       2.234244        60.7969 
 233   0.0000       2.234244        60.7969 
 234   0.0000       2.256575        61.4045 
 235   0.0000       2.256575        61.4045 
 236   0.0000       2.414423        65.6998 
 237   0.0000       2.414423        65.6998 
 238   0.0000       2.414423        65.6998 
 239   0.0000       2.423906        65.9578 
 240   0.0000       2.423906        65.9578 
 241   0.0000       2.423906        65.9578 
 242   0.0000       2.482515        67.5527 
 243   0.0000       2.482515        67.5527 
 244   0.0000       2.547397        69.3182 
 245   0.0000       2.547397        69.3182 
 246   0.0000       2.547398        69.3182 
 247   0.0000       2.664243        72.4977 
 248   0.0000       2.664243        72.4977 
 249   0.0000       2.664243        72.4977 
 250   0.0000       2.755353        74.9770 
 251   0.0000       2.755353        74.9770 
 252   0.0000       2.755353        74.9770 
 253   0.0000       2.779609        75.6370 
 254   0.0000       3.071020        83.5667 
 255   0.0000       3.071020        83.5667 
 256   0.0000       3.071021        83.5667 
 257   0.0000       3.126912        85.0876 
 258   0.0000       3.126912        85.0876 
 259   0.0000       3.126912        85.0876 
 260   0.0000       3.235435        88.0407 
 261   0.0000       3.235435        88.0407 
 262   0.0000       3.303936        89.9047 
 263   0.0000       3.321642        90.3865 
 264   0.0000       3.321642        90.3865 
 265   0.0000       3.324612        90.4673 
 266   0.0000       3.324612        90.4673 
 267   0.0000       3.324612        90.4673 
 268   0.0000       3.411582        92.8339 
 269   0.0000       3.411583        92.8339 
 270   0.0000       3.411584        92.8339 
 271   0.0000       3.460740        94.1715 
 272   0.0000       3.460740        94.1715 
 273   0.0000       3.460740        94.1715 
 274   0.0000       3.506895        95.4275 
 275   0.0000       3.526443        95.9594 
 276   0.0000       3.526443        95.9594 
 277   0.0000       3.526443        95.9594 
 278   0.0000       3.570439        97.1566 
 279   0.0000       3.579523        97.4038 
 280   0.0000       3.579523        97.4038 
 281   0.0000       3.579523        97.4038 
 282   0.0000       3.681335       100.1742 
 283   0.0000       3.681336       100.1742 
 284   0.0000       3.681336       100.1743 
 285   0.0000       3.738310       101.7246 
 286   0.0000       3.761828       102.3646 
 287   0.0000       3.761828       102.3646 
 288   0.0000       3.886601       105.7598 
 289   0.0000       3.886601       105.7598 
 290   0.0000       3.886602       105.7598 
 291   0.0000       3.913289       106.4860 
 292   0.0000       3.913289       106.4860 
 293   0.0000       3.913289       106.4860 
 294   0.0000       3.936677       107.1224 
 295   0.0000       3.936677       107.1224 
 296   0.0000       3.936677       107.1224 
 297   0.0000       4.175710       113.6268 
 298   0.0000       4.175710       113.6268 
 299   0.0000       4.175710       113.6268 
 300   0.0000       4.417657       120.2106 
 301   0.0000       4.417657       120.2106 
 302   0.0000       4.417657       120.2106 
 303   0.0000       4.508739       122.6890 
 304   0.0000       4.681261       127.3836 
 305   0.0000       4.681261       127.3836 
 306   0.0000       4.825425       131.3065 
 307   0.0000       4.925637       134.0334 
 308   0.0000       4.925637       134.0334 
 309   0.0000       4.925637       134.0334 
 310   0.0000       4.968933       135.2115 
 311   0.0000       4.968933       135.2115 
 312   0.0000       4.968933       135.2115 
 313   0.0000       4.994080       135.8958 
 314   0.0000       4.994080       135.8958 
 315   0.0000       5.172737       140.7573 
 316   0.0000       5.172738       140.7573 
 317   0.0000       5.172738       140.7574 
 318   0.0000       5.276493       143.5807 
 319   0.0000       5.302062       144.2764 
 320   0.0000       5.302062       144.2764 
 321   0.0000       5.302062       144.2764 
 322   0.0000       5.445012       148.1663 
 323   0.0000       5.445012       148.1663 
 324   0.0000       5.718427       155.6063 
 325   0.0000       5.718427       155.6063 
 326   0.0000       5.718427       155.6063 
 327   0.0000       5.829386       158.6257 
 328   0.0000       5.829386       158.6257 
 329   0.0000       5.829386       158.6257 
 330   0.0000       6.302996       171.5132 
 331   0.0000       6.302996       171.5132 
 332   0.0000       6.302996       171.5132 
 333   0.0000       6.509511       177.1328 
 334   0.0000       6.509511       177.1328 
 335   0.0000       6.569824       178.7740 
 336   0.0000       6.569824       178.7740 
 337   0.0000       6.569824       178.7740 
 338   0.0000       7.021190       191.0563 
 339   0.0000       7.021190       191.0563 
 340   0.0000       7.042930       191.6479 
 341   0.0000       7.079966       192.6557 
 342   0.0000       7.079966       192.6557 
 343   0.0000       7.079966       192.6557 
 344   0.0000       7.451918       202.7770 
 345   0.0000       7.451918       202.7770 
 346   0.0000       7.451919       202.7770 
 347   0.0000       8.443552       229.7607 
 348   0.0000       8.443552       229.7607 
 349   0.0000       8.443552       229.7607 
 350   0.0000       8.588809       233.7134 
 351   0.0000       8.588809       233.7134 
 352   0.0000       8.678480       236.1534 
 353   0.0000       8.678480       236.1534 
 354   0.0000       8.678480       236.1534 
 355   0.0000       8.877914       241.5803 
 356   0.0000       8.898492       242.1403 
 357   0.0000       8.898492       242.1403 
 358   0.0000       8.898492       242.1403 
 359   0.0000       8.904415       242.3014 
 360   0.0000       8.904415       242.3014 
 361   0.0000       8.904415       242.3014 
 362   0.0000       8.943627       243.3685 
 363   0.0000       8.943627       243.3685 
 364   0.0000       9.014301       245.2916 
 365   0.0000       9.014301       245.2916 
 366   0.0000       9.014301       245.2916 
 367   0.0000       9.036642       245.8995 
 368   0.0000       9.036642       245.8995 
 369   0.0000       9.036642       245.8995 
 370   0.0000       9.361845       254.7488 
 371   0.0000       9.361845       254.7488 
 372   0.0000       9.361845       254.7488 
 373   0.0000       9.422607       256.4022 
 374   0.0000       9.422607       256.4022 
 375   0.0000       9.422608       256.4022 
 376   0.0000       9.437930       256.8191 
 377   0.0000       9.437930       256.8191 
 378   0.0000       9.439974       256.8748 
 379   0.0000      10.136594       275.8307 
 380   0.0000      10.136594       275.8308 
 381   0.0000      10.136594       275.8308 
 382   0.0000      10.144219       276.0382 
 383   0.0000      10.144219       276.0382 
 384   0.0000      10.144219       276.0382 
 385   0.0000      10.503615       285.8179 
 386   0.0000      10.731074       292.0074 
 387   0.0000      11.443273       311.3873 
 388   0.0000      11.443274       311.3873 
 389   0.0000      11.443274       311.3873 
 390   0.0000      12.239191       333.0453 
 391   0.0000      12.328817       335.4842 
 392   0.0000      12.328817       335.4842 
 393   0.0000      12.328817       335.4842 
 394   0.0000      12.391802       337.1981 
 395   0.0000      12.391802       337.1981 
 396   0.0000      12.391802       337.1981 
 397   0.0000      12.465317       339.1985 
 398   0.0000      12.580966       342.3455 
 399   0.0000      12.580966       342.3455 
 400   0.0000      12.580966       342.3455 
 401   0.0000      12.761186       347.2495 
 402   0.0000      12.761186       347.2495 
 403   0.0000      12.761186       347.2495 
 404   0.0000      12.827785       349.0618 
 405   0.0000      12.827785       349.0618 
 406   0.0000      12.936690       352.0252 
 407   0.0000      12.936690       352.0252 
 408   0.0000      12.936690       352.0252 
 409   0.0000      13.151694       357.8758 
 410   0.0000      13.151694       357.8758 
 411   0.0000      13.151694       357.8758 
 412   0.0000      13.201174       359.2222 
 413   0.0000      13.201174       359.2222 
 414   0.0000      13.310749       362.2039 
 415   0.0000      13.310749       362.2039 
 416   0.0000      13.310749       362.2039 
 417   0.0000      13.378385       364.0444 
 418   0.0000      15.452317       420.4789 
 419   0.0000      15.452317       420.4789 
 420   0.0000      16.096911       438.0192 
 421   0.0000      16.096911       438.0192 
 422   0.0000      16.096911       438.0192 
 423   0.0000      16.608307       451.9350 
 424   0.0000      16.720952       455.0002 
 425   0.0000      16.744205       455.6330 
 426   0.0000      16.744205       455.6330 
 427   0.0000      16.744205       455.6330 
 428   0.0000      16.745335       455.6637 
 429   0.0000      16.745335       455.6637 
 430   0.0000      16.747584       455.7249 
 431   0.0000      16.747584       455.7249 
 432   0.0000      16.747584       455.7249 
 433   0.0000      16.776022       456.4988 
 434   0.0000      16.776022       456.4988 
 435   0.0000      16.776022       456.4988 
 436   0.0000      16.789375       456.8621 
 437   0.0000      16.789375       456.8621 
 438   0.0000      16.789375       456.8621 
 439   0.0000      16.819420       457.6797 
 440   0.0000      16.898135       459.8216 
 441   0.0000      16.898135       459.8216 
 442   0.0000      16.929747       460.6818 
 443   0.0000      16.929747       460.6818 
 444   0.0000      16.929747       460.6818 
 445   0.0000      17.188213       467.7150 
 446   0.0000      17.188213       467.7150 
 447   0.0000      17.188213       467.7150 
 448   0.0000      17.372867       472.7397 
 449   0.0000      17.372867       472.7397 
 450   0.0000      17.372867       472.7397 
 451   0.0000      17.440720       474.5861 
 452   0.0000      17.440720       474.5861 
 453   0.0000      17.440720       474.5861 
 454   0.0000      17.848568       485.6842 
 455   0.0000      17.848568       485.6842 
 456   0.0000      17.900486       487.0970 
 457   0.0000      17.900486       487.0970 
 458   0.0000      17.900486       487.0970 
 459   0.0000      23.312290       634.3597 
 460   0.0000      23.312290       634.3597 
 461   0.0000      23.312290       634.3597 
 462   0.0000      23.440505       637.8486 
 463   0.0000      23.440505       637.8486 
 464   0.0000      23.460929       638.4043 
 465   0.0000      23.460929       638.4043 
 466   0.0000      23.460929       638.4043 
 467   0.0000      23.544556       640.6799 
 468   0.0000      23.940215       651.4464 
 469   0.0000      23.940215       651.4464 
 470   0.0000      23.940215       651.4464 
 471   0.0000      25.986521       707.1292 
 472   0.0000      39.480967      1074.3317 
 473   0.0000      39.724091      1080.9475 
 474   0.0000      39.724091      1080.9475 
 475   0.0000      39.724091      1080.9475 
 476   0.0000      55.443244      1508.6874 
 477   0.0000      55.443244      1508.6874 
 478   0.0000      55.834596      1519.3366 
 479   0.0000      55.834596      1519.3366 
 480   0.0000      55.834596      1519.3366 
 481   0.0000      90.939757      2474.5966 
 482   0.0000      90.939757      2474.5966 
 483   0.0000      90.939757      2474.5966 
 484   0.0000      91.034786      2477.1825 
 485   0.0000      91.034786      2477.1825 
 486   0.0000      91.047991      2477.5418 
 487   0.0000      91.047991      2477.5418 
 488   0.0000      91.047991      2477.5418 
 489   0.0000      91.398209      2487.0717 
 490   0.0000      91.398209      2487.0717 
 491   0.0000      91.398209      2487.0717 
 492   0.0000      91.613996      2492.9436 

                 SPIN DOWN ORBITALS
  NO   OCC          E(Eh)            E(eV) 
   0   1.0000     -65.375476     -1778.9571 
   1   1.0000      -5.044505      -137.2680 
   2   1.0000      -3.453303       -93.9691 
   3   1.0000      -3.453303       -93.9691 
   4   1.0000      -3.453303       -93.9691 
   5   1.0000      -0.494797       -13.4641 
   6   1.0000      -0.313207        -8.5228 
   7   1.0000      -0.313207        -8.5228 
   8   1.0000      -0.313207        -8.5228 
   9   0.0000      -0.017721        -0.4822 
  10   0.0000      -0.002377        -0.0647 
  11   0.0000      -0.002377        -0.0647 
  12   0.0000      -0.002377        -0.0647 
  13   0.0000       0.013895         0.3781 
  14   0.0000       0.013895         0.3781 
  15   0.0000       0.013895         0.3781 
  16   0.0000       0.034236         0.9316 
  17   0.0000       0.038017         1.0345 
  18   0.0000       0.038017         1.0345 
  19   0.0000       0.038017         1.0345 
  20   0.0000       0.038562         1.0493 
  21   0.0000       0.038562         1.0493 
  22   0.0000       0.062653         1.7049 
  23   0.0000       0.062653         1.7049 
  24   0.0000       0.062653         1.7049 
  25   0.0000       0.089207         2.4275 
  26   0.0000       0.100309         2.7296 
  27   0.0000       0.100309         2.7296 
  28   0.0000       0.100310         2.7296 
  29   0.0000       0.103000         2.8028 
  30   0.0000       0.103000         2.8028 
  31   0.0000       0.112757         3.0683 
  32   0.0000       0.112757         3.0683 
  33   0.0000       0.112757         3.0683 
  34   0.0000       0.125473         3.4143 
  35   0.0000       0.125473         3.4143 
  36   0.0000       0.125473         3.4143 
  37   0.0000       0.127567         3.4713 
  38   0.0000       0.155726         4.2375 
  39   0.0000       0.155726         4.2375 
  40   0.0000       0.155726         4.2375 
  41   0.0000       0.168694         4.5904 
  42   0.0000       0.170287         4.6337 
  43   0.0000       0.170287         4.6338 
  44   0.0000       0.170287         4.6338 
  45   0.0000       0.176240         4.7957 
  46   0.0000       0.180030         4.8989 
  47   0.0000       0.180031         4.8989 
  48   0.0000       0.180032         4.8989 
  49   0.0000       0.203151         5.5280 
  50   0.0000       0.203151         5.5280 
  51   0.0000       0.219607         5.9758 
  52   0.0000       0.219607         5.9758 
  53   0.0000       0.219608         5.9758 
  54   0.0000       0.234760         6.3881 
  55   0.0000       0.234760         6.3881 
  56   0.0000       0.245614         6.6835 
  57   0.0000       0.245614         6.6835 
  58   0.0000       0.245614         6.6835 
  59   0.0000       0.258019         7.0210 
  60   0.0000       0.258020         7.0211 
  61   0.0000       0.258021         7.0211 
  62   0.0000       0.282492         7.6870 
  63   0.0000       0.282493         7.6870 
  64   0.0000       0.282495         7.6871 
  65   0.0000       0.286695         7.8014 
  66   0.0000       0.286695         7.8014 
  67   0.0000       0.286695         7.8014 
  68   0.0000       0.291276         7.9260 
  69   0.0000       0.293684         7.9915 
  70   0.0000       0.293684         7.9915 
  71   0.0000       0.316690         8.6176 
  72   0.0000       0.316691         8.6176 
  73   0.0000       0.316691         8.6176 
  74   0.0000       0.329564         8.9679 
  75   0.0000       0.335975         9.1423 
  76   0.0000       0.335976         9.1424 
  77   0.0000       0.335976         9.1424 
  78   0.0000       0.344423         9.3722 
  79   0.0000       0.344423         9.3722 
  80   0.0000       0.344423         9.3722 
  81   0.0000       0.362333         9.8596 
  82   0.0000       0.377937        10.2842 
  83   0.0000       0.377937        10.2842 
  84   0.0000       0.377939        10.2842 
  85   0.0000       0.385477        10.4894 
  86   0.0000       0.385477        10.4894 
  87   0.0000       0.399363        10.8672 
  88   0.0000       0.399363        10.8672 
  89   0.0000       0.399364        10.8672 
  90   0.0000       0.438071        11.9205 
  91   0.0000       0.438071        11.9205 
  92   0.0000       0.438071        11.9205 
  93   0.0000       0.443905        12.0793 
  94   0.0000       0.447150        12.1676 
  95   0.0000       0.447150        12.1676 
  96   0.0000       0.469648        12.7798 
  97   0.0000       0.469649        12.7798 
  98   0.0000       0.469650        12.7798 
  99   0.0000       0.479030        13.0351 
 100   0.0000       0.491040        13.3619 
 101   0.0000       0.491040        13.3619 
 102   0.0000       0.491040        13.3619 
 103   0.0000       0.503141        13.6912 
 104   0.0000       0.503143        13.6912 
 105   0.0000       0.503145        13.6913 
 106   0.0000       0.503514        13.7013 
 107   0.0000       0.503514        13.7013 
 108   0.0000       0.518639        14.1129 
 109   0.0000       0.518639        14.1129 
 110   0.0000       0.518639        14.1129 
 111   0.0000       0.539263        14.6741 
 112   0.0000       0.539265        14.6741 
 113   0.0000       0.539266        14.6742 
 114   0.0000       0.549969        14.9654 
 115   0.0000       0.549969        14.9654 
 116   0.0000       0.549969        14.9654 
 117   0.0000       0.571014        15.5381 
 118   0.0000       0.571014        15.5381 
 119   0.0000       0.571015        15.5381 
 120   0.0000       0.573748        15.6125 
 121   0.0000       0.573748        15.6125 
 122   0.0000       0.577516        15.7150 
 123   0.0000       0.577517        15.7150 
 124   0.0000       0.577517        15.7150 
 125   0.0000       0.596616        16.2347 
 126   0.0000       0.633339        17.2340 
 127   0.0000       0.633340        17.2340 
 128   0.0000       0.633340        17.2340 
 129   0.0000       0.656086        17.8530 
 130   0.0000       0.659428        17.9439 
 131   0.0000       0.659428        17.9439 
 132   0.0000       0.659428        17.9439 
 133   0.0000       0.670005        18.2318 
 134   0.0000       0.670005        18.2318 
 135   0.0000       0.684426        18.6242 
 136   0.0000       0.684427        18.6242 
 137   0.0000       0.684427        18.6242 
 138   0.0000       0.691973        18.8295 
 139   0.0000       0.692156        18.8345 
 140   0.0000       0.692157        18.8345 
 141   0.0000       0.692157        18.8346 
 142   0.0000       0.717784        19.5319 
 143   0.0000       0.717784        19.5319 
 144   0.0000       0.717784        19.5319 
 145   0.0000       0.723189        19.6790 
 146   0.0000       0.755930        20.5699 
 147   0.0000       0.755930        20.5699 
 148   0.0000       0.776746        21.1363 
 149   0.0000       0.776748        21.1364 
 150   0.0000       0.776749        21.1364 
 151   0.0000       0.809242        22.0206 
 152   0.0000       0.809242        22.0206 
 153   0.0000       0.809243        22.0206 
 154   0.0000       0.812170        22.1003 
 155   0.0000       0.812170        22.1003 
 156   0.0000       0.812170        22.1003 
 157   0.0000       0.824003        22.4223 
 158   0.0000       0.831377        22.6229 
 159   0.0000       0.831378        22.6229 
 160   0.0000       0.831379        22.6230 
 161   0.0000       0.840836        22.8803 
 162   0.0000       0.840836        22.8803 
 163   0.0000       0.847219        23.0540 
 164   0.0000       0.847220        23.0540 
 165   0.0000       0.847220        23.0540 
 166   0.0000       0.880773        23.9670 
 167   0.0000       0.880774        23.9671 
 168   0.0000       0.880775        23.9671 
 169   0.0000       0.915123        24.9018 
 170   0.0000       0.915123        24.9018 
 171   0.0000       0.918938        25.0056 
 172   0.0000       0.918938        25.0056 
 173   0.0000       0.918940        25.0056 
 174   0.0000       0.921375        25.0719 
 175   0.0000       0.921375        25.0719 
 176   0.0000       0.921375        25.0719 
 177   0.0000       0.945481        25.7278 
 178   0.0000       0.945482        25.7279 
 179   0.0000       0.945483        25.7279 
 180   0.0000       1.001450        27.2509 
 181   0.0000       1.032452        28.0944 
 182   0.0000       1.032452        28.0945 
 183   0.0000       1.071858        29.1667 
 184   0.0000       1.071862        29.1669 
 185   0.0000       1.071865        29.1669 
 186   0.0000       1.076945        29.3052 
 187   0.0000       1.133115        30.8336 
 188   0.0000       1.133115        30.8336 
 189   0.0000       1.133115        30.8336 
 190   0.0000       1.183493        32.2045 
 191   0.0000       1.183493        32.2045 
 192   0.0000       1.183493        32.2045 
 193   0.0000       1.205992        32.8167 
 194   0.0000       1.205992        32.8167 
 195   0.0000       1.259208        34.2648 
 196   0.0000       1.259208        34.2648 
 197   0.0000       1.259208        34.2648 
 198   0.0000       1.316956        35.8362 
 199   0.0000       1.330682        36.2097 
 200   0.0000       1.330683        36.2097 
 201   0.0000       1.330684        36.2097 
 202   0.0000       1.385198        37.6931 
 203   0.0000       1.385198        37.6932 
 204   0.0000       1.385198        37.6932 
 205   0.0000       1.472487        40.0684 
 206   0.0000       1.503571        40.9142 
 207   0.0000       1.503571        40.9142 
 208   0.0000       1.503571        40.9142 
 209   0.0000       1.569299        42.7028 
 210   0.0000       1.569300        42.7028 
 211   0.0000       1.569300        42.7028 
 212   0.0000       1.576961        42.9113 
 213   0.0000       1.622712        44.1562 
 214   0.0000       1.622715        44.1563 
 215   0.0000       1.622717        44.1564 
 216   0.0000       1.627329        44.2819 
 217   0.0000       1.627329        44.2819 
 218   0.0000       1.655551        45.0498 
 219   0.0000       1.655551        45.0498 
 220   0.0000       1.655551        45.0498 
 221   0.0000       1.672880        45.5214 
 222   0.0000       1.672880        45.5214 
 223   0.0000       1.672880        45.5214 
 224   0.0000       1.835713        49.9523 
 225   0.0000       1.835713        49.9523 
 226   0.0000       1.844391        50.1884 
 227   0.0000       1.844393        50.1885 
 228   0.0000       1.844395        50.1885 
 229   0.0000       2.081257        56.6339 
 230   0.0000       2.203094        59.9492 
 231   0.0000       2.234243        60.7968 
 232   0.0000       2.234244        60.7969 
 233   0.0000       2.234244        60.7969 
 234   0.0000       2.256575        61.4045 
 235   0.0000       2.256575        61.4045 
 236   0.0000       2.414423        65.6998 
 237   0.0000       2.414423        65.6998 
 238   0.0000       2.414423        65.6998 
 239   0.0000       2.423906        65.9578 
 240   0.0000       2.423906        65.9578 
 241   0.0000       2.423906        65.9578 
 242   0.0000       2.482515        67.5527 
 243   0.0000       2.482515        67.5527 
 244   0.0000       2.547397        69.3182 
 245   0.0000       2.547397        69.3182 
 246   0.0000       2.547398        69.3182 
 247   0.0000       2.664243        72.4977 
 248   0.0000       2.664243        72.4977 
 249   0.0000       2.664243        72.4977 
 250   0.0000       2.755353        74.9770 
 251   0.0000       2.755353        74.9770 
 252   0.0000       2.755353        74.9770 
 253   0.0000       2.779609        75.6370 
 254   0.0000       3.071020        83.5667 
 255   0.0000       3.071020        83.5667 
 256   0.0000       3.071021        83.5667 
 257   0.0000       3.126912        85.0876 
 258   0.0000       3.126912        85.0876 
 259   0.0000       3.126912        85.0876 
 260   0.0000       3.235435        88.0407 
 261   0.0000       3.235435        88.0407 
 262   0.0000       3.303936        89.9047 
 263   0.0000       3.321642        90.3865 
 264   0.0000       3.321642        90.3865 
 265   0.0000       3.324612        90.4673 
 266   0.0000       3.324612        90.4673 
 267   0.0000       3.324612        90.4673 
 268   0.0000       3.411582        92.8339 
 269   0.0000       3.411583        92.8339 
 270   0.0000       3.411584        92.8339 
 271   0.0000       3.460740        94.1715 
 272   0.0000       3.460740        94.1715 
 273   0.0000       3.460740        94.1715 
 274   0.0000       3.506895        95.4275 
 275   0.0000       3.526443        95.9594 
 276   0.0000       3.526443        95.9594 
 277   0.0000       3.526443        95.9594 
 278   0.0000       3.570439        97.1566 
 279   0.0000       3.579523        97.4038 
 280   0.0000       3.579523        97.4038 
 281   0.0000       3.579523        97.4038 
 282   0.0000       3.681335       100.1742 
 283   0.0000       3.681336       100.1742 
 284   0.0000       3.681336       100.1743 
 285   0.0000       3.738310       101.7246 
 286   0.0000       3.761828       102.3646 
 287   0.0000       3.761828       102.3646 
 288   0.0000       3.886601       105.7598 
 289   0.0000       3.886601       105.7598 
 290   0.0000       3.886602       105.7598 
 291   0.0000       3.913289       106.4860 
 292   0.0000       3.913289       106.4860 
 293   0.0000       3.913289       106.4860 
 294   0.0000       3.936677       107.1224 
 295   0.0000       3.936677       107.1224 
 296   0.0000       3.936677       107.1224 
 297   0.0000       4.175710       113.6268 
 298   0.0000       4.175710       113.6268 
 299   0.0000       4.175710       113.6268 
 300   0.0000       4.417657       120.2106 
 301   0.0000       4.417657       120.2106 
 302   0.0000       4.417657       120.2106 
 303   0.0000       4.508739       122.6890 
 304   0.0000       4.681261       127.3836 
 305   0.0000       4.681261       127.3836 
 306   0.0000       4.825425       131.3065 
 307   0.0000       4.925637       134.0334 
 308   0.0000       4.925637       134.0334 
 309   0.0000       4.925637       134.0334 
 310   0.0000       4.968933       135.2115 
 311   0.0000       4.968933       135.2115 
 312   0.0000       4.968933       135.2115 
 313   0.0000       4.994080       135.8958 
 314   0.0000       4.994080       135.8958 
 315   0.0000       5.172737       140.7573 
 316   0.0000       5.172738       140.7573 
 317   0.0000       5.172738       140.7574 
 318   0.0000       5.276493       143.5807 
 319   0.0000       5.302062       144.2764 
 320   0.0000       5.302062       144.2764 
 321   0.0000       5.302062       144.2764 
 322   0.0000       5.445012       148.1663 
 323   0.0000       5.445012       148.1663 
 324   0.0000       5.718427       155.6063 
 325   0.0000       5.718427       155.6063 
 326   0.0000       5.718427       155.6063 
 327   0.0000       5.829386       158.6257 
 328   0.0000       5.829386       158.6257 
 329   0.0000       5.829386       158.6257 
 330   0.0000       6.302996       171.5132 
 331   0.0000       6.302996       171.5132 
 332   0.0000       6.302996       171.5132 
 333   0.0000       6.509511       177.1328 
 334   0.0000       6.509511       177.1328 
 335   0.0000       6.569824       178.7740 
 336   0.0000       6.569824       178.7740 
 337   0.0000       6.569824       178.7740 
 338   0.0000       7.021190       191.0563 
 339   0.0000       7.021190       191.0563 
 340   0.0000       7.042930       191.6479 
 341   0.0000       7.079966       192.6557 
 342   0.0000       7.079966       192.6557 
 343   0.0000       7.079966       192.6557 
 344   0.0000       7.451918       202.7770 
 345   0.0000       7.451918       202.7770 
 346   0.0000       7.451919       202.7770 
 347   0.0000       8.443552       229.7607 
 348   0.0000       8.443552       229.7607 
 349   0.0000       8.443552       229.7607 
 350   0.0000       8.588809       233.7134 
 351   0.0000       8.588809       233.7134 
 352   0.0000       8.678480       236.1534 
 353   0.0000       8.678480       236.1534 
 354   0.0000       8.678480       236.1534 
 355   0.0000       8.877914       241.5803 
 356   0.0000       8.898492       242.1403 
 357   0.0000       8.898492       242.1403 
 358   0.0000       8.898492       242.1403 
 359   0.0000       8.904415       242.3014 
 360   0.0000       8.904415       242.3014 
 361   0.0000       8.904415       242.3014 
 362   0.0000       8.943627       243.3685 
 363   0.0000       8.943627       243.3685 
 364   0.0000       9.014301       245.2916 
 365   0.0000       9.014301       245.2916 
 366   0.0000       9.014301       245.2916 
 367   0.0000       9.036642       245.8995 
 368   0.0000       9.036642       245.8995 
 369   0.0000       9.036642       245.8995 
 370   0.0000       9.361845       254.7488 
 371   0.0000       9.361845       254.7488 
 372   0.0000       9.361845       254.7488 
 373   0.0000       9.422607       256.4022 
 374   0.0000       9.422607       256.4022 
 375   0.0000       9.422608       256.4022 
 376   0.0000       9.437930       256.8191 
 377   0.0000       9.437930       256.8191 
 378   0.0000       9.439974       256.8748 
 379   0.0000      10.136594       275.8307 
 380   0.0000      10.136594       275.8308 
 381   0.0000      10.136594       275.8308 
 382   0.0000      10.144219       276.0382 
 383   0.0000      10.144219       276.0382 
 384   0.0000      10.144219       276.0382 
 385   0.0000      10.503615       285.8179 
 386   0.0000      10.731074       292.0074 
 387   0.0000      11.443273       311.3873 
 388   0.0000      11.443274       311.3873 
 389   0.0000      11.443274       311.3873 
 390   0.0000      12.239191       333.0453 
 391   0.0000      12.328817       335.4842 
 392   0.0000      12.328817       335.4842 
 393   0.0000      12.328817       335.4842 
 394   0.0000      12.391802       337.1981 
 395   0.0000      12.391802       337.1981 
 396   0.0000      12.391802       337.1981 
 397   0.0000      12.465317       339.1985 
 398   0.0000      12.580966       342.3455 
 399   0.0000      12.580966       342.3455 
 400   0.0000      12.580966       342.3455 
 401   0.0000      12.761186       347.2495 
 402   0.0000      12.761186       347.2495 
 403   0.0000      12.761186       347.2495 
 404   0.0000      12.827785       349.0618 
 405   0.0000      12.827785       349.0618 
 406   0.0000      12.936690       352.0252 
 407   0.0000      12.936690       352.0252 
 408   0.0000      12.936690       352.0252 
 409   0.0000      13.151694       357.8758 
 410   0.0000      13.151694       357.8758 
 411   0.0000      13.151694       357.8758 
 412   0.0000      13.201174       359.2222 
 413   0.0000      13.201174       359.2222 
 414   0.0000      13.310749       362.2039 
 415   0.0000      13.310749       362.2039 
 416   0.0000      13.310749       362.2039 
 417   0.0000      13.378385       364.0444 
 418   0.0000      15.452317       420.4789 
 419   0.0000      15.452317       420.4789 
 420   0.0000      16.096911       438.0192 
 421   0.0000      16.096911       438.0192 
 422   0.0000      16.096911       438.0192 
 423   0.0000      16.608307       451.9350 
 424   0.0000      16.720952       455.0002 
 425   0.0000      16.744205       455.6330 
 426   0.0000      16.744205       455.6330 
 427   0.0000      16.744205       455.6330 
 428   0.0000      16.745335       455.6637 
 429   0.0000      16.745335       455.6637 
 430   0.0000      16.747584       455.7249 
 431   0.0000      16.747584       455.7249 
 432   0.0000      16.747584       455.7249 
 433   0.0000      16.776022       456.4988 
 434   0.0000      16.776022       456.4988 
 435   0.0000      16.776022       456.4988 
 436   0.0000      16.789375       456.8621 
 437   0.0000      16.789375       456.8621 
 438   0.0000      16.789375       456.8621 
 439   0.0000      16.819420       457.6797 
 440   0.0000      16.898135       459.8216 
 441   0.0000      16.898135       459.8216 
 442   0.0000      16.929747       460.6818 
 443   0.0000      16.929747       460.6818 
 444   0.0000      16.929747       460.6818 
 445   0.0000      17.188213       467.7150 
 446   0.0000      17.188213       467.7150 
 447   0.0000      17.188213       467.7150 
 448   0.0000      17.372867       472.7397 
 449   0.0000      17.372867       472.7397 
 450   0.0000      17.372867       472.7397 
 451   0.0000      17.440720       474.5861 
 452   0.0000      17.440720       474.5861 
 453   0.0000      17.440720       474.5861 
 454   0.0000      17.848568       485.6842 
 455   0.0000      17.848568       485.6842 
 456   0.0000      17.900486       487.0970 
 457   0.0000      17.900486       487.0970 
 458   0.0000      17.900486       487.0970 
 459   0.0000      23.312290       634.3597 
 460   0.0000      23.312290       634.3597 
 461   0.0000      23.312290       634.3597 
 462   0.0000      23.440505       637.8486 
 463   0.0000      23.440505       637.8486 
 464   0.0000      23.460929       638.4043 
 465   0.0000      23.460929       638.4043 
 466   0.0000      23.460929       638.4043 
 467   0.0000      23.544556       640.6799 
 468   0.0000      23.940215       651.4464 
 469   0.0000      23.940215       651.4464 
 470   0.0000      23.940215       651.4464 
 471   0.0000      25.986521       707.1292 
 472   0.0000      39.480967      1074.3317 
 473   0.0000      39.724091      1080.9475 
 474   0.0000      39.724091      1080.9475 
 475   0.0000      39.724091      1080.9475 
 476   0.0000      55.443244      1508.6874 
 477   0.0000      55.443244      1508.6874 
 478   0.0000      55.834596      1519.3366 
 479   0.0000      55.834596      1519.3366 
 480   0.0000      55.834596      1519.3366 
 481   0.0000      90.939757      2474.5966 
 482   0.0000      90.939757      2474.5966 
 483   0.0000      90.939757      2474.5966 
 484   0.0000      91.034786      2477.1825 
 485   0.0000      91.034786      2477.1825 
 486   0.0000      91.047991      2477.5418 
 487   0.0000      91.047991      2477.5418 
 488   0.0000      91.047991      2477.5418 
 489   0.0000      91.398209      2487.0717 
 490   0.0000      91.398209      2487.0717 
 491   0.0000      91.398209      2487.0717 
 492   0.0000      91.613996      2492.9436 

                    ********************************
                    * MULLIKEN POPULATION ANALYSIS *
                    ********************************

--------------------------------------------
MULLIKEN ATOMIC CHARGES AND SPIN POPULATIONS
--------------------------------------------
   0 Si:    0.097076    0.000000
   1 H :   -0.024280   -0.000000
   2 H :   -0.024267   -0.000000
   3 H :   -0.024258   -0.000000
   4 H :   -0.024270   -0.000000
Sum of atomic charges         :    0.0000000
Sum of atomic spin populations:   -0.0000000

-----------------------------------------------------
MULLIKEN REDUCED ORBITAL CHARGES AND SPIN POPULATIONS
-----------------------------------------------------
CHARGE
  0 Sis       :     5.349499  s :     5.349499
      pz      :     2.802335  p :     8.407019
      px      :     2.802340
      py      :     2.802344
      dz2     :     0.000000  d :     0.135618
      dxz     :     0.045206
      dyz     :     0.045206
      dx2y2   :     0.000000
      dxy     :     0.045206
      f0      :     0.001426  f :     0.008965
      f+1     :     0.000535
      f-1     :     0.000535
      f+2     :    -0.000000
      f-2     :     0.004687
      f+3     :     0.000891
      f-3     :     0.000891
      g0      :     0.000185  g :     0.001495
      g+1     :     0.000049
      g-1     :     0.000049
      g+2     :    -0.000000
      g-2     :     0.000392
      g+3     :     0.000343
      g-3     :     0.000343
      g+4     :     0.000132
      g-4     :    -0.000000
      h0      :    -0.000018  h :     0.000328
      h+1     :     0.000025
      h-1     :     0.000025
      h+2     :     0.000000
      h-2     :    -0.000000
      h+3     :     0.000095
      h-3     :     0.000095
      h+4     :     0.000127
      h-4     :    -0.000000
      h+5     :    -0.000010
      h-5     :    -0.000010
  1 H s       :     1.115003  s :     1.115003
      pz      :    -0.011309  p :    -0.033926
      px      :    -0.011309
      py      :    -0.011309
      dz2     :    -0.011723  d :    -0.042291
      dxz     :    -0.006282
      dyz     :    -0.006281
      dx2y2   :    -0.011723
      dxy     :    -0.006282
      f0      :     0.000268  f :    -0.013069
      f+1     :    -0.002523
      f-1     :    -0.002523
      f+2     :    -0.004197
      f-2     :    -0.001281
      f+3     :    -0.001407
      f-3     :    -0.001407
      g0      :    -0.000095  g :    -0.001438
      g+1     :    -0.000074
      g-1     :    -0.000074
      g+2     :    -0.000370
      g-2     :    -0.000212
      g+3     :    -0.000192
      g-3     :    -0.000192
      g+4     :    -0.000174
      g-4     :    -0.000055
  2 H s       :     1.114993  s :     1.114993
      pz      :    -0.011309  p :    -0.033927
      px      :    -0.011310
      py      :    -0.011309
      dz2     :    -0.011723  d :    -0.042292
      dxz     :    -0.006282
      dyz     :    -0.006282
      dx2y2   :    -0.011723
      dxy     :    -0.006282
      f0      :     0.000268  f :    -0.013069
      f+1     :    -0.002523
      f-1     :    -0.002523
      f+2     :    -0.004197
      f-2     :    -0.001281
      f+3     :    -0.001407
      f-3     :    -0.001407
      g0      :    -0.000095  g :    -0.001438
      g+1     :    -0.000074
      g-1     :    -0.000074
      g+2     :    -0.000370
      g-2     :    -0.000212
      g+3     :    -0.000192
      g-3     :    -0.000192
      g+4     :    -0.000174
      g-4     :    -0.000055
  3 H s       :     1.114987  s :     1.114987
      pz      :    -0.011309  p :    -0.033929
      px      :    -0.011309
      py      :    -0.011310
      dz2     :    -0.011723  d :    -0.042292
      dxz     :    -0.006282
      dyz     :    -0.006282
      dx2y2   :    -0.011723
      dxy     :    -0.006282
      f0      :     0.000268  f :    -0.013069
      f+1     :    -0.002523
      f-1     :    -0.002523
      f+2     :    -0.004197
      f-2     :    -0.001281
      f+3     :    -0.001407
      f-3     :    -0.001407
      g0      :    -0.000095  g :    -0.001438
      g+1     :    -0.000074
      g-1     :    -0.000074
      g+2     :    -0.000370
      g-2     :    -0.000212
      g+3     :    -0.000192
      g-3     :    -0.000192
      g+4     :    -0.000174
      g-4     :    -0.000055
  4 H s       :     1.114995  s :     1.114995
      pz      :    -0.011310  p :    -0.033925
      px      :    -0.011308
      py      :    -0.011307
      dz2     :    -0.011723  d :    -0.042293
      dxz     :    -0.006282
      dyz     :    -0.006282
      dx2y2   :    -0.011723
      dxy     :    -0.006282
      f0      :     0.000268  f :    -0.013069
      f+1     :    -0.002523
      f-1     :    -0.002523
      f+2     :    -0.004197
      f-2     :    -0.001281
      f+3     :    -0.001407
      f-3     :    -0.001407
      g0      :    -0.000095  g :    -0.001438
      g+1     :    -0.000074
      g-1     :    -0.000074
      g+2     :    -0.000370
      g-2     :    -0.000212
      g+3     :    -0.000192
      g-3     :    -0.000192
      g+4     :    -0.000174
      g-4     :    -0.000055

SPIN
  0 Sis       :     0.000000  s :     0.000000
      pz      :    -0.000000  p :    -0.000000
      px      :    -0.000000
      py      :    -0.000000
      dz2     :     0.000000  d :    -0.000000
      dxz     :    -0.000000
      dyz     :    -0.000000
      dx2y2   :     0.000000
      dxy     :    -0.000000
      f0      :    -0.000000  f :    -0.000000
      f+1     :    -0.000000
      f-1     :    -0.000000
      f+2     :    -0.000000
      f-2     :    -0.000000
      f+3     :     0.000000
      f-3     :    -0.000000
      g0      :    -0.000000  g :    -0.000000
      g+1     :     0.000000
      g-1     :     0.000000
      g+2     :     0.000000
      g-2     :     0.000000
      g+3     :     0.000000
      g-3     :    -0.000000
      g+4     :    -0.000000
      g-4     :     0.000000
      h0      :     0.000000  h :     0.000000
      h+1     :     0.000000
      h-1     :     0.000000
      h+2     :    -0.000000
      h-2     :    -0.000000
      h+3     :     0.000000
      h-3     :     0.000000
      h+4     :     0.000000
      h-4     :    -0.000000
      h+5     :    -0.000000
      h-5     :     0.000000
  1 H s       :     0.000000  s :     0.000000
      pz      :    -0.000000  p :    -0.000000
      px      :    -0.000000
      py      :    -0.000000
      dz2     :    -0.000000  d :    -0.000000
      dxz     :     0.000000
      dyz     :    -0.000000
      dx2y2   :    -0.000000
      dxy     :    -0.000000
      f0      :     0.000000  f :    -0.000000
      f+1     :    -0.000000
      f-1     :    -0.000000
      f+2     :     0.000000
      f-2     :     0.000000
      f+3     :    -0.000000
      f-3     :     0.000000
      g0      :    -0.000000  g :    -0.000000
      g+1     :    -0.000000
      g-1     :    -0.000000
      g+2     :     0.000000
      g-2     :    -0.000000
      g+3     :     0.000000
      g-3     :    -0.000000
      g+4     :    -0.000000
      g-4     :    -0.000000
  2 H s       :    -0.000000  s :    -0.000000
      pz      :    -0.000000  p :    -0.000000
      px      :    -0.000000
      py      :    -0.000000
      dz2     :    -0.000000  d :    -0.000000
      dxz     :    -0.000000
      dyz     :     0.000000
      dx2y2   :     0.000000
      dxy     :    -0.000000
      f0      :    -0.000000  f :    -0.000000
      f+1     :    -0.000000
      f-1     :    -0.000000
      f+2     :    -0.000000
      f-2     :     0.000000
      f+3     :    -0.000000
      f-3     :    -0.000000
      g0      :    -0.000000  g :    -0.000000
      g+1     :    -0.000000
      g-1     :    -0.000000
      g+2     :    -0.000000
      g-2     :    -0.000000
      g+3     :    -0.000000
      g-3     :     0.000000
      g+4     :    -0.000000
      g-4     :    -0.000000
  3 H s       :    -0.000000  s :    -0.000000
      pz      :    -0.000000  p :    -0.000000
      px      :    -0.000000
      py      :    -0.000000
      dz2     :     0.000000  d :    -0.000000
      dxz     :    -0.000000
      dyz     :    -0.000000
      dx2y2   :    -0.000000
      dxy     :    -0.000000
      f0      :     0.000000  f :    -0.000000
      f+1     :    -0.000000
      f-1     :    -0.000000
      f+2     :    -0.000000
      f-2     :    -0.000000
      f+3     :    -0.000000
      f-3     :    -0.000000
      g0      :    -0.000000  g :    -0.000000
      g+1     :    -0.000000
      g-1     :    -0.000000
      g+2     :    -0.000000
      g-2     :    -0.000000
      g+3     :    -0.000000
      g-3     :    -0.000000
      g+4     :    -0.000000
      g-4     :    -0.000000
  4 H s       :    -0.000000  s :    -0.000000
      pz      :    -0.000000  p :    -0.000000
      px      :    -0.000000
      py      :    -0.000000
      dz2     :     0.000000  d :     0.000000
      dxz     :    -0.000000
      dyz     :    -0.000000
      dx2y2   :    -0.000000
      dxy     :     0.000000
      f0      :     0.000000  f :    -0.000000
      f+1     :     0.000000
      f-1     :     0.000000
      f+2     :    -0.000000
      f-2     :     0.000000
      f+3     :     0.000000
      f-3     :    -0.000000
      g0      :     0.000000  g :    -0.000000
      g+1     :     0.000000
      g-1     :     0.000000
      g+2     :    -0.000000
      g-2     :     0.000000
      g+3     :    -0.000000
      g-3     :    -0.000000
      g+4     :     0.000000
      g-4     :    -0.000000


                     *******************************
                     * LOEWDIN POPULATION ANALYSIS *
                     *******************************

-------------------------------------------
LOEWDIN ATOMIC CHARGES AND SPIN POPULATIONS
-------------------------------------------
   0 Si:    1.820058    0.000000
   1 H :   -0.455014    0.000000
   2 H :   -0.455014   -0.000000
   3 H :   -0.455014   -0.000000
   4 H :   -0.455014    0.000000

----------------------------------------------------
LOEWDIN REDUCED ORBITAL CHARGES AND SPIN POPULATIONS
----------------------------------------------------
CHARGE
  0 Sis       :     4.341008  s :     4.341008
      pz      :     2.487862  p :     7.463585
      px      :     2.487862
      py      :     2.487862
      dz2     :     0.000000  d :     0.306232
      dxz     :     0.102077
      dyz     :     0.102077
      dx2y2   :     0.000000
      dxy     :     0.102077
      f0      :     0.013465  f :     0.056165
      f+1     :     0.005049
      f-1     :     0.005049
      f+2     :     0.000000
      f-2     :     0.015769
      f+3     :     0.008416
      f-3     :     0.008416
      g0      :     0.001175  g :     0.010804
      g+1     :     0.000366
      g-1     :     0.000366
      g+2     :     0.000000
      g-2     :     0.002930
      g+3     :     0.002564
      g-3     :     0.002564
      g+4     :     0.000839
      g-4     :     0.000000
      h0      :     0.000051  h :     0.002149
      h+1     :     0.000265
      h-1     :     0.000265
      h+2     :     0.000000
      h-2     :     0.000000
      h+3     :     0.000383
      h-3     :     0.000383
      h+4     :     0.000666
      h-4     :     0.000000
      h+5     :     0.000068
      h-5     :     0.000068
  1 H s       :     0.773753  s :     0.773753
      pz      :     0.081435  p :     0.244304
      px      :     0.081435
      py      :     0.081435
      dz2     :     0.036715  d :     0.234233
      dxz     :     0.053601
      dyz     :     0.053601
      dx2y2   :     0.036715
      dxy     :     0.053601
      f0      :     0.004151  f :     0.137810
      f+1     :     0.025626
      f-1     :     0.025626
      f+2     :     0.038510
      f-2     :     0.009826
      f+3     :     0.017036
      f-3     :     0.017036
      g0      :     0.008851  g :     0.064914
      g+1     :     0.001765
      g-1     :     0.001765
      g+2     :     0.016922
      g-2     :     0.008530
      g+3     :     0.007564
      g-3     :     0.007564
      g+4     :     0.011157
      g-4     :     0.000798
  2 H s       :     0.773753  s :     0.773753
      pz      :     0.081435  p :     0.244304
      px      :     0.081435
      py      :     0.081435
      dz2     :     0.036715  d :     0.234233
      dxz     :     0.053601
      dyz     :     0.053601
      dx2y2   :     0.036715
      dxy     :     0.053601
      f0      :     0.004151  f :     0.137810
      f+1     :     0.025626
      f-1     :     0.025626
      f+2     :     0.038510
      f-2     :     0.009826
      f+3     :     0.017036
      f-3     :     0.017036
      g0      :     0.008851  g :     0.064914
      g+1     :     0.001765
      g-1     :     0.001765
      g+2     :     0.016922
      g-2     :     0.008530
      g+3     :     0.007564
      g-3     :     0.007564
      g+4     :     0.011157
      g-4     :     0.000798
  3 H s       :     0.773753  s :     0.773753
      pz      :     0.081435  p :     0.244304
      px      :     0.081435
      py      :     0.081435
      dz2     :     0.036715  d :     0.234233
      dxz     :     0.053601
      dyz     :     0.053601
      dx2y2   :     0.036715
      dxy     :     0.053601
      f0      :     0.004151  f :     0.137810
      f+1     :     0.025626
      f-1     :     0.025626
      f+2     :     0.038510
      f-2     :     0.009826
      f+3     :     0.017036
      f-3     :     0.017036
      g0      :     0.008851  g :     0.064914
      g+1     :     0.001765
      g-1     :     0.001765
      g+2     :     0.016922
      g-2     :     0.008530
      g+3     :     0.007564
      g-3     :     0.007564
      g+4     :     0.011157
      g-4     :     0.000798
  4 H s       :     0.773753  s :     0.773753
      pz      :     0.081435  p :     0.244304
      px      :     0.081435
      py      :     0.081435
      dz2     :     0.036715  d :     0.234233
      dxz     :     0.053601
      dyz     :     0.053601
      dx2y2   :     0.036715
      dxy     :     0.053601
      f0      :     0.004151  f :     0.137810
      f+1     :     0.025626
      f-1     :     0.025626
      f+2     :     0.038510
      f-2     :     0.009826
      f+3     :     0.017036
      f-3     :     0.017036
      g0      :     0.008851  g :     0.064914
      g+1     :     0.001765
      g-1     :     0.001765
      g+2     :     0.016922
      g-2     :     0.008530
      g+3     :     0.007564
      g-3     :     0.007564
      g+4     :     0.011157
      g-4     :     0.000798

SPIN
  0 Sis       :     0.000000  s :     0.000000
      pz      :    -0.000000  p :     0.000000
      px      :     0.000000
      py      :    -0.000000
      dz2     :     0.000000  d :    -0.000000
      dxz     :    -0.000000
      dyz     :    -0.000000
      dx2y2   :     0.000000
      dxy     :    -0.000000
      f0      :    -0.000000  f :    -0.000000
      f+1     :     0.000000
      f-1     :    -0.000000
      f+2     :    -0.000000
      f-2     :    -0.000000
      f+3     :    -0.000000
      f-3     :    -0.000000
      g0      :    -0.000000  g :    -0.000000
      g+1     :    -0.000000
      g-1     :    -0.000000
      g+2     :     0.000000
      g-2     :     0.000000
      g+3     :     0.000000
      g-3     :    -0.000000
      g+4     :    -0.000000
      g-4     :     0.000000
      h0      :     0.000000  h :    -0.000000
      h+1     :     0.000000
      h-1     :    -0.000000
      h+2     :     0.000000
      h-2     :     0.000000
      h+3     :     0.000000
      h-3     :    -0.000000
      h+4     :     0.000000
      h-4     :     0.000000
      h+5     :    -0.000000
      h-5     :    -0.000000
  1 H s       :     0.000000  s :     0.000000
      pz      :     0.000000  p :     0.000000
      px      :    -0.000000
      py      :     0.000000
      dz2     :    -0.000000  d :     0.000000
      dxz     :     0.000000
      dyz     :    -0.000000
      dx2y2   :    -0.000000
      dxy     :     0.000000
      f0      :     0.000000  f :    -0.000000
      f+1     :     0.000000
      f-1     :     0.000000
      f+2     :     0.000000
      f-2     :    -0.000000
      f+3     :    -0.000000
      f-3     :    -0.000000
      g0      :    -0.000000  g :     0.000000
      g+1     :     0.000000
      g-1     :    -0.000000
      g+2     :     0.000000
      g-2     :     0.000000
      g+3     :     0.000000
      g-3     :    -0.000000
      g+4     :    -0.000000
      g-4     :    -0.000000
  2 H s       :     0.000000  s :     0.000000
      pz      :    -0.000000  p :    -0.000000
      px      :    -0.000000
      py      :    -0.000000
      dz2     :    -0.000000  d :    -0.000000
      dxz     :    -0.000000
      dyz     :    -0.000000
      dx2y2   :     0.000000
      dxy     :    -0.000000
      f0      :     0.000000  f :    -0.000000
      f+1     :     0.000000
      f-1     :     0.000000
      f+2     :     0.000000
      f-2     :    -0.000000
      f+3     :    -0.000000
      f-3     :    -0.000000
      g0      :     0.000000  g :    -0.000000
      g+1     :     0.000000
      g-1     :     0.000000
      g+2     :     0.000000
      g-2     :    -0.000000
      g+3     :    -0.000000
      g-3     :     0.000000
      g+4     :    -0.000000
      g-4     :     0.000000
  3 H s       :    -0.000000  s :    -0.000000
      pz      :    -0.000000  p :    -0.000000
      px      :     0.000000
      py      :    -0.000000
      dz2     :    -0.000000  d :    -0.000000
      dxz     :    -0.000000
      dyz     :    -0.000000
      dx2y2   :    -0.000000
      dxy     :    -0.000000
      f0      :     0.000000  f :    -0.000000
      f+1     :    -0.000000
      f-1     :     0.000000
      f+2     :    -0.000000
      f-2     :    -0.000000
      f+3     :    -0.000000
      f-3     :    -0.000000
      g0      :    -0.000000  g :    -0.000000
      g+1     :     0.000000
      g-1     :     0.000000
      g+2     :    -0.000000
      g-2     :    -0.000000
      g+3     :    -0.000000
      g-3     :    -0.000000
      g+4     :    -0.000000
      g-4     :     0.000000
  4 H s       :    -0.000000  s :    -0.000000
      pz      :     0.000000  p :     0.000000
      px      :     0.000000
      py      :    -0.000000
      dz2     :     0.000000  d :     0.000000
      dxz     :    -0.000000
      dyz     :     0.000000
      dx2y2   :    -0.000000
      dxy     :     0.000000
      f0      :     0.000000  f :     0.000000
      f+1     :    -0.000000
      f-1     :    -0.000000
      f+2     :    -0.000000
      f-2     :    -0.000000
      f+3     :     0.000000
      f-3     :     0.000000
      g0      :     0.000000  g :    -0.000000
      g+1     :     0.000000
      g-1     :    -0.000000
      g+2     :    -0.000000
      g-2     :     0.000000
      g+3     :     0.000000
      g-3     :    -0.000000
      g+4     :    -0.000000
      g-4     :     0.000000


                      *****************************
                      * MAYER POPULATION ANALYSIS *
                      *****************************

  NA   - Mulliken gross atomic population
  ZA   - Total nuclear charge
  QA   - Mulliken gross atomic charge
  VA   - Mayer's total valence
  BVA  - Mayer's bonded valence
  FA   - Mayer's free valence

  ATOM       NA         ZA         QA         VA         BVA        FA
  0 Si    13.9029    14.0000     0.0971     3.7595     3.7595     0.0000
  1 H      1.0243     1.0000    -0.0243     0.6937     0.6937     0.0000
  2 H      1.0243     1.0000    -0.0243     0.6937     0.6937     0.0000
  3 H      1.0243     1.0000    -0.0243     0.6937     0.6937     0.0000
  4 H      1.0243     1.0000    -0.0243     0.6937     0.6937    -0.0000

  Mayer bond orders larger than 0.1
B(  0-Si,  1-H ) :   0.9399 B(  0-Si,  2-H ) :   0.9399 B(  0-Si,  3-H ) :   0.9399 
B(  0-Si,  4-H ) :   0.9399 

-------
TIMINGS
-------

Total SCF time: 0 days 0 hours 24 min 21 sec 

Total time                  ....    1461.984 sec
Sum of individual times     ....    1460.869 sec  ( 99.9%)

Fock matrix formation       ....    1455.051 sec  ( 99.5%)
  XC integration            ....      24.420 sec  (  1.7% of F)
    Basis function eval.    ....       1.538 sec  (  6.3% of XC)
    Density eval.           ....       6.295 sec  ( 25.8% of XC)
    XC-Functional eval.     ....       0.148 sec  (  0.6% of XC)
    XC-Potential eval.      ....      15.078 sec  ( 61.7% of XC)
Diagonalization             ....       2.521 sec  (  0.2%)
Density matrix formation    ....       0.051 sec  (  0.0%)
Population analysis         ....       0.211 sec  (  0.0%)
Initial guess               ....       1.328 sec  (  0.1%)
Orbital Transformation      ....       0.000 sec  (  0.0%)
Orbital Orthonormalization  ....       0.000 sec  (  0.0%)
DIIS solution               ....       1.279 sec  (  0.1%)
Grid generation             ....       0.427 sec  (  0.0%)

-------------------------   --------------------
FINAL SINGLE POINT ENERGY      -291.733760037736
-------------------------   --------------------


                            ***************************************
                            *     ORCA property calculations      *
                            ***************************************

                                    ---------------------
                                    Active property flags
                                    ---------------------
   (+) Dipole Moment
   (+) Polarizability


------------------------------------------------------------------------------
                       ORCA ELECTRIC PROPERTIES CALCULATION
------------------------------------------------------------------------------

Dipole Moment Calculation                       ... on
Quadrupole Moment Calculation                   ... off
Polarizability Calculation                      ... Analytic (CP-SCF)
GBWName                                         ... sih4_pbe.gbw
Electron density file                           ... sih4_pbe.scfp.tmp
The origin for moment calculation is the CENTER OF MASS  = ( 0.000000,  0.000000  0.000000)

-------------
DIPOLE MOMENT
-------------
                                X             Y             Z
Electronic contribution:     -0.00000       0.00000      -0.00000
Nuclear contribution   :      0.00000       0.00000       0.00000
                        -----------------------------------------
Total Dipole Moment    :     -0.00000       0.00000      -0.00000
                        -----------------------------------------
Magnitude (a.u.)       :      0.00000
Magnitude (Debye)      :      0.00000



--------------------
Rotational spectrum 
--------------------
 
Rotational constants in cm-1:     2.863676     2.863676     2.863676 
Rotational constants in MHz : 85850.851198 85850.851198 85850.851198 

 Dipole components along the rotational axes: 
x,y,z [a.u.] :    -0.000000     0.000000    -0.000000 
x,y,z [Debye]:    -0.000000     0.000000    -0.000000 

 
Transforming and storing MO dipole integrals   ... done

                ... starting polarizability calculation

Opening the Dipole integral file               ... (sih4_pbe.dmo.tmp) done
Reading Dipole-MO integrals                    ... done
Solving CP-SCF equations                       ... 

           ************************************************************
           *        Program running with 4 parallel MPI-processes     *
           *              working on a common directory               *
           ************************************************************

------------------------------------------------------------------------------
                           ORCA CP-SCF CALCULATION
------------------------------------------------------------------------------

Input orbitals are from        ... sih4_pbe.gbw
Input Perturbation             ... sih4_pbe.cpv.tmp
Wavefunction output            ... sih4_pbe.cpu.tmp
Perturbation mode              ... Real perturbation (singlet)
Solver                         ... POPLE
Max. number of iterations      ... 200
Convergence tolerance          ... 1.000e-06
Integral handling              ... Direct
Number of perturbations        ... 3
Number of operators            ... 2
Orbital ranges used for CP-SCF:
 Operator 0:  Orbitals   0...  8  to   9...492
 Operator 1:  Orbitals   0...  8  to   9...492
DFT calculation                         ... on
Exchange functional (SCF)               ... PBE
Exchange functional (CP-SCF)            ... PBE
   PBE kappa parameter  XKappa (SCF)    ...  0.804000
   PBE kappa parameter  XKappa (CP-SCF) ...  0.804000
   PBE mue parameter   XMuePBE (SCF)    ...  0.219520
   PBE mue parameter   XMuePBE (CP-SCF) ...  0.219520
Correlation functional (SCF)            ... PBE
Correlation functional (CP-SCF)         ... PBE
   PBE beta parameter CBetaPBE (SCF)    ...  0.066725
   PBE beta parameter CBetaPBE (CP-SCF) ...  0.066725
 LDA part of GGA corr.  LDAOpt (SCF)    ... PW91-LDA
 LDA part of GGA corr.  LDAOpt (CP-SCF) ... PW91-LDA
Variables per vector in CP-SCF ... 8712
Number of vectors sought       ... 3
Recalculating density on grid  ... done
Calculating the xc-kernel      ... done
     CP-SCF ITERATION   0: 
     CP-SCF ITERATION   1:      0.019536279657
     CP-SCF ITERATION   2:      0.000062795131
     CP-SCF ITERATION   3:      0.000004005297
     CP-SCF ITERATION   4:      0.000000021536
done
Reading CP-SCF coefficients                    ... done
Doing the polarizability tensor   ... done
Cleaning up                                    ... done

-------------------------
THE POLARIZABILITY TENSOR
-------------------------

The raw cartesian tensor (atomic units):
   33.10020      0.00000      0.00000  
    0.00000     33.10020      0.00000  
    0.00000      0.00000     33.10020  
diagonalized tensor: 
   33.10020     33.10020     33.10020  

   -0.55321     -0.65178      0.51878  
    0.59890      0.12169      0.79153  
   -0.57903      0.74858      0.32303  

Isotropic polarizability :  33.10020


Timings for individual modules:

Sum of individual times         ...     2491.658 sec (=  41.528 min)
GTO integral calculation        ...        2.160 sec (=   0.036 min)   0.1 %
SCF iterations                  ...     1462.351 sec (=  24.373 min)  58.7 %
Solution of CP-SCF eqns.        ...     1027.147 sec (=  17.119 min)  41.2 %
                             ****ORCA TERMINATED NORMALLY****
TOTAL RUN TIME: 0 days 0 hours 41 minutes 32 seconds 688 msec
