
                                 *****************
                                 * O   R   C   A *
                                 *****************

           --- An Ab Initio, DFT and Semiempirical electronic structure package ---

                  #######################################################
                  #                        -***-                        #
                  #          Department of theory and spectroscopy      #
                  #               Directorship: Frank Neese             #
                  #        Max Planck Institute fuer Kohlenforschung    #
                  #                Kaiser Wilhelm Platz 1               #
                  #                 D-45470 Muelheim/Ruhr               #
                  #                      Germany                        #
                  #                                                     #
                  #                  All rights reserved                #
                  #                        -***-                        #
                  #######################################################


                         Program Version 4.1.2  - RELEASE  -


 With contributions from (in alphabetic order):
   Daniel Aravena         : Magnetic Properties
   Michael Atanasov       : Ab Initio Ligand Field Theory
   Alexander A. Auer      : GIAO ZORA
   Ute Becker             : Parallelization
   Giovanni Bistoni       : ED, Open-shell LED
   Martin Brehm           : Molecular dynamics
   Dmytro Bykov           : SCF Hessian
   Vijay G. Chilkuri      : MRCI spin determinant printing
   Dipayan Datta          : RHF DLPNO-CCSD density
   Achintya Kumar Dutta   : EOM-CC, STEOM-CC
   Dmitry Ganyushin       : Spin-Orbit,Spin-Spin,Magnetic field MRCI
   Miquel Garcia          : C-PCM Hessian
   Yang Guo               : DLPNO-NEVPT2, CIM, IAO-localization
   Andreas Hansen         : Spin unrestricted coupled pair/coupled cluster methods
   Benjamin Helmich-Paris : CASSCF linear response (MC-RPA)
   Lee Huntington         : MR-EOM, pCC
   Robert Izsak           : Overlap fitted RIJCOSX, COSX-SCS-MP3, EOM
   Christian Kollmar      : KDIIS, OOCD, Brueckner-CCSD(T), CCSD density
   Simone Kossmann        : Meta GGA functionals, TD-DFT gradient, OOMP2, MP2 Hessian
   Martin Krupicka        : AUTO-CI
   Lucas Lang             : DCDCAS
   Dagmar Lenk            : GEPOL surface, SMD
   Dimitrios Liakos       : Extrapolation schemes; parallel MDCI
   Dimitrios Manganas     : ROCIS; embedding schemes
   Dimitrios Pantazis     : SARC Basis sets
   Taras Petrenko         : DFT Hessian,TD-DFT gradient, ASA, ECA, R-Raman, ABS, FL, XAS/XES, NRVS
   Peter Pinski           : DLPNO-MP2, DLPNO-MP2 Gradient
   Christoph Reimann      : Effective Core Potentials
   Marius Retegan         : Local ZFS, SOC
   Christoph Riplinger    : Optimizer, TS searches, QM/MM, DLPNO-CCSD(T), (RO)-DLPNO pert. Triples
   Tobias Risthaus        : Range-separated hybrids, TD-DFT gradient, RPA, STAB
   Michael Roemelt        : Restricted open shell CIS
   Masaaki Saitow         : Open-shell DLPNO
   Barbara Sandhoefer     : DKH picture change effects
   Avijit Sen             : IP-ROCIS
   Kantharuban Sivalingam : CASSCF convergence, NEVPT2, FIC-MRCI
   Bernardo de Souza      : ESD, SOC TD-DFT
   Georgi Stoychev        : AutoAux, RI-MP2 NMR
   Willem Van den Heuvel  : Paramagnetic NMR
   Boris Wezisla          : Elementary symmetry handling
   Frank Wennmohs         : Technical directorship


 We gratefully acknowledge several colleagues who have allowed us to
 interface, adapt or use parts of their codes:
   Stefan Grimme, W. Hujo, H. Kruse,             : VdW corrections, initial TS optimization,
                  C. Bannwarth                     DFT functionals, gCP, sTDA/sTD-DF
   Ed Valeev                                     : LibInt (2-el integral package), F12 methods
   Garnet Chan, S. Sharma, J. Yang, R. Olivares  : DMRG
   Ulf Ekstrom                                   : XCFun DFT Library
   Mihaly Kallay                                 : mrcc  (arbitrary order and MRCC methods)
   Andreas Klamt, Michael Diedenhofen            : otool_cosmo (COSMO solvation model)
   Jiri Pittner, Ondrej Demel                    : Mk-CCSD
   Frank Weinhold                                : gennbo (NPA and NBO analysis)
   Christopher J. Cramer and Donald G. Truhlar   : smd solvation model
   Lars Goerigk                                  : TD-DFT with DH, B97 family of functionals
   V. Asgeirsson, H. Jonsson                     : NEB implementation
   FAccTs GmbH                                   : IRC, NEB, NEB-TS, Multilevel


 Your calculation uses the libint2 library for the computation of 2-el integrals
 For citations please refer to: http://libint.valeyev.net

 This ORCA versions uses:
   CBLAS   interface :  Fast vector & matrix operations
   LAPACKE interface :  Fast linear algebra routines
   SCALAPACK package :  Parallel linear algebra routines


----- Orbital basis set information -----
Your calculation utilizes the basis: aug-pc-4
   H, C-F              : F. Jensen, J. Chem. Phys. 115, 9113 (2001).
                         F. Jensen, J. Chem. Phys. 116, 7372 (2002).
                         F. Jensen, J. Chem. Phys. 117, 9234 (2002).
   Si-Cl               : F. Jensen, T. Helgaker, J. Chem. Phys. 121, 3463 (2004).
   He-B, Ne-Mg, Al, Ar : F. Jensen, J. Phys. Chem. A 111, 11198 (2007).
   K, Ca, Ga-Kr        : F. Jensen, J. Chem. Phys. 136, 094110 (2012).
   Sc-Zn               : F. Jensen, J. Chem. Phys. 138, 014107 (2013).

================================================================================
                                        WARNINGS
                       Please study these warnings very carefully!
================================================================================


INFO   : the flag for use of LIBINT has been found!

================================================================================
                                       INPUT FILE
================================================================================
NAME = so2_pbe.inp
|  1> !uks pbe nori aug-pc-4 grid5 nofinalgrid verytightscf
|  2> 
|  3> %maxcore 1500
|  4> 
|  5> %pal nprocs 4 end
|  6> 
|  7> %scf
|  8> 	maxiter 200
|  9> end
| 10> %elprop
| 11> 	dipole true
| 12> 	 polar 1
| 13> 	 maxiter 200
| 14> end
| 15> 
| 16> * xyz 0 1
| 17> S 0.0000 0.0000 0.0000
| 18> O 0.0000 1.2371 0.7215
| 19> O 0.0000 -1.2371 0.7215
| 20> *
| 21> 
| 22>                          ****END OF INPUT****
================================================================================

                       ****************************
                       * Single Point Calculation *
                       ****************************

---------------------------------
CARTESIAN COORDINATES (ANGSTROEM)
---------------------------------
  S      0.000000    0.000000    0.000000
  O      0.000000    1.237100    0.721500
  O      0.000000   -1.237100    0.721500

----------------------------
CARTESIAN COORDINATES (A.U.)
----------------------------
  NO LB      ZA    FRAG     MASS         X           Y           Z
   0 S    16.0000    0    32.060    0.000000    0.000000    0.000000
   1 O     8.0000    0    15.999    0.000000    2.337780    1.363437
   2 O     8.0000    0    15.999    0.000000   -2.337780    1.363437

--------------------------------
INTERNAL COORDINATES (ANGSTROEM)
--------------------------------
 S      0   0   0     0.000000000000     0.00000000     0.00000000
 O      1   0   0     1.432123828445     0.00000000     0.00000000
 O      1   2   0     1.432123828445   119.49691702     0.00000000

---------------------------
INTERNAL COORDINATES (A.U.)
---------------------------
 S      0   0   0     0.000000000000     0.00000000     0.00000000
 O      1   0   0     2.706321825624     0.00000000     0.00000000
 O      1   2   0     2.706321825624   119.49691702     0.00000000

---------------------
BASIS SET INFORMATION
---------------------
There are 2 groups of distinct atoms

 Group   1 Type S   : 44s27p7d4f3g2h contracted to 8s7p7d4f3g2h pattern {15121211111/111111111/1111111/1111/111/11}
 Group   2 Type O   : 27s12p7d4f3g2h contracted to 9s8p7d4f3g2h pattern {1191111111/51111111/1111111/1111/111/11}

Atom   0S    basis set group =>   1
Atom   1O    basis set group =>   2
Atom   2O    basis set group =>   2


           ************************************************************
           *        Program running with 4 parallel MPI-processes     *
           *              working on a common directory               *
           ************************************************************
------------------------------------------------------------------------------
                           ORCA GTO INTEGRAL CALCULATION
------------------------------------------------------------------------------

                         BASIS SET STATISTICS AND STARTUP INFO

 # of primitive gaussian shells          ...  197
 # of primitive gaussian functions       ...  587
 # of contracted shells                  ...   97
 # of contracted basis functions         ...  431
 Highest angular momentum                ...    5
 Maximum contraction depth               ...   15
 Integral package used                   ... LIBINT
 Integral threshhold            Thresh   ...  1.000e-12
 Primitive cut-off              TCut     ...  1.000e-14


------------------------------ INTEGRAL EVALUATION ----------------------------


 * One electron integrals 
 Pre-screening matrix                    ... done
 Shell pair data                         ... done (   0.002 sec)



           ************************************************************
           *        Program running with 4 parallel MPI-processes     *
           *              working on a common directory               *
           ************************************************************
-------------------------------------------------------------------------------
                                 ORCA SCF
-------------------------------------------------------------------------------

------------
SCF SETTINGS
------------
Hamiltonian:
 Density Functional     Method          .... DFT(GTOs)
 Exchange Functional    Exchange        .... PBE
   PBE kappa parameter   XKappa         ....  0.804000
   PBE mue parameter    XMuePBE         ....  0.219520
 Correlation Functional Correlation     .... PBE
   PBE beta parameter  CBetaPBE         ....  0.066725
 LDA part of GGA corr.  LDAOpt          .... PW91-LDA
 Gradients option       PostSCFGGA      .... off
   Density functional embedding theory  .... OFF
   NL short-range parameter             ....  6.400000


General Settings:
 Integral files         IntName         .... so2_pbe
 Hartree-Fock type      HFTyp           .... UHF
 Total Charge           Charge          ....    0
 Multiplicity           Mult            ....    1
 Number of Electrons    NEL             ....   32
 Basis Dimension        Dim             ....  431
 Nuclear Repulsion      ENuc            ....    108.2815311315 Eh

Convergence Acceleration:
 DIIS                   CNVDIIS         .... on
   Start iteration      DIISMaxIt       ....    12
   Startup error        DIISStart       ....  0.200000
   # of expansion vecs  DIISMaxEq       ....     5
   Bias factor          DIISBfac        ....   1.050
   Max. coefficient     DIISMaxC        ....  10.000
 Newton-Raphson         CNVNR           .... off
 SOSCF                  CNVSOSCF        .... off
 Level Shifting         CNVShift        .... on
   Level shift para.    LevelShift      ....    0.2500
   Turn off err/grad.   ShiftErr        ....    0.0010
 Zerner damping         CNVZerner       .... off
 Static damping         CNVDamp         .... on
   Fraction old density DampFac         ....    0.7000
   Max. Damping (<1)    DampMax         ....    0.9800
   Min. Damping (>=0)   DampMin         ....    0.0000
   Turn off err/grad.   DampErr         ....    0.1000
 Fernandez-Rico         CNVRico         .... off

SCF Procedure:
 Maximum # iterations   MaxIter         ....   200
 SCF integral mode      SCFMode         .... Direct
   Integral package                     .... LIBINT
 Reset frequency        DirectResetFreq ....    20
 Integral Threshold     Thresh          ....  1.000e-12 Eh
 Primitive CutOff       TCut            ....  1.000e-14 Eh

Convergence Tolerance:
 Convergence Check Mode ConvCheckMode   .... Total+1el-Energy
 Convergence forced     ConvForced      .... 0
 Energy Change          TolE            ....  1.000e-09 Eh
 1-El. energy change                    ....  1.000e-06 Eh
 DIIS Error             TolErr          ....  1.000e-08


Diagonalization of the overlap matrix:
Smallest eigenvalue                        ... 1.916e-06
Time for diagonalization                   ...    0.041 sec
Threshold for overlap eigenvalues          ... 1.000e-08
Number of eigenvalues below threshold      ... 0
Time for construction of square roots      ...    0.032 sec
Total time needed                          ...    0.073 sec

-------------------
DFT GRID GENERATION
-------------------

General Integration Accuracy     IntAcc      ...  5.010
Radial Grid Type                 RadialGrid  ... Gauss-Chebyshev
Angular Grid (max. acc.)         AngularGrid ... Lebedev-434
Angular grid pruning method      GridPruning ... 3 (G Style)
Weight generation scheme         WeightScheme... Becke
Basis function cutoff            BFCut       ...    1.0000e-12
Integration weight cutoff        WCut        ...    1.0000e-14
Grids for H and He will be reduced by one unit

# of grid points (after initial pruning)     ...  33424 (   0.0 sec)
# of grid points (after weights+screening)   ...  33144 (   0.0 sec)
nearest neighbour list constructed           ...    0.0 sec
Grid point re-assignment to atoms done       ...    0.0 sec
Grid point division into batches done        ...    0.3 sec
Reduced shell lists constructed in    0.4 sec

Total number of grid points                  ...    33144
Total number of batches                      ...      520
Average number of points per batch           ...       63
Average number of grid points per atom       ...    11048
Average number of shells per batch           ...    72.51 (74.75%)
Average number of basis functions per batch  ...   336.83 (78.15%)
Average number of large shells per batch     ...    64.99 (89.63%)
Average number of large basis fcns per batch ...   304.43 (90.38%)
Maximum spatial batch extension              ...  18.07, 15.11, 11.72 au
Average spatial batch extension              ...   0.73,  0.65,  0.65 au

Time for grid setup =    0.448 sec

------------------------------
INITIAL GUESS: MODEL POTENTIAL
------------------------------
Loading Hartree-Fock densities                     ... done
Calculating cut-offs                               ... done
Setting up the integral package                    ... done
Initializing the effective Hamiltonian             ... done
Starting the Coulomb interaction                   ... done (   0.0 sec)
Reading the grid                                   ... done
Mapping shells                                     ... done
Starting the XC term evaluation                    ... done (   0.7 sec)
  promolecular density results
     # of electrons  =     32.000010744
     EX              =    -41.226161170
     EC              =     -1.170039950
     EX+EC           =    -42.396201120
Transforming the Hamiltonian                       ... done (   0.0 sec)
Diagonalizing the Hamiltonian                      ... done (   0.0 sec)
Back transforming the eigenvectors                 ... done (   0.0 sec)
Now organizing SCF variables                       ... done
                      ------------------
                      INITIAL GUESS DONE (   1.4 sec)
                      ------------------
--------------
SCF ITERATIONS
--------------
ITER       Energy         Delta-E        Max-DP      RMS-DP      [F,P]     Damp
               ***  Starting incremental Fock matrix formation  ***
  0   -548.2311849072   0.000000000000 0.03669827  0.00026212  0.2708418 0.7000
  1   -548.3421977942  -0.111012886969 0.01019035  0.00010909  0.0739522 0.7000
                               ***Turning on DIIS***
  2   -548.3604744010  -0.018276606810 0.02894339  0.00014613  0.0304997 0.0000
  3   -548.4287223702  -0.068247969229 0.00727921  0.00008596  0.0295579 0.0000
  4   -548.4283456327   0.000376737461 0.00634093  0.00003930  0.0365139 0.0000
  5   -548.4310012460  -0.002655613310 0.00190357  0.00001500  0.0099553 0.0000
  6   -548.4313374254  -0.000336179327 0.00032492  0.00000499  0.0032886 0.0000
  7   -548.4313661154  -0.000028690000 0.00014913  0.00000187  0.0011803 0.0000
  8   -548.4313695179  -0.000003402536 0.00009319  0.00000129  0.0004361 0.0000
  9   -548.4313699931  -0.000000475154 0.00004538  0.00000021  0.0000634 0.0000
 10   -548.4313700026  -0.000000009568 0.00001783  0.00000009  0.0000203 0.0000
 11   -548.4313700048  -0.000000002153 0.00000234  0.00000002  0.0000027 0.0000
 12   -548.4313700048  -0.000000000028 0.00000929  0.00000004  0.0000010 0.0000
 13   -548.4313700049  -0.000000000050 0.00000077  0.00000001  0.0000002 0.0000
 14   -548.4313700048   0.000000000014 0.00000805  0.00000006  0.0000000 0.0000
                 **** Energy Check signals convergence ****

               *****************************************************
               *                     SUCCESS                       *
               *           SCF CONVERGED AFTER  15 CYCLES          *
               *****************************************************


----------------
TOTAL SCF ENERGY
----------------

Total Energy       :         -548.43137000 Eh          -14923.57628 eV

Components:
Nuclear Repulsion  :          108.28153113 Eh            2946.49026 eV
Electronic Energy  :         -656.71290114 Eh          -17870.06654 eV
One Electron Energy:         -971.04202444 Eh          -26423.39682 eV
Two Electron Energy:          314.32912330 Eh            8553.33029 eV

Virial components:
Potential Energy   :        -1096.14134965 Eh          -29827.52253 eV
Kinetic Energy     :          547.70997965 Eh           14903.94625 eV
Virial Ratio       :            2.00131710


DFT components:
N(Alpha)           :       16.000003499183 electrons
N(Beta)            :       16.000003499183 electrons
N(Total)           :       32.000006998367 electrons
E(X)               :      -41.401975625805 Eh       
E(C)               :       -1.170851298401 Eh       
E(XC)              :      -42.572826924206 Eh       
DFET-embed. en.    :        0.000000000000 Eh       

---------------
SCF CONVERGENCE
---------------

  Last Energy change         ...   -1.3756e-11  Tolerance :   1.0000e-09
  Last MAX-Density change    ...    1.7035e-05  Tolerance :   1.0000e-08
  Last RMS-Density change    ...    8.6551e-08  Tolerance :   1.0000e-09
  Last DIIS Error            ...    2.3448e-08  Tolerance :   1.0000e-08

             **** THE GBW FILE WAS UPDATED (so2_pbe.gbw) ****
             **** DENSITY FILE WAS UPDATED (so2_pbe.scfp.tmp) ****
             **** ENERGY FILE WAS UPDATED (so2_pbe.en.tmp) ****
----------------------
UHF SPIN CONTAMINATION
----------------------

Warning: in a DFT calculation there is little theoretical justification to 
         calculate <S**2> as in Hartree-Fock theory. We will do it anyways
         but you should keep in mind that the values have only limited relevance

Expectation value of <S**2>     :     0.000000
Ideal value S*(S+1) for S=0.0   :     0.000000
Deviation                       :     0.000000

----------------
ORBITAL ENERGIES
----------------
                 SPIN UP ORBITALS
  NO   OCC          E(Eh)            E(eV) 
   0   1.0000     -88.197233     -2399.9687 
   1   1.0000     -18.811270      -511.8807 
   2   1.0000     -18.811270      -511.8807 
   3   1.0000      -7.818207      -212.7442 
   4   1.0000      -5.839833      -158.9099 
   5   1.0000      -5.836530      -158.8201 
   6   1.0000      -5.832936      -158.7223 
   7   1.0000      -1.063433       -28.9375 
   8   1.0000      -0.973909       -26.5014 
   9   1.0000      -0.578521       -15.7424 
  10   1.0000      -0.456047       -12.4097 
  11   1.0000      -0.446128       -12.1398 
  12   1.0000      -0.445689       -12.1278 
  13   1.0000      -0.347783        -9.4637 
  14   1.0000      -0.323182        -8.7942 
  15   1.0000      -0.296636        -8.0719 
  16   0.0000      -0.162070        -4.4101 
  17   0.0000      -0.023716        -0.6453 
  18   0.0000      -0.001502        -0.0409 
  19   0.0000       0.002206         0.0600 
  20   0.0000       0.013890         0.3780 
  21   0.0000       0.028346         0.7713 
  22   0.0000       0.041654         1.1335 
  23   0.0000       0.047627         1.2960 
  24   0.0000       0.050429         1.3722 
  25   0.0000       0.053896         1.4666 
  26   0.0000       0.055893         1.5209 
  27   0.0000       0.056008         1.5241 
  28   0.0000       0.081606         2.2206 
  29   0.0000       0.082287         2.2391 
  30   0.0000       0.095108         2.5880 
  31   0.0000       0.101652         2.7661 
  32   0.0000       0.114055         3.1036 
  33   0.0000       0.117188         3.1888 
  34   0.0000       0.128719         3.5026 
  35   0.0000       0.129783         3.5316 
  36   0.0000       0.135996         3.7006 
  37   0.0000       0.149248         4.0612 
  38   0.0000       0.151093         4.1115 
  39   0.0000       0.166693         4.5360 
  40   0.0000       0.182483         4.9656 
  41   0.0000       0.187457         5.1010 
  42   0.0000       0.193551         5.2668 
  43   0.0000       0.199481         5.4282 
  44   0.0000       0.207584         5.6486 
  45   0.0000       0.221955         6.0397 
  46   0.0000       0.226984         6.1765 
  47   0.0000       0.232948         6.3388 
  48   0.0000       0.241180         6.5628 
  49   0.0000       0.246468         6.7067 
  50   0.0000       0.252386         6.8678 
  51   0.0000       0.254632         6.9289 
  52   0.0000       0.258598         7.0368 
  53   0.0000       0.263116         7.1597 
  54   0.0000       0.264582         7.1996 
  55   0.0000       0.272835         7.4242 
  56   0.0000       0.277076         7.5396 
  57   0.0000       0.277867         7.5611 
  58   0.0000       0.296396         8.0654 
  59   0.0000       0.319058         8.6820 
  60   0.0000       0.329822         8.9749 
  61   0.0000       0.341409         9.2902 
  62   0.0000       0.341864         9.3026 
  63   0.0000       0.350345         9.5334 
  64   0.0000       0.361183         9.8283 
  65   0.0000       0.386450        10.5158 
  66   0.0000       0.387495        10.5443 
  67   0.0000       0.402722        10.9586 
  68   0.0000       0.422744        11.5034 
  69   0.0000       0.429558        11.6889 
  70   0.0000       0.433989        11.8094 
  71   0.0000       0.435776        11.8581 
  72   0.0000       0.440600        11.9893 
  73   0.0000       0.444486        12.0951 
  74   0.0000       0.447604        12.1799 
  75   0.0000       0.454378        12.3643 
  76   0.0000       0.457722        12.4552 
  77   0.0000       0.469432        12.7739 
  78   0.0000       0.470362        12.7992 
  79   0.0000       0.471332        12.8256 
  80   0.0000       0.483464        13.1557 
  81   0.0000       0.486377        13.2350 
  82   0.0000       0.498008        13.5515 
  83   0.0000       0.511782        13.9263 
  84   0.0000       0.513074        13.9614 
  85   0.0000       0.520365        14.1599 
  86   0.0000       0.522543        14.2191 
  87   0.0000       0.538380        14.6501 
  88   0.0000       0.551221        14.9995 
  89   0.0000       0.559367        15.2212 
  90   0.0000       0.565125        15.3778 
  91   0.0000       0.575625        15.6636 
  92   0.0000       0.585118        15.9219 
  93   0.0000       0.592402        16.1201 
  94   0.0000       0.599258        16.3066 
  95   0.0000       0.605484        16.4761 
  96   0.0000       0.621383        16.9087 
  97   0.0000       0.634494        17.2655 
  98   0.0000       0.647559        17.6210 
  99   0.0000       0.651386        17.7251 
 100   0.0000       0.654458        17.8087 
 101   0.0000       0.666834        18.1455 
 102   0.0000       0.671622        18.2758 
 103   0.0000       0.684728        18.6324 
 104   0.0000       0.685845        18.6628 
 105   0.0000       0.689895        18.7730 
 106   0.0000       0.699315        19.0293 
 107   0.0000       0.737536        20.0694 
 108   0.0000       0.742302        20.1991 
 109   0.0000       0.746236        20.3061 
 110   0.0000       0.757579        20.6148 
 111   0.0000       0.764574        20.8051 
 112   0.0000       0.781368        21.2621 
 113   0.0000       0.782878        21.3032 
 114   0.0000       0.802083        21.8258 
 115   0.0000       0.802950        21.8494 
 116   0.0000       0.812511        22.1096 
 117   0.0000       0.833175        22.6718 
 118   0.0000       0.845222        22.9996 
 119   0.0000       0.849748        23.1228 
 120   0.0000       0.850985        23.1565 
 121   0.0000       0.862330        23.4652 
 122   0.0000       0.868772        23.6405 
 123   0.0000       0.872350        23.7379 
 124   0.0000       0.881820        23.9955 
 125   0.0000       0.881904        23.9978 
 126   0.0000       0.901133        24.5211 
 127   0.0000       0.901658        24.5354 
 128   0.0000       0.902217        24.5506 
 129   0.0000       0.911887        24.8137 
 130   0.0000       0.920014        25.0349 
 131   0.0000       0.934664        25.4335 
 132   0.0000       0.963233        26.2109 
 133   0.0000       0.967026        26.3141 
 134   0.0000       0.980252        26.6740 
 135   0.0000       0.994253        27.0550 
 136   0.0000       0.999265        27.1914 
 137   0.0000       0.999875        27.2080 
 138   0.0000       1.003871        27.3167 
 139   0.0000       1.004952        27.3461 
 140   0.0000       1.022484        27.8232 
 141   0.0000       1.033101        28.1121 
 142   0.0000       1.041454        28.3394 
 143   0.0000       1.042751        28.3747 
 144   0.0000       1.043149        28.3855 
 145   0.0000       1.054581        28.6966 
 146   0.0000       1.083981        29.4966 
 147   0.0000       1.087439        29.5907 
 148   0.0000       1.089542        29.6479 
 149   0.0000       1.102511        30.0009 
 150   0.0000       1.111371        30.2419 
 151   0.0000       1.115793        30.3623 
 152   0.0000       1.119425        30.4611 
 153   0.0000       1.121447        30.5161 
 154   0.0000       1.146025        31.1849 
 155   0.0000       1.149077        31.2680 
 156   0.0000       1.158200        31.5162 
 157   0.0000       1.194596        32.5066 
 158   0.0000       1.195998        32.5448 
 159   0.0000       1.200213        32.6595 
 160   0.0000       1.204268        32.7698 
 161   0.0000       1.230457        33.4824 
 162   0.0000       1.242379        33.8069 
 163   0.0000       1.266245        34.4563 
 164   0.0000       1.308335        35.6016 
 165   0.0000       1.313628        35.7456 
 166   0.0000       1.340639        36.4806 
 167   0.0000       1.357513        36.9398 
 168   0.0000       1.406778        38.2804 
 169   0.0000       1.446047        39.3489 
 170   0.0000       1.448329        39.4110 
 171   0.0000       1.537614        41.8406 
 172   0.0000       1.545762        42.0623 
 173   0.0000       1.561151        42.4811 
 174   0.0000       1.620375        44.0926 
 175   0.0000       1.641168        44.6585 
 176   0.0000       1.651536        44.9406 
 177   0.0000       1.666150        45.3382 
 178   0.0000       1.683109        45.7997 
 179   0.0000       1.764226        48.0070 
 180   0.0000       1.777329        48.3636 
 181   0.0000       1.777405        48.3656 
 182   0.0000       1.786553        48.6146 
 183   0.0000       1.851532        50.3827 
 184   0.0000       1.876048        51.0498 
 185   0.0000       1.876349        51.0581 
 186   0.0000       1.897053        51.6214 
 187   0.0000       1.933053        52.6011 
 188   0.0000       1.934487        52.6401 
 189   0.0000       1.971583        53.6495 
 190   0.0000       1.977743        53.8171 
 191   0.0000       1.986001        54.0418 
 192   0.0000       2.005104        54.5617 
 193   0.0000       2.088079        56.8195 
 194   0.0000       2.099587        57.1327 
 195   0.0000       2.100357        57.1536 
 196   0.0000       2.132466        58.0274 
 197   0.0000       2.140339        58.2416 
 198   0.0000       2.169811        59.0436 
 199   0.0000       2.226157        60.5768 
 200   0.0000       2.248668        61.1894 
 201   0.0000       2.286247        62.2119 
 202   0.0000       2.319169        63.1078 
 203   0.0000       2.360903        64.2434 
 204   0.0000       2.417288        65.7778 
 205   0.0000       2.439606        66.3850 
 206   0.0000       2.483940        67.5914 
 207   0.0000       2.486905        67.6721 
 208   0.0000       2.644955        71.9729 
 209   0.0000       2.664014        72.4915 
 210   0.0000       2.680309        72.9349 
 211   0.0000       2.741130        74.5899 
 212   0.0000       2.761095        75.1332 
 213   0.0000       2.812048        76.5197 
 214   0.0000       2.836524        77.1857 
 215   0.0000       3.012879        81.9846 
 216   0.0000       3.132901        85.2506 
 217   0.0000       3.146508        85.6208 
 218   0.0000       3.276722        89.1641 
 219   0.0000       3.309173        90.0472 
 220   0.0000       3.350458        91.1706 
 221   0.0000       3.354013        91.2673 
 222   0.0000       3.417459        92.9938 
 223   0.0000       3.428076        93.2827 
 224   0.0000       3.446244        93.7771 
 225   0.0000       3.572389        97.2097 
 226   0.0000       3.573559        97.2415 
 227   0.0000       3.602686        98.0341 
 228   0.0000       3.650132        99.3251 
 229   0.0000       3.711475       100.9944 
 230   0.0000       3.754991       102.1785 
 231   0.0000       3.779739       102.8519 
 232   0.0000       3.797815       103.3438 
 233   0.0000       4.010840       109.1405 
 234   0.0000       4.058718       110.4433 
 235   0.0000       4.088692       111.2590 
 236   0.0000       4.093367       111.3862 
 237   0.0000       4.109720       111.8312 
 238   0.0000       4.162420       113.2652 
 239   0.0000       4.174859       113.6037 
 240   0.0000       4.205663       114.4419 
 241   0.0000       4.220261       114.8391 
 242   0.0000       4.313219       117.3686 
 243   0.0000       4.346366       118.2706 
 244   0.0000       4.437371       120.7470 
 245   0.0000       4.448519       121.0503 
 246   0.0000       4.457207       121.2868 
 247   0.0000       4.537866       123.4816 
 248   0.0000       4.545467       123.6885 
 249   0.0000       4.660374       126.8152 
 250   0.0000       4.816030       131.0508 
 251   0.0000       4.851940       132.0280 
 252   0.0000       4.863788       132.3504 
 253   0.0000       4.946374       134.5977 
 254   0.0000       4.975973       135.4031 
 255   0.0000       4.983765       135.6151 
 256   0.0000       5.031220       136.9065 
 257   0.0000       5.167169       140.6058 
 258   0.0000       5.167461       140.6138 
 259   0.0000       5.171341       140.7193 
 260   0.0000       5.206598       141.6787 
 261   0.0000       5.268682       143.3681 
 262   0.0000       5.322370       144.8290 
 263   0.0000       5.366924       146.0414 
 264   0.0000       5.369198       146.1033 
 265   0.0000       5.380102       146.4000 
 266   0.0000       5.498707       149.6274 
 267   0.0000       5.575823       151.7258 
 268   0.0000       5.603109       152.4683 
 269   0.0000       5.617349       152.8558 
 270   0.0000       5.704231       155.2200 
 271   0.0000       5.739997       156.1933 
 272   0.0000       5.802025       157.8811 
 273   0.0000       5.817731       158.3085 
 274   0.0000       5.844638       159.0407 
 275   0.0000       5.901458       160.5868 
 276   0.0000       5.923525       161.1873 
 277   0.0000       5.955596       162.0600 
 278   0.0000       5.983257       162.8127 
 279   0.0000       6.009931       163.5385 
 280   0.0000       6.192784       168.5142 
 281   0.0000       6.317499       171.9079 
 282   0.0000       6.438739       175.2070 
 283   0.0000       6.476981       176.2476 
 284   0.0000       6.567670       178.7154 
 285   0.0000       6.650680       180.9742 
 286   0.0000       6.705048       182.4536 
 287   0.0000       6.757752       183.8878 
 288   0.0000       6.798008       184.9832 
 289   0.0000       7.173636       195.2045 
 290   0.0000       7.296127       198.5377 
 291   0.0000       7.385637       200.9734 
 292   0.0000       7.403332       201.4549 
 293   0.0000       7.516152       204.5249 
 294   0.0000       7.551563       205.4885 
 295   0.0000       7.711685       209.8456 
 296   0.0000       7.808583       212.4824 
 297   0.0000       7.843060       213.4205 
 298   0.0000       7.868552       214.1142 
 299   0.0000       7.883321       214.5161 
 300   0.0000       8.168459       222.2751 
 301   0.0000       8.169539       222.3045 
 302   0.0000       8.197624       223.0687 
 303   0.0000       8.219492       223.6637 
 304   0.0000       8.426510       229.2970 
 305   0.0000       8.702924       236.8186 
 306   0.0000       8.782557       238.9855 
 307   0.0000       8.811326       239.7684 
 308   0.0000       8.888555       241.8699 
 309   0.0000       9.287303       252.7203 
 310   0.0000       9.296744       252.9773 
 311   0.0000       9.364548       254.8223 
 312   0.0000       9.393318       255.6052 
 313   0.0000       9.435384       256.7499 
 314   0.0000       9.469049       257.6659 
 315   0.0000       9.738455       264.9968 
 316   0.0000       9.741493       265.0795 
 317   0.0000       9.742220       265.0993 
 318   0.0000       9.995307       271.9861 
 319   0.0000      10.326325       280.9936 
 320   0.0000      10.520766       286.2846 
 321   0.0000      10.749722       292.5148 
 322   0.0000      10.788122       293.5597 
 323   0.0000      10.911767       296.9243 
 324   0.0000      11.001764       299.3732 
 325   0.0000      11.012410       299.6629 
 326   0.0000      11.079230       301.4812 
 327   0.0000      11.503473       313.0254 
 328   0.0000      11.611582       315.9672 
 329   0.0000      11.788467       320.7805 
 330   0.0000      11.904003       323.9244 
 331   0.0000      11.977245       325.9174 
 332   0.0000      11.990337       326.2736 
 333   0.0000      11.991486       326.3049 
 334   0.0000      11.992185       326.3240 
 335   0.0000      11.992953       326.3448 
 336   0.0000      12.001180       326.5687 
 337   0.0000      12.009639       326.7989 
 338   0.0000      12.013230       326.8966 
 339   0.0000      12.024627       327.2067 
 340   0.0000      12.094359       329.1042 
 341   0.0000      12.164886       331.0234 
 342   0.0000      12.177443       331.3651 
 343   0.0000      12.180248       331.4414 
 344   0.0000      12.183591       331.5324 
 345   0.0000      12.241580       333.1103 
 346   0.0000      12.311644       335.0169 
 347   0.0000      12.428086       338.1854 
 348   0.0000      12.429134       338.2139 
 349   0.0000      12.477163       339.5209 
 350   0.0000      12.489345       339.8523 
 351   0.0000      12.510828       340.4369 
 352   0.0000      12.512310       340.4773 
 353   0.0000      12.526173       340.8545 
 354   0.0000      12.585900       342.4798 
 355   0.0000      12.635402       343.8268 
 356   0.0000      12.643484       344.0467 
 357   0.0000      12.644101       344.0635 
 358   0.0000      12.645909       344.1127 
 359   0.0000      12.660968       344.5225 
 360   0.0000      12.952292       352.4498 
 361   0.0000      13.007546       353.9533 
 362   0.0000      13.053734       355.2101 
 363   0.0000      13.191037       358.9464 
 364   0.0000      13.325172       362.5964 
 365   0.0000      13.510237       367.6322 
 366   0.0000      14.043610       382.1460 
 367   0.0000      14.060872       382.6158 
 368   0.0000      14.205390       386.5483 
 369   0.0000      14.435424       392.8079 
 370   0.0000      15.374255       418.3548 
 371   0.0000      15.491279       421.5391 
 372   0.0000      16.938004       460.9065 
 373   0.0000      16.940865       460.9844 
 374   0.0000      16.940908       460.9855 
 375   0.0000      16.949917       461.2307 
 376   0.0000      16.958698       461.4696 
 377   0.0000      17.059776       464.2201 
 378   0.0000      17.083082       464.8543 
 379   0.0000      17.135800       466.2888 
 380   0.0000      17.156564       466.8538 
 381   0.0000      17.183853       467.5964 
 382   0.0000      17.239646       469.1146 
 383   0.0000      17.715348       482.0591 
 384   0.0000      17.729442       482.4426 
 385   0.0000      17.789323       484.0721 
 386   0.0000      17.844101       485.5627 
 387   0.0000      18.299880       497.9651 
 388   0.0000      18.374658       499.9999 
 389   0.0000      18.498200       503.3616 
 390   0.0000      18.546038       504.6634 
 391   0.0000      18.627072       506.8684 
 392   0.0000      18.644276       507.3366 
 393   0.0000      19.182335       521.9779 
 394   0.0000      19.360971       526.8388 
 395   0.0000      22.873411       622.4171 
 396   0.0000      22.930264       623.9642 
 397   0.0000      22.933176       624.0434 
 398   0.0000      22.979368       625.3004 
 399   0.0000      23.255941       632.8263 
 400   0.0000      23.269980       633.2084 
 401   0.0000      23.313151       634.3831 
 402   0.0000      23.463181       638.4656 
 403   0.0000      24.271386       660.4580 
 404   0.0000      24.418997       664.4747 
 405   0.0000      29.754075       809.6495 
 406   0.0000      29.867969       812.7488 
 407   0.0000      31.792497       865.1178 
 408   0.0000      31.865007       867.0909 
 409   0.0000      31.882048       867.5546 
 410   0.0000      31.944511       869.2543 
 411   0.0000      32.871053       894.4668 
 412   0.0000      33.264858       905.1828 
 413   0.0000      35.093436       954.9409 
 414   0.0000      62.367893      1697.1167 
 415   0.0000      62.441963      1699.1322 
 416   0.0000      62.512364      1701.0479 
 417   0.0000      63.173089      1719.0271 
 418   0.0000      63.315670      1722.9070 
 419   0.0000      66.477260      1808.9382 
 420   0.0000      66.516661      1810.0104 
 421   0.0000      66.519458      1810.0865 
 422   0.0000      66.547112      1810.8390 
 423   0.0000      66.731411      1815.8540 
 424   0.0000      66.743340      1816.1786 
 425   0.0000      66.765109      1816.7710 
 426   0.0000      66.894137      1820.2820 
 427   0.0000      67.512006      1837.0951 
 428   0.0000      67.544091      1837.9682 
 429   0.0000     142.582948      3879.8793 
 430   0.0000     142.796109      3885.6797 

                 SPIN DOWN ORBITALS
  NO   OCC          E(Eh)            E(eV) 
   0   1.0000     -88.197233     -2399.9687 
   1   1.0000     -18.811270      -511.8807 
   2   1.0000     -18.811270      -511.8807 
   3   1.0000      -7.818207      -212.7442 
   4   1.0000      -5.839833      -158.9099 
   5   1.0000      -5.836530      -158.8201 
   6   1.0000      -5.832936      -158.7223 
   7   1.0000      -1.063433       -28.9375 
   8   1.0000      -0.973909       -26.5014 
   9   1.0000      -0.578521       -15.7424 
  10   1.0000      -0.456047       -12.4097 
  11   1.0000      -0.446128       -12.1398 
  12   1.0000      -0.445689       -12.1278 
  13   1.0000      -0.347783        -9.4637 
  14   1.0000      -0.323182        -8.7942 
  15   1.0000      -0.296636        -8.0719 
  16   0.0000      -0.162070        -4.4101 
  17   0.0000      -0.023716        -0.6453 
  18   0.0000      -0.001502        -0.0409 
  19   0.0000       0.002206         0.0600 
  20   0.0000       0.013890         0.3780 
  21   0.0000       0.028346         0.7713 
  22   0.0000       0.041654         1.1335 
  23   0.0000       0.047627         1.2960 
  24   0.0000       0.050429         1.3722 
  25   0.0000       0.053896         1.4666 
  26   0.0000       0.055893         1.5209 
  27   0.0000       0.056008         1.5241 
  28   0.0000       0.081606         2.2206 
  29   0.0000       0.082287         2.2391 
  30   0.0000       0.095108         2.5880 
  31   0.0000       0.101652         2.7661 
  32   0.0000       0.114055         3.1036 
  33   0.0000       0.117188         3.1888 
  34   0.0000       0.128719         3.5026 
  35   0.0000       0.129783         3.5316 
  36   0.0000       0.135996         3.7006 
  37   0.0000       0.149248         4.0612 
  38   0.0000       0.151093         4.1115 
  39   0.0000       0.166693         4.5360 
  40   0.0000       0.182483         4.9656 
  41   0.0000       0.187457         5.1010 
  42   0.0000       0.193551         5.2668 
  43   0.0000       0.199481         5.4282 
  44   0.0000       0.207584         5.6486 
  45   0.0000       0.221955         6.0397 
  46   0.0000       0.226984         6.1765 
  47   0.0000       0.232948         6.3388 
  48   0.0000       0.241180         6.5628 
  49   0.0000       0.246468         6.7067 
  50   0.0000       0.252386         6.8678 
  51   0.0000       0.254632         6.9289 
  52   0.0000       0.258598         7.0368 
  53   0.0000       0.263116         7.1597 
  54   0.0000       0.264582         7.1996 
  55   0.0000       0.272835         7.4242 
  56   0.0000       0.277076         7.5396 
  57   0.0000       0.277867         7.5611 
  58   0.0000       0.296396         8.0654 
  59   0.0000       0.319058         8.6820 
  60   0.0000       0.329822         8.9749 
  61   0.0000       0.341409         9.2902 
  62   0.0000       0.341864         9.3026 
  63   0.0000       0.350345         9.5334 
  64   0.0000       0.361183         9.8283 
  65   0.0000       0.386450        10.5158 
  66   0.0000       0.387495        10.5443 
  67   0.0000       0.402722        10.9586 
  68   0.0000       0.422744        11.5034 
  69   0.0000       0.429558        11.6889 
  70   0.0000       0.433989        11.8094 
  71   0.0000       0.435776        11.8581 
  72   0.0000       0.440600        11.9893 
  73   0.0000       0.444486        12.0951 
  74   0.0000       0.447604        12.1799 
  75   0.0000       0.454378        12.3643 
  76   0.0000       0.457722        12.4552 
  77   0.0000       0.469432        12.7739 
  78   0.0000       0.470362        12.7992 
  79   0.0000       0.471332        12.8256 
  80   0.0000       0.483464        13.1557 
  81   0.0000       0.486377        13.2350 
  82   0.0000       0.498008        13.5515 
  83   0.0000       0.511782        13.9263 
  84   0.0000       0.513074        13.9614 
  85   0.0000       0.520365        14.1599 
  86   0.0000       0.522543        14.2191 
  87   0.0000       0.538380        14.6501 
  88   0.0000       0.551221        14.9995 
  89   0.0000       0.559367        15.2212 
  90   0.0000       0.565125        15.3778 
  91   0.0000       0.575625        15.6636 
  92   0.0000       0.585118        15.9219 
  93   0.0000       0.592402        16.1201 
  94   0.0000       0.599258        16.3066 
  95   0.0000       0.605484        16.4761 
  96   0.0000       0.621383        16.9087 
  97   0.0000       0.634494        17.2655 
  98   0.0000       0.647559        17.6210 
  99   0.0000       0.651386        17.7251 
 100   0.0000       0.654458        17.8087 
 101   0.0000       0.666834        18.1455 
 102   0.0000       0.671622        18.2758 
 103   0.0000       0.684728        18.6324 
 104   0.0000       0.685845        18.6628 
 105   0.0000       0.689895        18.7730 
 106   0.0000       0.699315        19.0293 
 107   0.0000       0.737536        20.0694 
 108   0.0000       0.742302        20.1991 
 109   0.0000       0.746236        20.3061 
 110   0.0000       0.757579        20.6148 
 111   0.0000       0.764574        20.8051 
 112   0.0000       0.781368        21.2621 
 113   0.0000       0.782878        21.3032 
 114   0.0000       0.802083        21.8258 
 115   0.0000       0.802950        21.8494 
 116   0.0000       0.812511        22.1096 
 117   0.0000       0.833175        22.6718 
 118   0.0000       0.845222        22.9996 
 119   0.0000       0.849748        23.1228 
 120   0.0000       0.850985        23.1565 
 121   0.0000       0.862330        23.4652 
 122   0.0000       0.868772        23.6405 
 123   0.0000       0.872350        23.7379 
 124   0.0000       0.881820        23.9955 
 125   0.0000       0.881904        23.9978 
 126   0.0000       0.901133        24.5211 
 127   0.0000       0.901658        24.5354 
 128   0.0000       0.902217        24.5506 
 129   0.0000       0.911887        24.8137 
 130   0.0000       0.920014        25.0349 
 131   0.0000       0.934664        25.4335 
 132   0.0000       0.963233        26.2109 
 133   0.0000       0.967026        26.3141 
 134   0.0000       0.980252        26.6740 
 135   0.0000       0.994253        27.0550 
 136   0.0000       0.999265        27.1914 
 137   0.0000       0.999875        27.2080 
 138   0.0000       1.003871        27.3167 
 139   0.0000       1.004952        27.3461 
 140   0.0000       1.022484        27.8232 
 141   0.0000       1.033101        28.1121 
 142   0.0000       1.041454        28.3394 
 143   0.0000       1.042751        28.3747 
 144   0.0000       1.043149        28.3855 
 145   0.0000       1.054581        28.6966 
 146   0.0000       1.083981        29.4966 
 147   0.0000       1.087439        29.5907 
 148   0.0000       1.089542        29.6479 
 149   0.0000       1.102511        30.0009 
 150   0.0000       1.111371        30.2419 
 151   0.0000       1.115793        30.3623 
 152   0.0000       1.119425        30.4611 
 153   0.0000       1.121447        30.5161 
 154   0.0000       1.146025        31.1849 
 155   0.0000       1.149077        31.2680 
 156   0.0000       1.158200        31.5162 
 157   0.0000       1.194596        32.5066 
 158   0.0000       1.195998        32.5448 
 159   0.0000       1.200213        32.6595 
 160   0.0000       1.204268        32.7698 
 161   0.0000       1.230457        33.4824 
 162   0.0000       1.242379        33.8069 
 163   0.0000       1.266245        34.4563 
 164   0.0000       1.308335        35.6016 
 165   0.0000       1.313628        35.7456 
 166   0.0000       1.340639        36.4806 
 167   0.0000       1.357513        36.9398 
 168   0.0000       1.406778        38.2804 
 169   0.0000       1.446047        39.3489 
 170   0.0000       1.448329        39.4110 
 171   0.0000       1.537614        41.8406 
 172   0.0000       1.545762        42.0623 
 173   0.0000       1.561151        42.4811 
 174   0.0000       1.620375        44.0926 
 175   0.0000       1.641168        44.6585 
 176   0.0000       1.651536        44.9406 
 177   0.0000       1.666150        45.3382 
 178   0.0000       1.683109        45.7997 
 179   0.0000       1.764226        48.0070 
 180   0.0000       1.777329        48.3636 
 181   0.0000       1.777405        48.3656 
 182   0.0000       1.786553        48.6146 
 183   0.0000       1.851532        50.3827 
 184   0.0000       1.876048        51.0498 
 185   0.0000       1.876349        51.0581 
 186   0.0000       1.897053        51.6214 
 187   0.0000       1.933053        52.6011 
 188   0.0000       1.934487        52.6401 
 189   0.0000       1.971583        53.6495 
 190   0.0000       1.977743        53.8171 
 191   0.0000       1.986001        54.0418 
 192   0.0000       2.005104        54.5617 
 193   0.0000       2.088079        56.8195 
 194   0.0000       2.099587        57.1327 
 195   0.0000       2.100357        57.1536 
 196   0.0000       2.132466        58.0274 
 197   0.0000       2.140339        58.2416 
 198   0.0000       2.169811        59.0436 
 199   0.0000       2.226157        60.5768 
 200   0.0000       2.248668        61.1894 
 201   0.0000       2.286247        62.2119 
 202   0.0000       2.319169        63.1078 
 203   0.0000       2.360903        64.2434 
 204   0.0000       2.417288        65.7778 
 205   0.0000       2.439606        66.3850 
 206   0.0000       2.483940        67.5914 
 207   0.0000       2.486905        67.6721 
 208   0.0000       2.644955        71.9729 
 209   0.0000       2.664014        72.4915 
 210   0.0000       2.680309        72.9349 
 211   0.0000       2.741130        74.5899 
 212   0.0000       2.761095        75.1332 
 213   0.0000       2.812048        76.5197 
 214   0.0000       2.836524        77.1857 
 215   0.0000       3.012879        81.9846 
 216   0.0000       3.132901        85.2506 
 217   0.0000       3.146508        85.6208 
 218   0.0000       3.276722        89.1641 
 219   0.0000       3.309173        90.0472 
 220   0.0000       3.350458        91.1706 
 221   0.0000       3.354013        91.2673 
 222   0.0000       3.417459        92.9938 
 223   0.0000       3.428076        93.2827 
 224   0.0000       3.446244        93.7771 
 225   0.0000       3.572389        97.2097 
 226   0.0000       3.573559        97.2415 
 227   0.0000       3.602686        98.0341 
 228   0.0000       3.650132        99.3251 
 229   0.0000       3.711475       100.9944 
 230   0.0000       3.754991       102.1785 
 231   0.0000       3.779739       102.8519 
 232   0.0000       3.797815       103.3438 
 233   0.0000       4.010840       109.1405 
 234   0.0000       4.058718       110.4433 
 235   0.0000       4.088692       111.2590 
 236   0.0000       4.093367       111.3862 
 237   0.0000       4.109720       111.8312 
 238   0.0000       4.162420       113.2652 
 239   0.0000       4.174859       113.6037 
 240   0.0000       4.205663       114.4419 
 241   0.0000       4.220261       114.8391 
 242   0.0000       4.313219       117.3686 
 243   0.0000       4.346366       118.2706 
 244   0.0000       4.437371       120.7470 
 245   0.0000       4.448519       121.0503 
 246   0.0000       4.457207       121.2868 
 247   0.0000       4.537866       123.4816 
 248   0.0000       4.545467       123.6885 
 249   0.0000       4.660374       126.8152 
 250   0.0000       4.816030       131.0508 
 251   0.0000       4.851940       132.0280 
 252   0.0000       4.863788       132.3504 
 253   0.0000       4.946374       134.5977 
 254   0.0000       4.975973       135.4031 
 255   0.0000       4.983765       135.6151 
 256   0.0000       5.031220       136.9065 
 257   0.0000       5.167169       140.6058 
 258   0.0000       5.167461       140.6138 
 259   0.0000       5.171341       140.7193 
 260   0.0000       5.206598       141.6787 
 261   0.0000       5.268682       143.3681 
 262   0.0000       5.322370       144.8290 
 263   0.0000       5.366924       146.0414 
 264   0.0000       5.369198       146.1033 
 265   0.0000       5.380102       146.4000 
 266   0.0000       5.498707       149.6274 
 267   0.0000       5.575823       151.7258 
 268   0.0000       5.603109       152.4683 
 269   0.0000       5.617349       152.8558 
 270   0.0000       5.704231       155.2200 
 271   0.0000       5.739997       156.1933 
 272   0.0000       5.802025       157.8811 
 273   0.0000       5.817731       158.3085 
 274   0.0000       5.844638       159.0407 
 275   0.0000       5.901458       160.5868 
 276   0.0000       5.923525       161.1873 
 277   0.0000       5.955596       162.0600 
 278   0.0000       5.983257       162.8127 
 279   0.0000       6.009931       163.5385 
 280   0.0000       6.192784       168.5142 
 281   0.0000       6.317499       171.9079 
 282   0.0000       6.438739       175.2070 
 283   0.0000       6.476981       176.2476 
 284   0.0000       6.567670       178.7154 
 285   0.0000       6.650680       180.9742 
 286   0.0000       6.705048       182.4536 
 287   0.0000       6.757752       183.8878 
 288   0.0000       6.798008       184.9832 
 289   0.0000       7.173636       195.2045 
 290   0.0000       7.296127       198.5377 
 291   0.0000       7.385637       200.9734 
 292   0.0000       7.403332       201.4549 
 293   0.0000       7.516152       204.5249 
 294   0.0000       7.551563       205.4885 
 295   0.0000       7.711685       209.8456 
 296   0.0000       7.808583       212.4824 
 297   0.0000       7.843060       213.4205 
 298   0.0000       7.868552       214.1142 
 299   0.0000       7.883321       214.5161 
 300   0.0000       8.168459       222.2751 
 301   0.0000       8.169539       222.3045 
 302   0.0000       8.197624       223.0687 
 303   0.0000       8.219492       223.6637 
 304   0.0000       8.426510       229.2970 
 305   0.0000       8.702924       236.8186 
 306   0.0000       8.782557       238.9855 
 307   0.0000       8.811326       239.7684 
 308   0.0000       8.888555       241.8699 
 309   0.0000       9.287303       252.7203 
 310   0.0000       9.296744       252.9773 
 311   0.0000       9.364548       254.8223 
 312   0.0000       9.393318       255.6052 
 313   0.0000       9.435384       256.7499 
 314   0.0000       9.469049       257.6659 
 315   0.0000       9.738455       264.9968 
 316   0.0000       9.741493       265.0795 
 317   0.0000       9.742220       265.0993 
 318   0.0000       9.995307       271.9861 
 319   0.0000      10.326325       280.9936 
 320   0.0000      10.520766       286.2846 
 321   0.0000      10.749722       292.5148 
 322   0.0000      10.788122       293.5597 
 323   0.0000      10.911767       296.9243 
 324   0.0000      11.001764       299.3732 
 325   0.0000      11.012410       299.6629 
 326   0.0000      11.079230       301.4812 
 327   0.0000      11.503473       313.0254 
 328   0.0000      11.611582       315.9672 
 329   0.0000      11.788467       320.7805 
 330   0.0000      11.904003       323.9244 
 331   0.0000      11.977245       325.9174 
 332   0.0000      11.990337       326.2736 
 333   0.0000      11.991486       326.3049 
 334   0.0000      11.992185       326.3240 
 335   0.0000      11.992953       326.3448 
 336   0.0000      12.001180       326.5687 
 337   0.0000      12.009639       326.7989 
 338   0.0000      12.013230       326.8966 
 339   0.0000      12.024627       327.2067 
 340   0.0000      12.094359       329.1042 
 341   0.0000      12.164886       331.0234 
 342   0.0000      12.177443       331.3651 
 343   0.0000      12.180248       331.4414 
 344   0.0000      12.183591       331.5324 
 345   0.0000      12.241580       333.1103 
 346   0.0000      12.311644       335.0169 
 347   0.0000      12.428086       338.1854 
 348   0.0000      12.429134       338.2139 
 349   0.0000      12.477163       339.5209 
 350   0.0000      12.489345       339.8523 
 351   0.0000      12.510828       340.4369 
 352   0.0000      12.512310       340.4773 
 353   0.0000      12.526173       340.8545 
 354   0.0000      12.585900       342.4798 
 355   0.0000      12.635402       343.8268 
 356   0.0000      12.643484       344.0467 
 357   0.0000      12.644101       344.0635 
 358   0.0000      12.645909       344.1127 
 359   0.0000      12.660968       344.5225 
 360   0.0000      12.952292       352.4498 
 361   0.0000      13.007546       353.9533 
 362   0.0000      13.053734       355.2101 
 363   0.0000      13.191037       358.9464 
 364   0.0000      13.325172       362.5964 
 365   0.0000      13.510237       367.6322 
 366   0.0000      14.043610       382.1460 
 367   0.0000      14.060872       382.6158 
 368   0.0000      14.205390       386.5483 
 369   0.0000      14.435424       392.8079 
 370   0.0000      15.374255       418.3548 
 371   0.0000      15.491279       421.5391 
 372   0.0000      16.938004       460.9065 
 373   0.0000      16.940865       460.9844 
 374   0.0000      16.940908       460.9855 
 375   0.0000      16.949917       461.2307 
 376   0.0000      16.958698       461.4696 
 377   0.0000      17.059776       464.2201 
 378   0.0000      17.083082       464.8543 
 379   0.0000      17.135800       466.2888 
 380   0.0000      17.156564       466.8538 
 381   0.0000      17.183853       467.5964 
 382   0.0000      17.239646       469.1146 
 383   0.0000      17.715348       482.0591 
 384   0.0000      17.729442       482.4426 
 385   0.0000      17.789323       484.0721 
 386   0.0000      17.844101       485.5627 
 387   0.0000      18.299880       497.9651 
 388   0.0000      18.374658       499.9999 
 389   0.0000      18.498200       503.3616 
 390   0.0000      18.546038       504.6634 
 391   0.0000      18.627072       506.8684 
 392   0.0000      18.644276       507.3366 
 393   0.0000      19.182335       521.9779 
 394   0.0000      19.360971       526.8388 
 395   0.0000      22.873411       622.4171 
 396   0.0000      22.930264       623.9642 
 397   0.0000      22.933176       624.0434 
 398   0.0000      22.979368       625.3004 
 399   0.0000      23.255941       632.8263 
 400   0.0000      23.269980       633.2084 
 401   0.0000      23.313151       634.3831 
 402   0.0000      23.463181       638.4656 
 403   0.0000      24.271386       660.4580 
 404   0.0000      24.418997       664.4747 
 405   0.0000      29.754075       809.6495 
 406   0.0000      29.867969       812.7488 
 407   0.0000      31.792497       865.1178 
 408   0.0000      31.865007       867.0909 
 409   0.0000      31.882048       867.5546 
 410   0.0000      31.944511       869.2543 
 411   0.0000      32.871053       894.4668 
 412   0.0000      33.264858       905.1828 
 413   0.0000      35.093436       954.9409 
 414   0.0000      62.367893      1697.1167 
 415   0.0000      62.441963      1699.1322 
 416   0.0000      62.512364      1701.0479 
 417   0.0000      63.173089      1719.0271 
 418   0.0000      63.315670      1722.9070 
 419   0.0000      66.477260      1808.9382 
 420   0.0000      66.516661      1810.0104 
 421   0.0000      66.519458      1810.0865 
 422   0.0000      66.547112      1810.8390 
 423   0.0000      66.731411      1815.8540 
 424   0.0000      66.743340      1816.1786 
 425   0.0000      66.765109      1816.7710 
 426   0.0000      66.894137      1820.2820 
 427   0.0000      67.512006      1837.0951 
 428   0.0000      67.544091      1837.9682 
 429   0.0000     142.582948      3879.8793 
 430   0.0000     142.796109      3885.6797 

                    ********************************
                    * MULLIKEN POPULATION ANALYSIS *
                    ********************************

--------------------------------------------
MULLIKEN ATOMIC CHARGES AND SPIN POPULATIONS
--------------------------------------------
   0 S :    0.215769    0.000000
   1 O :   -0.107883   -0.000000
   2 O :   -0.107886    0.000000
Sum of atomic charges         :    0.0000000
Sum of atomic spin populations:    0.0000000

-----------------------------------------------------
MULLIKEN REDUCED ORBITAL CHARGES AND SPIN POPULATIONS
-----------------------------------------------------
CHARGE
  0 S s       :     5.940636  s :     5.940636
      pz      :     3.160460  p :     8.969813
      px      :     2.933782
      py      :     2.875571
      dz2     :     0.128573  d :     0.778624
      dxz     :     0.022849
      dyz     :     0.226119
      dx2y2   :     0.210503
      dxy     :     0.190581
      f0      :     0.007301  f :     0.078151
      f+1     :     0.000003
      f-1     :     0.030671
      f+2     :     0.011977
      f-2     :     0.015891
      f+3     :     0.005575
      f-3     :     0.006733
      g0      :     0.001616  g :     0.014870
      g+1     :     0.000113
      g-1     :     0.001906
      g+2     :     0.003017
      g-2     :     0.000250
      g+3     :     0.001991
      g-3     :     0.001786
      g+4     :     0.001629
      g-4     :     0.002561
      h0      :     0.000327  h :     0.002137
      h+1     :     0.000023
      h-1     :     0.000300
      h+2     :     0.000554
      h-2     :     0.000013
      h+3     :     0.000125
      h-3     :     0.000227
      h+4     :     0.000278
      h-4     :     0.000321
      h+5     :     0.000038
      h-5     :    -0.000069
  1 O s       :     3.790348  s :     3.790348
      pz      :     1.573953  p :     4.289569
      px      :     1.395112
      py      :     1.320503
      dz2     :     0.007410  d :     0.032975
      dxz     :     0.004796
      dyz     :     0.002350
      dx2y2   :     0.006837
      dxy     :     0.011582
      f0      :    -0.001428  f :    -0.002692
      f+1     :    -0.000160
      f-1     :    -0.000322
      f+2     :    -0.002145
      f-2     :     0.000728
      f+3     :     0.000907
      f-3     :    -0.000272
      g0      :    -0.000136  g :    -0.001898
      g+1     :    -0.000006
      g-1     :    -0.000692
      g+2     :    -0.000371
      g-2     :     0.000121
      g+3     :     0.000126
      g-3     :    -0.000553
      g+4     :    -0.000175
      g-4     :    -0.000213
      h0      :    -0.000038  h :    -0.000418
      h+1     :     0.000011
      h-1     :    -0.000013
      h+2     :    -0.000130
      h-2     :     0.000008
      h+3     :     0.000044
      h-3     :    -0.000035
      h+4     :    -0.000125
      h-4     :     0.000050
      h+5     :    -0.000163
      h-5     :    -0.000028
  2 O s       :     3.790353  s :     3.790353
      pz      :     1.573953  p :     4.289566
      px      :     1.395113
      py      :     1.320500
      dz2     :     0.007410  d :     0.032975
      dxz     :     0.004796
      dyz     :     0.002350
      dx2y2   :     0.006837
      dxy     :     0.011582
      f0      :    -0.001428  f :    -0.002692
      f+1     :    -0.000160
      f-1     :    -0.000322
      f+2     :    -0.002145
      f-2     :     0.000728
      f+3     :     0.000907
      f-3     :    -0.000272
      g0      :    -0.000135  g :    -0.001898
      g+1     :    -0.000006
      g-1     :    -0.000692
      g+2     :    -0.000371
      g-2     :     0.000121
      g+3     :     0.000126
      g-3     :    -0.000553
      g+4     :    -0.000175
      g-4     :    -0.000213
      h0      :    -0.000038  h :    -0.000418
      h+1     :     0.000011
      h-1     :    -0.000013
      h+2     :    -0.000130
      h-2     :     0.000008
      h+3     :     0.000044
      h-3     :    -0.000035
      h+4     :    -0.000125
      h-4     :     0.000050
      h+5     :    -0.000163
      h-5     :    -0.000028

SPIN
  0 S s       :    -0.000000  s :    -0.000000
      pz      :    -0.000000  p :     0.000000
      px      :     0.000000
      py      :     0.000000
      dz2     :     0.000000  d :     0.000000
      dxz     :     0.000000
      dyz     :     0.000000
      dx2y2   :    -0.000000
      dxy     :     0.000000
      f0      :    -0.000000  f :    -0.000000
      f+1     :    -0.000000
      f-1     :    -0.000000
      f+2     :    -0.000000
      f-2     :    -0.000000
      f+3     :    -0.000000
      f-3     :     0.000000
      g0      :    -0.000000  g :     0.000000
      g+1     :     0.000000
      g-1     :     0.000000
      g+2     :    -0.000000
      g-2     :    -0.000000
      g+3     :     0.000000
      g-3     :     0.000000
      g+4     :    -0.000000
      g-4     :    -0.000000
      h0      :     0.000000  h :     0.000000
      h+1     :     0.000000
      h-1     :     0.000000
      h+2     :     0.000000
      h-2     :     0.000000
      h+3     :     0.000000
      h-3     :     0.000000
      h+4     :    -0.000000
      h-4     :     0.000000
      h+5     :     0.000000
      h-5     :     0.000000
  1 O s       :    -0.000000  s :    -0.000000
      pz      :    -0.000000  p :    -0.000000
      px      :    -0.000000
      py      :    -0.000000
      dz2     :     0.000000  d :     0.000000
      dxz     :    -0.000000
      dyz     :    -0.000000
      dx2y2   :     0.000000
      dxy     :    -0.000000
      f0      :    -0.000000  f :     0.000000
      f+1     :    -0.000000
      f-1     :     0.000000
      f+2     :     0.000000
      f-2     :    -0.000000
      f+3     :    -0.000000
      f-3     :     0.000000
      g0      :     0.000000  g :     0.000000
      g+1     :    -0.000000
      g-1     :    -0.000000
      g+2     :     0.000000
      g-2     :    -0.000000
      g+3     :    -0.000000
      g-3     :    -0.000000
      g+4     :    -0.000000
      g-4     :    -0.000000
      h0      :    -0.000000  h :    -0.000000
      h+1     :    -0.000000
      h-1     :    -0.000000
      h+2     :     0.000000
      h-2     :    -0.000000
      h+3     :    -0.000000
      h-3     :     0.000000
      h+4     :     0.000000
      h-4     :    -0.000000
      h+5     :    -0.000000
      h-5     :    -0.000000
  2 O s       :     0.000000  s :     0.000000
      pz      :     0.000000  p :     0.000000
      px      :     0.000000
      py      :    -0.000000
      dz2     :     0.000000  d :     0.000000
      dxz     :    -0.000000
      dyz     :    -0.000000
      dx2y2   :     0.000000
      dxy     :     0.000000
      f0      :    -0.000000  f :     0.000000
      f+1     :     0.000000
      f-1     :     0.000000
      f+2     :    -0.000000
      f-2     :     0.000000
      f+3     :     0.000000
      f-3     :     0.000000
      g0      :     0.000000  g :     0.000000
      g+1     :     0.000000
      g-1     :     0.000000
      g+2     :     0.000000
      g-2     :    -0.000000
      g+3     :     0.000000
      g-3     :     0.000000
      g+4     :     0.000000
      g-4     :     0.000000
      h0      :     0.000000  h :     0.000000
      h+1     :    -0.000000
      h-1     :     0.000000
      h+2     :     0.000000
      h-2     :    -0.000000
      h+3     :     0.000000
      h-3     :     0.000000
      h+4     :     0.000000
      h-4     :     0.000000
      h+5     :     0.000000
      h-5     :     0.000000


                     *******************************
                     * LOEWDIN POPULATION ANALYSIS *
                     *******************************

-------------------------------------------
LOEWDIN ATOMIC CHARGES AND SPIN POPULATIONS
-------------------------------------------
   0 S :    0.985694    0.000000
   1 O :   -0.492847   -0.000000
   2 O :   -0.492847   -0.000000

----------------------------------------------------
LOEWDIN REDUCED ORBITAL CHARGES AND SPIN POPULATIONS
----------------------------------------------------
CHARGE
  0 S s       :     4.853396  s :     4.853396
      pz      :     2.864655  p :     8.254591
      px      :     2.632995
      py      :     2.756941
      dz2     :     0.197012  d :     1.279316
      dxz     :     0.028208
      dyz     :     0.408960
      dx2y2   :     0.363325
      dxy     :     0.281811
      f0      :     0.040689  f :     0.418857
      f+1     :     0.000084
      f-1     :     0.137326
      f+2     :     0.089488
      f-2     :     0.070799
      f+3     :     0.023517
      f-3     :     0.056953
      g0      :     0.013787  g :     0.154330
      g+1     :     0.000710
      g-1     :     0.025874
      g+2     :     0.028188
      g-2     :     0.003636
      g+3     :     0.013883
      g-3     :     0.026402
      g+4     :     0.017327
      g-4     :     0.024523
      h0      :     0.004398  h :     0.053815
      h+1     :     0.000254
      h-1     :     0.005267
      h+2     :     0.007743
      h-2     :     0.000328
      h+3     :     0.001508
      h-3     :     0.007798
      h+4     :     0.008324
      h-4     :     0.011108
      h+5     :     0.003298
      h-5     :     0.003790
  1 O s       :     3.352518  s :     3.352518
      pz      :     1.483838  p :     4.253026
      px      :     1.223131
      py      :     1.546057
      dz2     :     0.047474  d :     0.365166
      dxz     :     0.015275
      dyz     :     0.140116
      dx2y2   :     0.088901
      dxy     :     0.073400
      f0      :     0.021640  f :     0.239141
      f+1     :     0.001438
      f-1     :     0.060284
      f+2     :     0.050648
      f-2     :     0.014383
      f+3     :     0.049217
      f-3     :     0.041531
      g0      :     0.015856  g :     0.166407
      g+1     :     0.000594
      g-1     :     0.027669
      g+2     :     0.030344
      g-2     :     0.002509
      g+3     :     0.007172
      g-3     :     0.022100
      g+4     :     0.025977
      g-4     :     0.034186
      h0      :     0.010380  h :     0.116588
      h+1     :     0.000194
      h-1     :     0.012171
      h+2     :     0.019586
      h-2     :     0.000298
      h+3     :     0.002954
      h-3     :     0.014307
      h+4     :     0.013631
      h-4     :     0.003719
      h+5     :     0.023199
      h-5     :     0.016149
  2 O s       :     3.352518  s :     3.352518
      pz      :     1.483838  p :     4.253026
      px      :     1.223131
      py      :     1.546057
      dz2     :     0.047474  d :     0.365166
      dxz     :     0.015275
      dyz     :     0.140116
      dx2y2   :     0.088901
      dxy     :     0.073400
      f0      :     0.021640  f :     0.239141
      f+1     :     0.001438
      f-1     :     0.060284
      f+2     :     0.050648
      f-2     :     0.014383
      f+3     :     0.049217
      f-3     :     0.041531
      g0      :     0.015856  g :     0.166407
      g+1     :     0.000594
      g-1     :     0.027669
      g+2     :     0.030344
      g-2     :     0.002509
      g+3     :     0.007172
      g-3     :     0.022100
      g+4     :     0.025977
      g-4     :     0.034186
      h0      :     0.010380  h :     0.116588
      h+1     :     0.000194
      h-1     :     0.012171
      h+2     :     0.019586
      h-2     :     0.000298
      h+3     :     0.002954
      h-3     :     0.014307
      h+4     :     0.013631
      h-4     :     0.003719
      h+5     :     0.023199
      h-5     :     0.016149

SPIN
  0 S s       :    -0.000000  s :    -0.000000
      pz      :    -0.000000  p :     0.000000
      px      :     0.000000
      py      :     0.000000
      dz2     :    -0.000000  d :     0.000000
      dxz     :     0.000000
      dyz     :     0.000000
      dx2y2   :     0.000000
      dxy     :     0.000000
      f0      :    -0.000000  f :    -0.000000
      f+1     :    -0.000000
      f-1     :    -0.000000
      f+2     :     0.000000
      f-2     :     0.000000
      f+3     :     0.000000
      f-3     :     0.000000
      g0      :    -0.000000  g :    -0.000000
      g+1     :    -0.000000
      g-1     :    -0.000000
      g+2     :    -0.000000
      g-2     :     0.000000
      g+3     :    -0.000000
      g-3     :    -0.000000
      g+4     :     0.000000
      g-4     :    -0.000000
      h0      :    -0.000000  h :    -0.000000
      h+1     :    -0.000000
      h-1     :    -0.000000
      h+2     :     0.000000
      h-2     :    -0.000000
      h+3     :    -0.000000
      h-3     :    -0.000000
      h+4     :    -0.000000
      h-4     :    -0.000000
      h+5     :    -0.000000
      h-5     :    -0.000000
  1 O s       :    -0.000000  s :    -0.000000
      pz      :     0.000000  p :    -0.000000
      px      :    -0.000000
      py      :    -0.000000
      dz2     :     0.000000  d :    -0.000000
      dxz     :     0.000000
      dyz     :    -0.000000
      dx2y2   :    -0.000000
      dxy     :    -0.000000
      f0      :     0.000000  f :     0.000000
      f+1     :     0.000000
      f-1     :    -0.000000
      f+2     :     0.000000
      f-2     :    -0.000000
      f+3     :     0.000000
      f-3     :     0.000000
      g0      :    -0.000000  g :    -0.000000
      g+1     :     0.000000
      g-1     :    -0.000000
      g+2     :     0.000000
      g-2     :    -0.000000
      g+3     :    -0.000000
      g-3     :    -0.000000
      g+4     :     0.000000
      g-4     :     0.000000
      h0      :    -0.000000  h :     0.000000
      h+1     :    -0.000000
      h-1     :     0.000000
      h+2     :     0.000000
      h-2     :    -0.000000
      h+3     :    -0.000000
      h-3     :    -0.000000
      h+4     :     0.000000
      h-4     :    -0.000000
      h+5     :    -0.000000
      h-5     :     0.000000
  2 O s       :     0.000000  s :     0.000000
      pz      :    -0.000000  p :    -0.000000
      px      :    -0.000000
      py      :    -0.000000
      dz2     :     0.000000  d :     0.000000
      dxz     :     0.000000
      dyz     :     0.000000
      dx2y2   :    -0.000000
      dxy     :     0.000000
      f0      :     0.000000  f :     0.000000
      f+1     :     0.000000
      f-1     :    -0.000000
      f+2     :     0.000000
      f-2     :    -0.000000
      f+3     :    -0.000000
      f-3     :     0.000000
      g0      :    -0.000000  g :    -0.000000
      g+1     :    -0.000000
      g-1     :    -0.000000
      g+2     :     0.000000
      g-2     :    -0.000000
      g+3     :    -0.000000
      g-3     :    -0.000000
      g+4     :    -0.000000
      g-4     :    -0.000000
      h0      :    -0.000000  h :     0.000000
      h+1     :     0.000000
      h-1     :    -0.000000
      h+2     :    -0.000000
      h-2     :     0.000000
      h+3     :    -0.000000
      h-3     :    -0.000000
      h+4     :     0.000000
      h-4     :    -0.000000
      h+5     :     0.000000
      h-5     :     0.000000


                      *****************************
                      * MAYER POPULATION ANALYSIS *
                      *****************************

  NA   - Mulliken gross atomic population
  ZA   - Total nuclear charge
  QA   - Mulliken gross atomic charge
  VA   - Mayer's total valence
  BVA  - Mayer's bonded valence
  FA   - Mayer's free valence

  ATOM       NA         ZA         QA         VA         BVA        FA
  0 S     15.7842    16.0000     0.2158     4.0036     4.0036     0.0000
  1 O      8.1079     8.0000    -0.1079     2.1987     2.1987    -0.0000
  2 O      8.1079     8.0000    -0.1079     2.1987     2.1987     0.0000

  Mayer bond orders larger than 0.1
B(  0-S ,  1-O ) :   2.0018 B(  0-S ,  2-O ) :   2.0018 B(  1-O ,  2-O ) :   0.1969 


-------
TIMINGS
-------

Total SCF time: 0 days 0 hours 28 min 59 sec 

Total time                  ....    1739.286 sec
Sum of individual times     ....    1737.566 sec  ( 99.9%)

Fock matrix formation       ....    1732.761 sec  ( 99.6%)
  XC integration            ....      19.246 sec  (  1.1% of F)
    Basis function eval.    ....       1.294 sec  (  6.7% of XC)
    Density eval.           ....       4.225 sec  ( 22.0% of XC)
    XC-Functional eval.     ....       0.211 sec  (  1.1% of XC)
    XC-Potential eval.      ....      12.890 sec  ( 67.0% of XC)
Diagonalization             ....       2.106 sec  (  0.1%)
Density matrix formation    ....       0.034 sec  (  0.0%)
Population analysis         ....       0.147 sec  (  0.0%)
Initial guess               ....       0.906 sec  (  0.1%)
Orbital Transformation      ....       0.000 sec  (  0.0%)
Orbital Orthonormalization  ....       0.000 sec  (  0.0%)
DIIS solution               ....       1.163 sec  (  0.1%)
Grid generation             ....       0.448 sec  (  0.0%)

-------------------------   --------------------
FINAL SINGLE POINT ENERGY      -548.431370004861
-------------------------   --------------------


                            ***************************************
                            *     ORCA property calculations      *
                            ***************************************

                                    ---------------------
                                    Active property flags
                                    ---------------------
   (+) Dipole Moment
   (+) Polarizability


------------------------------------------------------------------------------
                       ORCA ELECTRIC PROPERTIES CALCULATION
------------------------------------------------------------------------------

Dipole Moment Calculation                       ... on
Quadrupole Moment Calculation                   ... off
Polarizability Calculation                      ... Analytic (CP-SCF)
GBWName                                         ... so2_pbe.gbw
Electron density file                           ... so2_pbe.scfp.tmp
The origin for moment calculation is the CENTER OF MASS  = ( 0.000000,  0.000000  0.681059)

-------------
DIPOLE MOMENT
-------------
                                X             Y             Z
Electronic contribution:      0.00000       0.00000      -0.60539
Nuclear contribution   :      0.00000       0.00000       0.02111
                        -----------------------------------------
Total Dipole Moment    :      0.00000       0.00000      -0.58428
                        -----------------------------------------
Magnitude (a.u.)       :      0.58428
Magnitude (Debye)      :      1.48511



--------------------
Rotational spectrum 
--------------------
 
Rotational constants in cm-1:     2.022140     0.344242     0.294165 
Rotational constants in MHz : 60622.236728 10320.129716  8818.839547 

 Dipole components along the rotational axes: 
x,y,z [a.u.] :     0.000000    -0.584275     0.000000 
x,y,z [Debye]:     0.000000    -1.485110     0.000000 

 
Transforming and storing MO dipole integrals   ... done

                ... starting polarizability calculation

Opening the Dipole integral file               ... (so2_pbe.dmo.tmp) done
Reading Dipole-MO integrals                    ... done
Solving CP-SCF equations                       ... 

           ************************************************************
           *        Program running with 4 parallel MPI-processes     *
           *              working on a common directory               *
           ************************************************************

------------------------------------------------------------------------------
                           ORCA CP-SCF CALCULATION
------------------------------------------------------------------------------

Input orbitals are from        ... so2_pbe.gbw
Input Perturbation             ... so2_pbe.cpv.tmp
Wavefunction output            ... so2_pbe.cpu.tmp
Perturbation mode              ... Real perturbation (singlet)
Solver                         ... POPLE
Max. number of iterations      ... 200
Convergence tolerance          ... 1.000e-06
Integral handling              ... Direct
Number of perturbations        ... 3
Number of operators            ... 2
Orbital ranges used for CP-SCF:
 Operator 0:  Orbitals   0... 15  to  16...430
 Operator 1:  Orbitals   0... 15  to  16...430
DFT calculation                         ... on
Exchange functional (SCF)               ... PBE
Exchange functional (CP-SCF)            ... PBE
   PBE kappa parameter  XKappa (SCF)    ...  0.804000
   PBE kappa parameter  XKappa (CP-SCF) ...  0.804000
   PBE mue parameter   XMuePBE (SCF)    ...  0.219520
   PBE mue parameter   XMuePBE (CP-SCF) ...  0.219520
Correlation functional (SCF)            ... PBE
Correlation functional (CP-SCF)         ... PBE
   PBE beta parameter CBetaPBE (SCF)    ...  0.066725
   PBE beta parameter CBetaPBE (CP-SCF) ...  0.066725
 LDA part of GGA corr.  LDAOpt (SCF)    ... PW91-LDA
 LDA part of GGA corr.  LDAOpt (CP-SCF) ... PW91-LDA
Variables per vector in CP-SCF ... 13280
Number of vectors sought       ... 3
Recalculating density on grid  ... done
Calculating the xc-kernel      ... done
     CP-SCF ITERATION   0: 
     CP-SCF ITERATION   1:      0.479389085064
     CP-SCF ITERATION   2:      0.010223205322
     CP-SCF ITERATION   3:      0.000279133446
     CP-SCF ITERATION   4:      0.000005869638
     CP-SCF ITERATION   5:      0.000000088170
done
Reading CP-SCF coefficients                    ... done
Doing the polarizability tensor   ... done
Cleaning up                                    ... done

-------------------------
THE POLARIZABILITY TENSOR
-------------------------

The raw cartesian tensor (atomic units):
   20.33639     -0.00000     -0.00000  
   -0.00000     34.50994     -0.00000  
   -0.00000     -0.00000     24.10816  
diagonalized tensor: 
   20.33639     24.10816     34.50994  

    1.00000      0.00000     -0.00000  
    0.00000     -0.00000      1.00000  
    0.00000     -1.00000     -0.00000  

Isotropic polarizability :  26.31817


Timings for individual modules:

Sum of individual times         ...     2700.904 sec (=  45.015 min)
GTO integral calculation        ...        2.891 sec (=   0.048 min)   0.1 %
SCF iterations                  ...     1739.583 sec (=  28.993 min)  64.4 %
Solution of CP-SCF eqns.        ...      958.429 sec (=  15.974 min)  35.5 %
                             ****ORCA TERMINATED NORMALLY****
TOTAL RUN TIME: 0 days 0 hours 45 minutes 1 seconds 842 msec
