
                                 *****************
                                 * O   R   C   A *
                                 *****************

           --- An Ab Initio, DFT and Semiempirical electronic structure package ---

                  #######################################################
                  #                        -***-                        #
                  #          Department of theory and spectroscopy      #
                  #               Directorship: Frank Neese             #
                  #        Max Planck Institute fuer Kohlenforschung    #
                  #                Kaiser Wilhelm Platz 1               #
                  #                 D-45470 Muelheim/Ruhr               #
                  #                      Germany                        #
                  #                                                     #
                  #                  All rights reserved                #
                  #                        -***-                        #
                  #######################################################


                         Program Version 4.1.1  - RELEASE  -


 With contributions from (in alphabetic order):
   Daniel Aravena         : Magnetic Properties
   Michael Atanasov       : Ab Initio Ligand Field Theory
   Alexander A. Auer      : GIAO ZORA
   Ute Becker             : Parallelization
   Giovanni Bistoni       : ED, Open-shell LED
   Martin Brehm           : Molecular dynamics
   Dmytro Bykov           : SCF Hessian
   Vijay G. Chilkuri      : MRCI spin determinant printing
   Dipayan Datta          : RHF DLPNO-CCSD density
   Achintya Kumar Dutta   : EOM-CC, STEOM-CC
   Dmitry Ganyushin       : Spin-Orbit,Spin-Spin,Magnetic field MRCI
   Miquel Garcia          : C-PCM Hessian
   Yang Guo               : DLPNO-NEVPT2, CIM, IAO-localization
   Andreas Hansen         : Spin unrestricted coupled pair/coupled cluster methods
   Benjamin Helmich-Paris : CASSCF linear response (MC-RPA)
   Lee Huntington         : MR-EOM, pCC
   Robert Izsak           : Overlap fitted RIJCOSX, COSX-SCS-MP3, EOM
   Christian Kollmar      : KDIIS, OOCD, Brueckner-CCSD(T), CCSD density
   Simone Kossmann        : Meta GGA functionals, TD-DFT gradient, OOMP2, MP2 Hessian
   Martin Krupicka        : AUTO-CI
   Lucas Lang             : DCDCAS
   Dagmar Lenk            : GEPOL surface, SMD
   Dimitrios Liakos       : Extrapolation schemes; parallel MDCI
   Dimitrios Manganas     : ROCIS; embedding schemes
   Dimitrios Pantazis     : SARC Basis sets
   Taras Petrenko         : DFT Hessian,TD-DFT gradient, ASA, ECA, R-Raman, ABS, FL, XAS/XES, NRVS
   Peter Pinski           : DLPNO-MP2, DLPNO-MP2 Gradient
   Christoph Reimann      : Effective Core Potentials
   Marius Retegan         : Local ZFS, SOC
   Christoph Riplinger    : Optimizer, TS searches, QM/MM, DLPNO-CCSD(T), (RO)-DLPNO pert. Triples
   Tobias Risthaus        : Range-separated hybrids, TD-DFT gradient, RPA, STAB
   Michael Roemelt        : Restricted open shell CIS
   Masaaki Saitow         : Open-shell DLPNO
   Barbara Sandhoefer     : DKH picture change effects
   Avijit Sen             : IP-ROCIS
   Kantharuban Sivalingam : CASSCF convergence, NEVPT2, FIC-MRCI
   Bernardo de Souza      : ESD, SOC TD-DFT
   Georgi Stoychev        : AutoAux, RI-MP2 NMR
   Willem Van den Heuvel  : Paramagnetic NMR
   Boris Wezisla          : Elementary symmetry handling
   Frank Wennmohs         : Technical directorship


 We gratefully acknowledge several colleagues who have allowed us to
 interface, adapt or use parts of their codes:
   Stefan Grimme, W. Hujo, H. Kruse,             : VdW corrections, initial TS optimization,
                  C. Bannwarth                     DFT functionals, gCP, sTDA/sTD-DF
   Ed Valeev                                     : LibInt (2-el integral package), F12 methods
   Garnet Chan, S. Sharma, J. Yang, R. Olivares  : DMRG
   Ulf Ekstrom                                   : XCFun DFT Library
   Mihaly Kallay                                 : mrcc  (arbitrary order and MRCC methods)
   Andreas Klamt, Michael Diedenhofen            : otool_cosmo (COSMO solvation model)
   Jiri Pittner, Ondrej Demel                    : Mk-CCSD
   Frank Weinhold                                : gennbo (NPA and NBO analysis)
   Christopher J. Cramer and Donald G. Truhlar   : smd solvation model
   Lars Goerigk                                  : TD-DFT with DH, B97 family of functionals
   V. Asgeirsson, H. Jonsson                     : NEB implementation
   FAccTs GmbH                                   : IRC, NEB, NEB-TS, Multilevel


 Your calculation uses the libint2 library for the computation of 2-el integrals
 For citations please refer to: http://libint.valeyev.net

 This ORCA versions uses:
   CBLAS   interface :  Fast vector & matrix operations
   LAPACKE interface :  Fast linear algebra routines
   SCALAPACK package :  Parallel linear algebra routines


----- Orbital basis set information -----
Your calculation utilizes the basis: aug-pc-4
   H, C-F              : F. Jensen, J. Chem. Phys. 115, 9113 (2001).
                         F. Jensen, J. Chem. Phys. 116, 7372 (2002).
                         F. Jensen, J. Chem. Phys. 117, 9234 (2002).
   Si-Cl               : F. Jensen, T. Helgaker, J. Chem. Phys. 121, 3463 (2004).
   He-B, Ne-Mg, Al, Ar : F. Jensen, J. Phys. Chem. A 111, 11198 (2007).
   K, Ca, Ga-Kr        : F. Jensen, J. Chem. Phys. 136, 094110 (2012).
   Sc-Zn               : F. Jensen, J. Chem. Phys. 138, 014107 (2013).

================================================================================
                                        WARNINGS
                       Please study these warnings very carefully!
================================================================================


INFO   : the flag for use of LIBINT has been found!

================================================================================
                                       INPUT FILE
================================================================================
NAME = bn_pbe_+001_z.inp
|  1> ! uks pbe nori aug-pc-4 grid5 nofinalgrid verytightscf
|  2> 
|  3> %maxcore 1500
|  4> 
|  5> %pal nprocs 4 end
|  6> %scf
|  7>     efield 0.0, 0.0, 0.01
|  8>     maxiter 300
|  9> end
| 10> * xyz 0 3
| 11> B      0.0000  0.0000  0.0000
| 12> N      0.0000  0.0000  1.3250
| 13> *
| 14> 
| 15>                          ****END OF INPUT****
================================================================================

                       ****************************
                       * Single Point Calculation *
                       ****************************

---------------------------------
CARTESIAN COORDINATES (ANGSTROEM)
---------------------------------
  B      0.000000    0.000000    0.000000
  N      0.000000    0.000000    1.325000

----------------------------
CARTESIAN COORDINATES (A.U.)
----------------------------
  NO LB      ZA    FRAG     MASS         X           Y           Z
   0 B     5.0000    0    10.810    0.000000    0.000000    0.000000
   1 N     7.0000    0    14.007    0.000000    0.000000    2.503887

--------------------------------
INTERNAL COORDINATES (ANGSTROEM)
--------------------------------
 B      0   0   0     0.000000000000     0.00000000     0.00000000
 N      1   0   0     1.325000000000     0.00000000     0.00000000

---------------------------
INTERNAL COORDINATES (A.U.)
---------------------------
 B      0   0   0     0.000000000000     0.00000000     0.00000000
 N      1   0   0     2.503887127446     0.00000000     0.00000000

---------------------
BASIS SET INFORMATION
---------------------
There are 2 groups of distinct atoms

 Group   1 Type B   : 27s12p7d4f3g2h contracted to 9s8p7d4f3g2h pattern {1191111111/51111111/1111111/1111/111/11}
 Group   2 Type N   : 27s12p7d4f3g2h contracted to 9s8p7d4f3g2h pattern {1191111111/51111111/1111111/1111/111/11}

Atom   0B    basis set group =>   1
Atom   1N    basis set group =>   2


           ************************************************************
           *        Program running with 4 parallel MPI-processes     *
           *              working on a common directory               *
           ************************************************************
------------------------------------------------------------------------------
                           ORCA GTO INTEGRAL CALCULATION
------------------------------------------------------------------------------

                         BASIS SET STATISTICS AND STARTUP INFO

 # of primitive gaussian shells          ...  110
 # of primitive gaussian functions       ...  350
 # of contracted shells                  ...   66
 # of contracted basis functions         ...  290
 Highest angular momentum                ...    5
 Maximum contraction depth               ...   11
 Integral package used                   ... LIBINT
 Integral threshhold            Thresh   ...  1.000e-12
 Primitive cut-off              TCut     ...  1.000e-14


------------------------------ INTEGRAL EVALUATION ----------------------------


 * One electron integrals 
 Pre-screening matrix                    ... done
 Shell pair data                         ... done (   0.001 sec)


An Electric Field will be added: 0.000e+00 0.000e+00 1.000e-02 au

  ... done adding electric field perturbation



           ************************************************************
           *        Program running with 4 parallel MPI-processes     *
           *              working on a common directory               *
           ************************************************************
-------------------------------------------------------------------------------
                                 ORCA SCF
-------------------------------------------------------------------------------

------------
SCF SETTINGS
------------
Hamiltonian:
 Density Functional     Method          .... DFT(GTOs)
 Exchange Functional    Exchange        .... PBE
   PBE kappa parameter   XKappa         ....  0.804000
   PBE mue parameter    XMuePBE         ....  0.219520
 Correlation Functional Correlation     .... PBE
   PBE beta parameter  CBetaPBE         ....  0.066725
 LDA part of GGA corr.  LDAOpt          .... PW91-LDA
 Gradients option       PostSCFGGA      .... off
   Density functional embedding theory  .... OFF
   NL short-range parameter             ....  6.400000


General Settings:
 Integral files         IntName         .... bn_pbe_+001_z
 Hartree-Fock type      HFTyp           .... UHF
 Total Charge           Charge          ....    0
 Multiplicity           Mult            ....    3
 Number of Electrons    NEL             ....   12
 Basis Dimension        Dim             ....  290
 Nuclear Repulsion      ENuc            ....     13.9782658796 Eh

Convergence Acceleration:
 DIIS                   CNVDIIS         .... on
   Start iteration      DIISMaxIt       ....    12
   Startup error        DIISStart       ....  0.200000
   # of expansion vecs  DIISMaxEq       ....     5
   Bias factor          DIISBfac        ....   1.050
   Max. coefficient     DIISMaxC        ....  10.000
 Newton-Raphson         CNVNR           .... off
 SOSCF                  CNVSOSCF        .... off
 Level Shifting         CNVShift        .... on
   Level shift para.    LevelShift      ....    0.2500
   Turn off err/grad.   ShiftErr        ....    0.0010
 Zerner damping         CNVZerner       .... off
 Static damping         CNVDamp         .... on
   Fraction old density DampFac         ....    0.7000
   Max. Damping (<1)    DampMax         ....    0.9800
   Min. Damping (>=0)   DampMin         ....    0.0000
   Turn off err/grad.   DampErr         ....    0.1000
 Fernandez-Rico         CNVRico         .... off

SCF Procedure:
 Maximum # iterations   MaxIter         ....   300
 SCF integral mode      SCFMode         .... Direct
   Integral package                     .... LIBINT
 Reset frequency        DirectResetFreq ....    20
 Integral Threshold     Thresh          ....  1.000e-12 Eh
 Primitive CutOff       TCut            ....  1.000e-14 Eh

Convergence Tolerance:
 Convergence Check Mode ConvCheckMode   .... Total+1el-Energy
 Convergence forced     ConvForced      .... 0
 Energy Change          TolE            ....  1.000e-09 Eh
 1-El. energy change                    ....  1.000e-06 Eh
 DIIS Error             TolErr          ....  1.000e-08


Diagonalization of the overlap matrix:
Smallest eigenvalue                        ... 1.822e-06
Time for diagonalization                   ...    0.019 sec
Threshold for overlap eigenvalues          ... 1.000e-08
Number of eigenvalues below threshold      ... 0
Time for construction of square roots      ...    0.013 sec
Total time needed                          ...    0.032 sec

-------------------
DFT GRID GENERATION
-------------------

General Integration Accuracy     IntAcc      ...  5.010
Radial Grid Type                 RadialGrid  ... Gauss-Chebyshev
Angular Grid (max. acc.)         AngularGrid ... Lebedev-434
Angular grid pruning method      GridPruning ... 3 (G Style)
Weight generation scheme         WeightScheme... Becke
Basis function cutoff            BFCut       ...    1.0000e-12
Integration weight cutoff        WCut        ...    1.0000e-14
Grids for H and He will be reduced by one unit

# of grid points (after initial pruning)     ...  21180 (   0.0 sec)
# of grid points (after weights+screening)   ...  21087 (   0.0 sec)
nearest neighbour list constructed           ...    0.0 sec
Grid point re-assignment to atoms done       ...    0.0 sec
Grid point division into batches done        ...    0.2 sec
Reduced shell lists constructed in    0.2 sec

Total number of grid points                  ...    21087
Total number of batches                      ...      330
Average number of points per batch           ...       63
Average number of grid points per atom       ...    10544
Average number of shells per batch           ...    38.64 (58.55%)
Average number of basis functions per batch  ...   176.76 (60.95%)
Average number of large shells per batch     ...    32.98 (85.34%)
Average number of large basis fcns per batch ...   151.05 (85.45%)
Maximum spatial batch extension              ...  23.53, 23.53, 21.88 au
Average spatial batch extension              ...   1.87,  1.89,  1.61 au

Time for grid setup =    0.252 sec

------------------------------
INITIAL GUESS: MODEL POTENTIAL
------------------------------
Loading Hartree-Fock densities                     ... done
Calculating cut-offs                               ... done
Setting up the integral package                    ... done
Initializing the effective Hamiltonian             ... done
Starting the Coulomb interaction                   ... done (   0.0 sec)
Reading the grid                                   ... done
Mapping shells                                     ... done
Starting the XC term evaluation                    ... done (   0.2 sec)
  promolecular density results
     # of electrons  =     11.999998350
     EX              =    -10.158820762
     EC              =     -0.344996361
     EX+EC           =    -10.503817123
Transforming the Hamiltonian                       ... done (   0.0 sec)
Diagonalizing the Hamiltonian                      ... done (   0.0 sec)
Back transforming the eigenvectors                 ... done (   0.0 sec)
Now organizing SCF variables                       ... done
                      ------------------
                      INITIAL GUESS DONE (   0.6 sec)
                      ------------------
--------------
SCF ITERATIONS
--------------
ITER       Energy         Delta-E        Max-DP      RMS-DP      [F,P]     Damp
               ***  Starting incremental Fock matrix formation  ***
  0    -79.2810051178   0.000000000000 0.02356154  0.00020163  0.2103161 0.7000
  1    -79.3141793054  -0.033174187571 0.01704162  0.00013492  0.0515250 0.7000
                               ***Turning on DIIS***
  2    -79.3174414769  -0.003262171559 0.03260212  0.00020404  0.0423904 0.0000
  3    -79.3360362446  -0.018594767668 0.01138951  0.00009215  0.0264747 0.0000
  4    -79.3361104730  -0.000074228460 0.00394944  0.00003359  0.0405861 0.0000
  5    -79.3373849505  -0.001274477428 0.00263880  0.00002716  0.0218067 0.0000
  6    -79.3377660665  -0.000381116003 0.00159501  0.00001506  0.0106782 0.0000
  7    -79.3378545157  -0.000088449262 0.00082452  0.00000759  0.0053083 0.0000
  8    -79.3378781062  -0.000023590507 0.00021802  0.00000229  0.0023082 0.0000
  9    -79.3378827634  -0.000004657187 0.00012643  0.00000174  0.0009155 0.0000
 10    -79.3378838189  -0.000001055421 0.00006105  0.00000046  0.0000640 0.0000
 11    -79.3378838392  -0.000000020341 0.00001376  0.00000017  0.0000370 0.0000
 12    -79.3378838456  -0.000000006428 0.00001009  0.00000009  0.0000066 0.0000
 13    -79.3378838469  -0.000000001296 0.00000432  0.00000005  0.0000045 0.0000
 14    -79.3378838473  -0.000000000340 0.00000113  0.00000001  0.0000013 0.0000
 15    -79.3378838473  -0.000000000017 0.00000275  0.00000002  0.0000010 0.0000
                 **** Energy Check signals convergence ****

               *****************************************************
               *                     SUCCESS                       *
               *           SCF CONVERGED AFTER  16 CYCLES          *
               *****************************************************


----------------
TOTAL SCF ENERGY
----------------

Total Energy       :          -79.33788385 Eh           -2158.89358 eV

Components:
Nuclear Repulsion  :           13.97826588 Eh             380.36795 eV
Electronic Energy  :          -93.31614973 Eh           -2539.26153 eV
One Electron Energy:         -134.26579748 Eh           -3653.55809 eV
Two Electron Energy:           40.94964775 Eh            1114.29657 eV

Virial components:
Potential Energy   :         -158.41695485 Eh           -4310.74450 eV
Kinetic Energy     :           79.07907100 Eh            2151.85092 eV
Virial Ratio       :            2.00327284


DFT components:
N(Alpha)           :        7.000000391557 electrons
N(Beta)            :        5.000000481507 electrons
N(Total)           :       12.000000873064 electrons
E(X)               :      -10.358780969096 Eh       
E(C)               :       -0.341702642215 Eh       
E(XC)              :      -10.700483611311 Eh       
DFET-embed. en.    :        0.000000000000 Eh       

---------------
SCF CONVERGENCE
---------------

  Last Energy change         ...   -8.8676e-12  Tolerance :   1.0000e-09
  Last MAX-Density change    ...    2.2965e-06  Tolerance :   1.0000e-08
  Last RMS-Density change    ...    1.6218e-08  Tolerance :   1.0000e-09
  Last DIIS Error            ...    1.0472e-07  Tolerance :   1.0000e-08

             **** THE GBW FILE WAS UPDATED (bn_pbe_+001_z.gbw) ****
             **** DENSITY FILE WAS UPDATED (bn_pbe_+001_z.scfp.tmp) ****
             **** ENERGY FILE WAS UPDATED (bn_pbe_+001_z.en.tmp) ****
----------------------
UHF SPIN CONTAMINATION
----------------------

Warning: in a DFT calculation there is little theoretical justification to 
         calculate <S**2> as in Hartree-Fock theory. We will do it anyways
         but you should keep in mind that the values have only limited relevance

Expectation value of <S**2>     :     2.003709
Ideal value S*(S+1) for S=1.0   :     2.000000
Deviation                       :     0.003709

----------------
ORBITAL ENERGIES
----------------
                 SPIN UP ORBITALS
  NO   OCC          E(Eh)            E(eV) 
   0   1.0000     -14.051940      -382.3727 
   1   1.0000      -6.609141      -179.8439 
   2   1.0000      -0.779210       -21.2034 
   3   1.0000      -0.370379       -10.0785 
   4   1.0000      -0.339420        -9.2361 
   5   1.0000      -0.295220        -8.0333 
   6   1.0000      -0.293234        -7.9793 
   7   0.0000      -0.093862        -2.5541 
   8   0.0000      -0.079554        -2.1648 
   9   0.0000      -0.071443        -1.9441 
  10   0.0000      -0.027790        -0.7562 
  11   0.0000      -0.027697        -0.7537 
  12   0.0000      -0.025455        -0.6927 
  13   0.0000      -0.000654        -0.0178 
  14   0.0000       0.021177         0.5763 
  15   0.0000       0.023650         0.6436 
  16   0.0000       0.030363         0.8262 
  17   0.0000       0.030412         0.8275 
  18   0.0000       0.049489         1.3467 
  19   0.0000       0.052547         1.4299 
  20   0.0000       0.053573         1.4578 
  21   0.0000       0.079996         2.1768 
  22   0.0000       0.102613         2.7922 
  23   0.0000       0.112217         3.0536 
  24   0.0000       0.112315         3.0563 
  25   0.0000       0.113708         3.0942 
  26   0.0000       0.115211         3.1350 
  27   0.0000       0.116614         3.1732 
  28   0.0000       0.124523         3.3884 
  29   0.0000       0.124523         3.3884 
  30   0.0000       0.149326         4.0634 
  31   0.0000       0.152701         4.1552 
  32   0.0000       0.152987         4.1630 
  33   0.0000       0.153078         4.1655 
  34   0.0000       0.159750         4.3470 
  35   0.0000       0.164687         4.4814 
  36   0.0000       0.171700         4.6722 
  37   0.0000       0.178802         4.8654 
  38   0.0000       0.181813         4.9474 
  39   0.0000       0.196771         5.3544 
  40   0.0000       0.215439         5.8624 
  41   0.0000       0.215835         5.8732 
  42   0.0000       0.215986         5.8773 
  43   0.0000       0.223909         6.0929 
  44   0.0000       0.223910         6.0929 
  45   0.0000       0.226687         6.1685 
  46   0.0000       0.226687         6.1685 
  47   0.0000       0.229368         6.2414 
  48   0.0000       0.241008         6.5582 
  49   0.0000       0.244831         6.6622 
  50   0.0000       0.286173         7.7872 
  51   0.0000       0.286434         7.7943 
  52   0.0000       0.314785         8.5657 
  53   0.0000       0.321064         8.7366 
  54   0.0000       0.322809         8.7841 
  55   0.0000       0.332803         9.0560 
  56   0.0000       0.336333         9.1521 
  57   0.0000       0.336416         9.1544 
  58   0.0000       0.338289         9.2053 
  59   0.0000       0.338372         9.2076 
  60   0.0000       0.340062         9.2536 
  61   0.0000       0.342156         9.3105 
  62   0.0000       0.344473         9.3736 
  63   0.0000       0.344473         9.3736 
  64   0.0000       0.350727         9.5438 
  65   0.0000       0.350727         9.5438 
  66   0.0000       0.352332         9.5874 
  67   0.0000       0.382325        10.4036 
  68   0.0000       0.387747        10.5511 
  69   0.0000       0.401597        10.9280 
  70   0.0000       0.402016        10.9394 
  71   0.0000       0.410236        11.1631 
  72   0.0000       0.415195        11.2980 
  73   0.0000       0.415199        11.2981 
  74   0.0000       0.443534        12.0692 
  75   0.0000       0.454108        12.3569 
  76   0.0000       0.473799        12.8927 
  77   0.0000       0.514270        13.9940 
  78   0.0000       0.524233        14.2651 
  79   0.0000       0.532661        14.4944 
  80   0.0000       0.554771        15.0961 
  81   0.0000       0.555954        15.1283 
  82   0.0000       0.561426        15.2772 
  83   0.0000       0.627209        17.0672 
  84   0.0000       0.627615        17.0783 
  85   0.0000       0.627945        17.0873 
  86   0.0000       0.634337        17.2612 
  87   0.0000       0.638504        17.3746 
  88   0.0000       0.639330        17.3971 
  89   0.0000       0.663581        18.0570 
  90   0.0000       0.666759        18.1434 
  91   0.0000       0.666764        18.1436 
  92   0.0000       0.706924        19.2364 
  93   0.0000       0.715816        19.4783 
  94   0.0000       0.728934        19.8353 
  95   0.0000       0.738145        20.0860 
  96   0.0000       0.741749        20.1840 
  97   0.0000       0.741987        20.1905 
  98   0.0000       0.746122        20.3030 
  99   0.0000       0.812424        22.1072 
 100   0.0000       0.812426        22.1072 
 101   0.0000       0.817089        22.2341 
 102   0.0000       0.838529        22.8175 
 103   0.0000       0.838531        22.8176 
 104   0.0000       0.882812        24.0225 
 105   0.0000       0.882813        24.0226 
 106   0.0000       0.894290        24.3349 
 107   0.0000       0.894354        24.3366 
 108   0.0000       0.904839        24.6219 
 109   0.0000       0.919753        25.0278 
 110   0.0000       0.936956        25.4959 
 111   0.0000       0.992202        26.9992 
 112   0.0000       1.000864        27.2349 
 113   0.0000       1.004715        27.3397 
 114   0.0000       1.047346        28.4997 
 115   0.0000       1.170778        31.8585 
 116   0.0000       1.174488        31.9594 
 117   0.0000       1.195713        32.5370 
 118   0.0000       1.198018        32.5997 
 119   0.0000       1.213268        33.0147 
 120   0.0000       1.331793        36.2399 
 121   0.0000       1.331866        36.2419 
 122   0.0000       1.384708        37.6798 
 123   0.0000       1.384793        37.6821 
 124   0.0000       1.428776        38.8790 
 125   0.0000       1.453949        39.5640 
 126   0.0000       1.461958        39.7819 
 127   0.0000       1.462287        39.7909 
 128   0.0000       1.470655        40.0186 
 129   0.0000       1.489948        40.5436 
 130   0.0000       1.510747        41.1095 
 131   0.0000       1.585463        43.1426 
 132   0.0000       1.699417        46.2435 
 133   0.0000       1.710358        46.5412 
 134   0.0000       1.715254        46.6744 
 135   0.0000       1.732711        47.1495 
 136   0.0000       1.733580        47.1731 
 137   0.0000       1.919749        52.2390 
 138   0.0000       1.942749        52.8649 
 139   0.0000       1.957762        53.2734 
 140   0.0000       1.985170        54.0192 
 141   0.0000       2.079387        56.5830 
 142   0.0000       2.081137        56.6306 
 143   0.0000       2.456906        66.8558 
 144   0.0000       2.478150        67.4339 
 145   0.0000       2.557168        69.5841 
 146   0.0000       2.812906        76.5431 
 147   0.0000       2.835773        77.1653 
 148   0.0000       2.845267        77.4237 
 149   0.0000       2.849081        77.5274 
 150   0.0000       2.849454        77.5376 
 151   0.0000       2.974289        80.9345 
 152   0.0000       2.991362        81.3991 
 153   0.0000       2.992196        81.4218 
 154   0.0000       3.109952        84.6261 
 155   0.0000       3.109966        84.6265 
 156   0.0000       3.151024        85.7437 
 157   0.0000       3.151066        85.7449 
 158   0.0000       3.169549        86.2478 
 159   0.0000       3.195788        86.9618 
 160   0.0000       3.312261        90.1312 
 161   0.0000       3.489659        94.9584 
 162   0.0000       3.489836        94.9633 
 163   0.0000       3.553391        96.6927 
 164   0.0000       3.566926        97.0610 
 165   0.0000       3.574844        97.2764 
 166   0.0000       3.583719        97.5180 
 167   0.0000       3.586954        97.6060 
 168   0.0000       3.725326       101.3713 
 169   0.0000       3.725471       101.3752 
 170   0.0000       3.740616       101.7873 
 171   0.0000       3.765554       102.4659 
 172   0.0000       3.859491       105.0221 
 173   0.0000       3.874120       105.4202 
 174   0.0000       3.900127       106.1278 
 175   0.0000       3.960986       107.7839 
 176   0.0000       4.444059       120.9290 
 177   0.0000       4.444935       120.9528 
 178   0.0000       4.482135       121.9651 
 179   0.0000       4.509646       122.7137 
 180   0.0000       4.563467       124.1783 
 181   0.0000       4.801823       130.6642 
 182   0.0000       4.804226       130.7296 
 183   0.0000       4.910606       133.6244 
 184   0.0000       4.952466       134.7635 
 185   0.0000       4.952489       134.7641 
 186   0.0000       5.272053       143.4599 
 187   0.0000       5.272083       143.4607 
 188   0.0000       5.475489       148.9956 
 189   0.0000       5.506604       149.8423 
 190   0.0000       6.097108       165.9107 
 191   0.0000       6.098942       165.9606 
 192   0.0000       6.217913       169.1980 
 193   0.0000       6.610611       179.8839 
 194   0.0000       6.648727       180.9210 
 195   0.0000       6.716174       182.7564 
 196   0.0000       6.775461       184.3697 
 197   0.0000       6.778935       184.4642 
 198   0.0000       6.942750       188.9218 
 199   0.0000       7.107953       193.4172 
 200   0.0000       7.132965       194.0978 
 201   0.0000       7.299106       198.6188 
 202   0.0000       7.299483       198.6290 
 203   0.0000       7.766578       211.3393 
 204   0.0000       7.857767       213.8207 
 205   0.0000       7.886544       214.6038 
 206   0.0000       7.922672       215.5869 
 207   0.0000       8.819961       240.0033 
 208   0.0000       9.041031       246.0190 
 209   0.0000       9.088768       247.3180 
 210   0.0000       9.095217       247.4934 
 211   0.0000       9.095596       247.5038 
 212   0.0000       9.172619       249.5997 
 213   0.0000       9.172644       249.6003 
 214   0.0000       9.193117       250.1574 
 215   0.0000       9.193118       250.1575 
 216   0.0000       9.285920       252.6827 
 217   0.0000       9.294731       252.9225 
 218   0.0000       9.295657       252.9477 
 219   0.0000       9.309350       253.3203 
 220   0.0000       9.423546       256.4277 
 221   0.0000       9.423581       256.4287 
 222   0.0000       9.662079       262.9185 
 223   0.0000      10.012875       272.4642 
 224   0.0000      10.012876       272.4642 
 225   0.0000      10.069471       274.0042 
 226   0.0000      10.089362       274.5455 
 227   0.0000      10.089365       274.5456 
 228   0.0000      10.089955       274.5616 
 229   0.0000      10.109897       275.1043 
 230   0.0000      10.150974       276.2220 
 231   0.0000      10.150975       276.2221 
 232   0.0000      10.523140       286.3492 
 233   0.0000      10.538583       286.7694 
 234   0.0000      10.696282       291.0606 
 235   0.0000      10.697277       291.0877 
 236   0.0000      10.817512       294.3595 
 237   0.0000      11.098881       302.0159 
 238   0.0000      11.098883       302.0160 
 239   0.0000      11.275640       306.8258 
 240   0.0000      11.279284       306.9249 
 241   0.0000      11.335623       308.4580 
 242   0.0000      11.335632       308.4582 
 243   0.0000      11.344501       308.6996 
 244   0.0000      11.403024       310.2920 
 245   0.0000      11.403034       310.2923 
 246   0.0000      11.615211       316.0660 
 247   0.0000      11.649276       316.9929 
 248   0.0000      12.013431       326.9021 
 249   0.0000      12.013462       326.9029 
 250   0.0000      12.153521       330.7141 
 251   0.0000      12.182268       331.4964 
 252   0.0000      12.553882       341.6085 
 253   0.0000      13.441852       365.7714 
 254   0.0000      13.487168       367.0045 
 255   0.0000      13.487404       367.0109 
 256   0.0000      14.189518       386.1164 
 257   0.0000      14.189603       386.1187 
 258   0.0000      14.399142       391.8206 
 259   0.0000      14.399145       391.8206 
 260   0.0000      15.069867       410.0719 
 261   0.0000      15.070752       410.0960 
 262   0.0000      15.244511       414.8242 
 263   0.0000      15.284143       415.9027 
 264   0.0000      15.681010       426.7020 
 265   0.0000      15.847329       431.2277 
 266   0.0000      15.877715       432.0546 
 267   0.0000      15.914178       433.0468 
 268   0.0000      16.748735       455.7562 
 269   0.0000      16.748984       455.7630 
 270   0.0000      17.492365       475.9915 
 271   0.0000      17.531331       477.0518 
 272   0.0000      18.449574       502.0384 
 273   0.0000      19.258950       524.0627 
 274   0.0000      20.124598       547.6182 
 275   0.0000      20.124682       547.6204 
 276   0.0000      20.498822       557.8013 
 277   0.0000      20.510653       558.1233 
 278   0.0000      21.877725       595.3232 
 279   0.0000      22.981106       625.3477 
 280   0.0000      25.955812       706.2936 
 281   0.0000      25.993917       707.3304 
 282   0.0000      27.552062       749.7297 
 283   0.0000      47.564472      1294.2951 
 284   0.0000      47.564618      1294.2990 
 285   0.0000      47.856596      1302.2442 
 286   0.0000      47.884133      1302.9935 
 287   0.0000      48.513081      1320.1080 
 288   0.0000      78.092070      2124.9933 
 289   0.0000     103.061894      2804.4567 

                 SPIN DOWN ORBITALS
  NO   OCC          E(Eh)            E(eV) 
   0   1.0000     -14.035138      -381.9155 
   1   1.0000      -6.594801      -179.4536 
   2   1.0000      -0.726984       -19.7822 
   3   1.0000      -0.319980        -8.7071 
   4   1.0000      -0.277266        -7.5448 
   5   0.0000      -0.252455        -6.8696 
   6   0.0000      -0.207060        -5.6344 
   7   0.0000      -0.073251        -1.9932 
   8   0.0000      -0.042506        -1.1566 
   9   0.0000      -0.033162        -0.9024 
  10   0.0000      -0.017891        -0.4868 
  11   0.0000      -0.011026        -0.3000 
  12   0.0000      -0.009763        -0.2657 
  13   0.0000       0.011792         0.3209 
  14   0.0000       0.033803         0.9198 
  15   0.0000       0.037548         1.0217 
  16   0.0000       0.038533         1.0485 
  17   0.0000       0.039297         1.0693 
  18   0.0000       0.057828         1.5736 
  19   0.0000       0.062139         1.6909 
  20   0.0000       0.063997         1.7414 
  21   0.0000       0.090700         2.4681 
  22   0.0000       0.119937         3.2636 
  23   0.0000       0.120177         3.2702 
  24   0.0000       0.120302         3.2736 
  25   0.0000       0.122028         3.3206 
  26   0.0000       0.122485         3.3330 
  27   0.0000       0.131532         3.5792 
  28   0.0000       0.133741         3.6393 
  29   0.0000       0.134164         3.6508 
  30   0.0000       0.158042         4.3005 
  31   0.0000       0.160836         4.3766 
  32   0.0000       0.167949         4.5701 
  33   0.0000       0.169506         4.6125 
  34   0.0000       0.179592         4.8869 
  35   0.0000       0.181598         4.9415 
  36   0.0000       0.185458         5.0466 
  37   0.0000       0.185576         5.0498 
  38   0.0000       0.189818         5.1652 
  39   0.0000       0.209776         5.7083 
  40   0.0000       0.224417         6.1067 
  41   0.0000       0.225063         6.1243 
  42   0.0000       0.229766         6.2522 
  43   0.0000       0.233001         6.3403 
  44   0.0000       0.233441         6.3522 
  45   0.0000       0.235321         6.4034 
  46   0.0000       0.235536         6.4093 
  47   0.0000       0.238419         6.4877 
  48   0.0000       0.250766         6.8237 
  49   0.0000       0.254939         6.9373 
  50   0.0000       0.299812         8.1583 
  51   0.0000       0.301829         8.2132 
  52   0.0000       0.326123         8.8742 
  53   0.0000       0.333829         9.0839 
  54   0.0000       0.336099         9.1457 
  55   0.0000       0.345877         9.4118 
  56   0.0000       0.346290         9.4230 
  57   0.0000       0.348098         9.4722 
  58   0.0000       0.348179         9.4744 
  59   0.0000       0.348295         9.4776 
  60   0.0000       0.352042         9.5795 
  61   0.0000       0.354024         9.6335 
  62   0.0000       0.354384         9.6433 
  63   0.0000       0.355829         9.6826 
  64   0.0000       0.359250         9.7757 
  65   0.0000       0.359372         9.7790 
  66   0.0000       0.387469        10.5436 
  67   0.0000       0.394849        10.7444 
  68   0.0000       0.398181        10.8351 
  69   0.0000       0.419554        11.4167 
  70   0.0000       0.422116        11.4864 
  71   0.0000       0.426838        11.6149 
  72   0.0000       0.428090        11.6489 
  73   0.0000       0.437424        11.9029 
  74   0.0000       0.472609        12.8604 
  75   0.0000       0.479928        13.0595 
  76   0.0000       0.491531        13.3752 
  77   0.0000       0.531107        14.4522 
  78   0.0000       0.548084        14.9141 
  79   0.0000       0.554127        15.0786 
  80   0.0000       0.572675        15.5833 
  81   0.0000       0.574970        15.6457 
  82   0.0000       0.582041        15.8381 
  83   0.0000       0.645445        17.5634 
  84   0.0000       0.645485        17.5645 
  85   0.0000       0.647860        17.6292 
  86   0.0000       0.648140        17.6368 
  87   0.0000       0.648886        17.6571 
  88   0.0000       0.651881        17.7386 
  89   0.0000       0.677847        18.4451 
  90   0.0000       0.678488        18.4626 
  91   0.0000       0.691873        18.8268 
  92   0.0000       0.728391        19.8205 
  93   0.0000       0.734601        19.9895 
  94   0.0000       0.749547        20.3962 
  95   0.0000       0.759361        20.6633 
  96   0.0000       0.761601        20.7242 
  97   0.0000       0.763345        20.7717 
  98   0.0000       0.770470        20.9656 
  99   0.0000       0.822843        22.3907 
 100   0.0000       0.823666        22.4131 
 101   0.0000       0.848041        23.0764 
 102   0.0000       0.848071        23.0772 
 103   0.0000       0.848415        23.0865 
 104   0.0000       0.893723        24.3194 
 105   0.0000       0.894045        24.3282 
 106   0.0000       0.906968        24.6798 
 107   0.0000       0.909075        24.7372 
 108   0.0000       0.929629        25.2965 
 109   0.0000       0.937717        25.5166 
 110   0.0000       0.966880        26.3101 
 111   0.0000       1.006390        27.3853 
 112   0.0000       1.015454        27.6319 
 113   0.0000       1.019756        27.7490 
 114   0.0000       1.063401        28.9366 
 115   0.0000       1.202336        32.7172 
 116   0.0000       1.206510        32.8308 
 117   0.0000       1.231056        33.4987 
 118   0.0000       1.244346        33.8604 
 119   0.0000       1.254571        34.1386 
 120   0.0000       1.367727        37.2177 
 121   0.0000       1.368519        37.2393 
 122   0.0000       1.428077        38.8600 
 123   0.0000       1.433181        38.9988 
 124   0.0000       1.497170        40.7401 
 125   0.0000       1.499440        40.8018 
 126   0.0000       1.510038        41.0902 
 127   0.0000       1.510217        41.0951 
 128   0.0000       1.513715        41.1903 
 129   0.0000       1.529879        41.6301 
 130   0.0000       1.542615        41.9767 
 131   0.0000       1.612886        43.8889 
 132   0.0000       1.757317        47.8190 
 133   0.0000       1.765146        48.0321 
 134   0.0000       1.767226        48.0887 
 135   0.0000       1.769274        48.1444 
 136   0.0000       1.773039        48.2468 
 137   0.0000       1.965234        53.4767 
 138   0.0000       1.977108        53.7998 
 139   0.0000       1.982359        53.9427 
 140   0.0000       2.033793        55.3423 
 141   0.0000       2.109287        57.3966 
 142   0.0000       2.112661        57.4884 
 143   0.0000       2.496558        67.9348 
 144   0.0000       2.505218        68.1704 
 145   0.0000       2.595472        70.6264 
 146   0.0000       2.871013        78.1242 
 147   0.0000       2.883959        78.4765 
 148   0.0000       2.889368        78.6237 
 149   0.0000       2.894084        78.7520 
 150   0.0000       2.909228        79.1641 
 151   0.0000       3.017503        82.1104 
 152   0.0000       3.037339        82.6502 
 153   0.0000       3.044486        82.8447 
 154   0.0000       3.160794        86.0096 
 155   0.0000       3.161308        86.0236 
 156   0.0000       3.211319        87.3844 
 157   0.0000       3.212476        87.4159 
 158   0.0000       3.230955        87.9188 
 159   0.0000       3.245060        88.3026 
 160   0.0000       3.370425        91.7139 
 161   0.0000       3.550404        96.6114 
 162   0.0000       3.556182        96.7686 
 163   0.0000       3.608143        98.1826 
 164   0.0000       3.621404        98.5434 
 165   0.0000       3.632244        98.8384 
 166   0.0000       3.642556        99.1190 
 167   0.0000       3.645818        99.2078 
 168   0.0000       3.793895       103.2371 
 169   0.0000       3.811135       103.7062 
 170   0.0000       3.819709       103.9396 
 171   0.0000       3.825464       104.0962 
 172   0.0000       3.912440       106.4629 
 173   0.0000       3.972077       108.0857 
 174   0.0000       3.992155       108.6320 
 175   0.0000       4.048606       110.1682 
 176   0.0000       4.500595       122.4674 
 177   0.0000       4.502354       122.5153 
 178   0.0000       4.551673       123.8573 
 179   0.0000       4.568366       124.3116 
 180   0.0000       4.634721       126.1172 
 181   0.0000       4.848000       131.9208 
 182   0.0000       4.853385       132.0673 
 183   0.0000       4.951853       134.7468 
 184   0.0000       5.007305       136.2557 
 185   0.0000       5.007900       136.2719 
 186   0.0000       5.319780       144.7586 
 187   0.0000       5.320783       144.7859 
 188   0.0000       5.531607       150.5227 
 189   0.0000       5.545477       150.9001 
 190   0.0000       6.142551       167.1473 
 191   0.0000       6.147820       167.2907 
 192   0.0000       6.266092       170.5090 
 193   0.0000       6.667759       181.4389 
 194   0.0000       6.684513       181.8949 
 195   0.0000       6.769379       184.2042 
 196   0.0000       6.837454       186.0566 
 197   0.0000       6.851858       186.4485 
 198   0.0000       6.989304       190.1886 
 199   0.0000       7.166394       195.0075 
 200   0.0000       7.179358       195.3603 
 201   0.0000       7.326663       199.3686 
 202   0.0000       7.328444       199.4171 
 203   0.0000       7.821330       212.8292 
 204   0.0000       7.915543       215.3929 
 205   0.0000       7.928895       215.7562 
 206   0.0000       7.971901       216.9264 
 207   0.0000       8.877428       241.5671 
 208   0.0000       9.108700       247.8603 
 209   0.0000       9.132057       248.4959 
 210   0.0000       9.133618       248.5384 
 211   0.0000       9.135656       248.5938 
 212   0.0000       9.225195       251.0303 
 213   0.0000       9.226224       251.0583 
 214   0.0000       9.243711       251.5342 
 215   0.0000       9.244326       251.5509 
 216   0.0000       9.335082       254.0205 
 217   0.0000       9.335494       254.0317 
 218   0.0000       9.346075       254.3196 
 219   0.0000       9.356322       254.5985 
 220   0.0000       9.511052       258.8089 
 221   0.0000       9.513462       258.8745 
 222   0.0000       9.720241       264.5012 
 223   0.0000      10.103402       274.9276 
 224   0.0000      10.105603       274.9874 
 225   0.0000      10.158538       276.4279 
 226   0.0000      10.164061       276.5782 
 227   0.0000      10.165061       276.6054 
 228   0.0000      10.194709       277.4121 
 229   0.0000      10.207635       277.7639 
 230   0.0000      10.208011       277.7741 
 231   0.0000      10.210429       277.8399 
 232   0.0000      10.566172       287.5202 
 233   0.0000      10.579069       287.8711 
 234   0.0000      10.790039       293.6119 
 235   0.0000      10.795665       293.7650 
 236   0.0000      10.869095       295.7631 
 237   0.0000      11.176924       304.1396 
 238   0.0000      11.180943       304.2489 
 239   0.0000      11.337035       308.4964 
 240   0.0000      11.342500       308.6451 
 241   0.0000      11.404676       310.3370 
 242   0.0000      11.405154       310.3500 
 243   0.0000      11.417583       310.6882 
 244   0.0000      11.463056       311.9256 
 245   0.0000      11.463710       311.9434 
 246   0.0000      11.676321       317.7288 
 247   0.0000      11.695011       318.2374 
 248   0.0000      12.075071       328.5794 
 249   0.0000      12.076846       328.6277 
 250   0.0000      12.234605       332.9205 
 251   0.0000      12.256487       333.5160 
 252   0.0000      12.615402       343.2825 
 253   0.0000      13.506217       367.5228 
 254   0.0000      13.547816       368.6548 
 255   0.0000      13.555547       368.8652 
 256   0.0000      14.270321       388.3152 
 257   0.0000      14.272033       388.3618 
 258   0.0000      14.464695       393.6044 
 259   0.0000      14.466597       393.6561 
 260   0.0000      15.125618       411.5890 
 261   0.0000      15.132980       411.7893 
 262   0.0000      15.313213       416.6937 
 263   0.0000      15.337226       417.3471 
 264   0.0000      15.735512       428.1850 
 265   0.0000      15.893974       432.4970 
 266   0.0000      15.939757       433.7428 
 267   0.0000      15.959604       434.2829 
 268   0.0000      16.810577       457.4390 
 269   0.0000      16.817543       457.6286 
 270   0.0000      17.551261       477.5941 
 271   0.0000      17.575635       478.2573 
 272   0.0000      18.492991       503.2199 
 273   0.0000      19.299296       525.1605 
 274   0.0000      20.152344       548.3732 
 275   0.0000      20.153593       548.4071 
 276   0.0000      20.543016       559.0039 
 277   0.0000      20.549159       559.1710 
 278   0.0000      21.918913       596.4440 
 279   0.0000      23.027143       626.6004 
 280   0.0000      26.008319       707.7223 
 281   0.0000      26.038204       708.5355 
 282   0.0000      27.588901       750.7322 
 283   0.0000      47.611649      1295.5788 
 284   0.0000      47.617432      1295.7362 
 285   0.0000      47.900715      1303.4447 
 286   0.0000      47.918235      1303.9215 
 287   0.0000      48.550779      1321.1339 
 288   0.0000      78.111276      2125.5159 
 289   0.0000     103.081273      2804.9840 

                    ********************************
                    * MULLIKEN POPULATION ANALYSIS *
                    ********************************

--------------------------------------------
MULLIKEN ATOMIC CHARGES AND SPIN POPULATIONS
--------------------------------------------
   0 B :   -0.015684    1.109392
   1 N :    0.015684    0.890608
Sum of atomic charges         :   -0.0000000
Sum of atomic spin populations:    2.0000000

-----------------------------------------------------
MULLIKEN REDUCED ORBITAL CHARGES AND SPIN POPULATIONS
-----------------------------------------------------
CHARGE
  0 B s       :     3.302602  s :     3.302602
      pz      :     0.669084  p :     1.638042
      px      :     0.295801
      py      :     0.673157
      dz2     :     0.022766  d :     0.064204
      dxz     :     0.012686
      dyz     :     0.028582
      dx2y2   :     0.000170
      dxy     :     0.000000
      f0      :     0.003280  f :     0.009513
      f+1     :     0.002269
      f-1     :     0.003913
      f+2     :     0.000018
      f-2     :     0.000000
      f+3     :     0.000013
      f-3     :     0.000020
      g0      :     0.000511  g :     0.001299
      g+1     :     0.000273
      g-1     :     0.000508
      g+2     :     0.000003
      g-2     :     0.000000
      g+3     :     0.000002
      g-3     :     0.000002
      g+4     :     0.000000
      g-4     :     0.000000
      h0      :     0.000025  h :     0.000024
      h+1     :     0.000000
      h-1     :    -0.000001
      h+2     :     0.000000
      h-2     :     0.000000
      h+3     :    -0.000000
      h-3     :     0.000000
      h+4     :     0.000000
      h-4     :     0.000000
      h+5     :    -0.000000
      h-5     :     0.000000
  1 N s       :     3.791349  s :     3.791349
      pz      :     1.198118  p :     3.165273
      px      :     0.683190
      py      :     1.283964
      dz2     :     0.010912  d :     0.026845
      dxz     :     0.005938
      dyz     :     0.009653
      dx2y2   :     0.000342
      dxy     :     0.000000
      f0      :     0.000691  f :     0.000863
      f+1     :    -0.000172
      f-1     :     0.000157
      f+2     :     0.000050
      f-2     :     0.000000
      f+3     :     0.000063
      f-3     :     0.000074
      g0      :     0.000053  g :    -0.000018
      g+1     :    -0.000056
      g-1     :    -0.000024
      g+2     :     0.000003
      g-2     :     0.000000
      g+3     :     0.000002
      g-3     :     0.000003
      g+4     :     0.000001
      g-4     :     0.000000
      h0      :     0.000022  h :     0.000005
      h+1     :    -0.000009
      h-1     :    -0.000008
      h+2     :     0.000000
      h-2     :     0.000000
      h+3     :    -0.000000
      h-3     :    -0.000000
      h+4     :     0.000000
      h-4     :     0.000000
      h+5     :     0.000000
      h-5     :     0.000000

SPIN
  0 B s       :     0.328705  s :     0.328705
      pz      :     0.453297  p :     0.772277
      px      :     0.295801
      py      :     0.023179
      dz2     :     0.003324  d :     0.004766
      dxz     :     0.012686
      dyz     :    -0.011333
      dx2y2   :     0.000088
      dxy     :     0.000000
      f0      :     0.000452  f :     0.003240
      f+1     :     0.002269
      f-1     :     0.000476
      f+2     :     0.000016
      f-2     :     0.000000
      f+3     :     0.000013
      f-3     :     0.000013
      g0      :     0.000081  g :     0.000399
      g+1     :     0.000273
      g-1     :     0.000039
      g+2     :     0.000003
      g-2     :     0.000000
      g+3     :     0.000002
      g-3     :     0.000002
      g+4     :    -0.000000
      g-4     :    -0.000000
      h0      :     0.000007  h :     0.000005
      h+1     :     0.000000
      h-1     :    -0.000002
      h+2     :    -0.000000
      h-2     :    -0.000000
      h+3     :    -0.000000
      h-3     :    -0.000000
      h+4     :    -0.000000
      h-4     :    -0.000000
      h+5     :    -0.000000
      h-5     :    -0.000000
  1 N s       :     0.048681  s :     0.048681
      pz      :     0.161903  p :     0.831718
      px      :     0.683190
      py      :    -0.013375
      dz2     :     0.003274  d :     0.010412
      dxz     :     0.005938
      dyz     :     0.000984
      dx2y2   :     0.000216
      dxy     :     0.000000
      f0      :    -0.000067  f :    -0.000067
      f+1     :    -0.000172
      f-1     :     0.000010
      f+2     :     0.000037
      f-2     :     0.000000
      f+3     :     0.000063
      f-3     :     0.000062
      g0      :    -0.000033  g :    -0.000137
      g+1     :    -0.000056
      g-1     :    -0.000052
      g+2     :     0.000001
      g-2     :     0.000000
      g+3     :     0.000002
      g-3     :     0.000002
      g+4     :    -0.000001
      g-4     :    -0.000000
      h0      :     0.000016  h :     0.000001
      h+1     :    -0.000009
      h-1     :    -0.000006
      h+2     :     0.000000
      h-2     :     0.000000
      h+3     :    -0.000000
      h-3     :    -0.000000
      h+4     :    -0.000000
      h-4     :    -0.000000
      h+5     :     0.000000
      h-5     :    -0.000000


                     *******************************
                     * LOEWDIN POPULATION ANALYSIS *
                     *******************************

-------------------------------------------
LOEWDIN ATOMIC CHARGES AND SPIN POPULATIONS
-------------------------------------------
   0 B :   -0.032906    1.010053
   1 N :    0.032906    0.989947

----------------------------------------------------
LOEWDIN REDUCED ORBITAL CHARGES AND SPIN POPULATIONS
----------------------------------------------------
CHARGE
  0 B s       :     2.788929  s :     2.788929
      pz      :     0.868193  p :     1.715389
      px      :     0.261293
      py      :     0.585904
      dz2     :     0.222375  d :     0.376150
      dxz     :     0.053301
      dyz     :     0.100328
      dx2y2   :     0.000146
      dxy     :     0.000000
      f0      :     0.052154  f :     0.120573
      f+1     :     0.025115
      f-1     :     0.043236
      f+2     :     0.000032
      f-2     :     0.000000
      f+3     :     0.000014
      f-3     :     0.000021
      g0      :     0.009066  g :     0.029783
      g+1     :     0.007547
      g-1     :     0.013154
      g+2     :     0.000010
      g-2     :     0.000000
      g+3     :     0.000003
      g-3     :     0.000003
      g+4     :     0.000000
      g-4     :     0.000000
      h0      :     0.000896  h :     0.002082
      h+1     :     0.000416
      h-1     :     0.000769
      h+2     :     0.000001
      h-2     :     0.000000
      h+3     :     0.000000
      h-3     :     0.000000
      h+4     :     0.000000
      h-4     :     0.000000
      h+5     :     0.000000
      h-5     :     0.000000
  1 N s       :     3.319054  s :     3.319054
      pz      :     1.564455  p :     3.375551
      px      :     0.622878
      py      :     1.188218
      dz2     :     0.122161  d :     0.184750
      dxz     :     0.018691
      dyz     :     0.043574
      dx2y2   :     0.000324
      dxy     :     0.000000
      f0      :     0.039071  f :     0.064320
      f+1     :     0.007427
      f-1     :     0.017628
      f+2     :     0.000064
      f-2     :     0.000000
      f+3     :     0.000060
      f-3     :     0.000070
      g0      :     0.010517  g :     0.018955
      g+1     :     0.002643
      g-1     :     0.005781
      g+2     :     0.000008
      g-2     :     0.000000
      g+3     :     0.000002
      g-3     :     0.000003
      g+4     :     0.000001
      g-4     :     0.000000
      h0      :     0.002541  h :     0.004463
      h+1     :     0.000611
      h-1     :     0.001309
      h+2     :     0.000002
      h-2     :     0.000000
      h+3     :     0.000000
      h-3     :     0.000000
      h+4     :     0.000000
      h-4     :     0.000000
      h+5     :     0.000000
      h-5     :     0.000000

SPIN
  0 B s       :     0.273971  s :     0.273971
      pz      :     0.371388  p :     0.652520
      px      :     0.261293
      py      :     0.019839
      dz2     :     0.004201  d :     0.047392
      dxz     :     0.053301
      dyz     :    -0.010185
      dx2y2   :     0.000074
      dxy     :     0.000000
      f0      :     0.002244  f :     0.027800
      f+1     :     0.025115
      f-1     :     0.000388
      f+2     :     0.000023
      f-2     :     0.000000
      f+3     :     0.000014
      f-3     :     0.000015
      g0      :     0.000394  g :     0.007905
      g+1     :     0.007547
      g-1     :    -0.000048
      g+2     :     0.000008
      g-2     :     0.000000
      g+3     :     0.000003
      g-3     :     0.000003
      g+4     :    -0.000000
      g-4     :    -0.000000
      h0      :     0.000049  h :     0.000464
      h+1     :     0.000416
      h-1     :    -0.000002
      h+2     :     0.000001
      h-2     :     0.000000
      h+3     :     0.000000
      h-3     :     0.000000
      h+4     :    -0.000000
      h-4     :    -0.000000
      h+5     :     0.000000
      h-5     :    -0.000000
  1 N s       :     0.076738  s :     0.076738
      pz      :     0.182741  p :     0.790198
      px      :     0.622878
      py      :    -0.015421
      dz2     :     0.060261  d :     0.081888
      dxz     :     0.018691
      dyz     :     0.002732
      dx2y2   :     0.000204
      dxy     :     0.000000
      f0      :     0.019989  f :     0.029182
      f+1     :     0.007427
      f-1     :     0.001601
      f+2     :     0.000046
      f-2     :     0.000000
      f+3     :     0.000060
      f-3     :     0.000058
      g0      :     0.006117  g :     0.009525
      g+1     :     0.002643
      g-1     :     0.000759
      g+2     :     0.000004
      g-2     :     0.000000
      g+3     :     0.000002
      g-3     :     0.000002
      g+4     :    -0.000001
      g-4     :    -0.000000
      h0      :     0.001547  h :     0.002417
      h+1     :     0.000611
      h-1     :     0.000258
      h+2     :     0.000001
      h-2     :     0.000000
      h+3     :     0.000000
      h-3     :     0.000000
      h+4     :    -0.000000
      h-4     :    -0.000000
      h+5     :     0.000000
      h-5     :    -0.000000


                      *****************************
                      * MAYER POPULATION ANALYSIS *
                      *****************************

  NA   - Mulliken gross atomic population
  ZA   - Total nuclear charge
  QA   - Mulliken gross atomic charge
  VA   - Mayer's total valence
  BVA  - Mayer's bonded valence
  FA   - Mayer's free valence

  ATOM       NA         ZA         QA         VA         BVA        FA
  0 B      5.0157     5.0000    -0.0157     3.1153     2.3505     0.7648
  1 N      6.9843     7.0000     0.0157     2.8645     2.3505     0.5140

  Mayer bond orders larger than 0.1
B(  0-B ,  1-N ) :   2.3505 

-------
TIMINGS
-------

Total SCF time: 0 days 0 hours 6 min 25 sec 

Total time                  ....     385.958 sec
Sum of individual times     ....     385.317 sec  ( 99.8%)

Fock matrix formation       ....     383.173 sec  ( 99.3%)
  XC integration            ....       8.676 sec  (  2.3% of F)
    Basis function eval.    ....       0.614 sec  (  7.1% of XC)
    Density eval.           ....       1.610 sec  ( 18.6% of XC)
    XC-Functional eval.     ....       0.118 sec  (  1.4% of XC)
    XC-Potential eval.      ....       5.783 sec  ( 66.7% of XC)
Diagonalization             ....       0.912 sec  (  0.2%)
Density matrix formation    ....       0.018 sec  (  0.0%)
Population analysis         ....       0.069 sec  (  0.0%)
Initial guess               ....       0.398 sec  (  0.1%)
Orbital Transformation      ....       0.000 sec  (  0.0%)
Orbital Orthonormalization  ....       0.000 sec  (  0.0%)
DIIS solution               ....       0.495 sec  (  0.1%)
Grid generation             ....       0.252 sec  (  0.1%)

-------------------------   --------------------
FINAL SINGLE POINT ENERGY       -79.337883847283
-------------------------   --------------------


                            ***************************************
                            *     ORCA property calculations      *
                            ***************************************

                                    ---------------------
                                    Active property flags
                                    ---------------------
   (+) Dipole Moment


------------------------------------------------------------------------------
                       ORCA ELECTRIC PROPERTIES CALCULATION
------------------------------------------------------------------------------

Dipole Moment Calculation                       ... on
Quadrupole Moment Calculation                   ... off
Polarizability Calculation                      ... off
GBWName                                         ... bn_pbe_+001_z.gbw
Electron density file                           ... bn_pbe_+001_z.scfp.tmp
The origin for moment calculation is the CENTER OF MASS  = ( 0.000000,  0.000000  1.413223)

-------------
DIPOLE MOMENT
-------------
                                X             Y             Z
Electronic contribution:      0.00000       0.00000      -0.99165
Nuclear contribution   :      0.00000       0.00000       0.56854
                        -----------------------------------------
Total Dipole Moment    :      0.00000       0.00000      -0.42311
                        -----------------------------------------
Magnitude (a.u.)       :      0.42311
Magnitude (Debye)      :      1.07547



--------------------
Rotational spectrum 
--------------------
 
Rotational constants in cm-1:     0.000000     1.573778     1.573778 
Rotational constants in MHz :     0.000000 47180.691902 47180.691902 

 Dipole components along the rotational axes: 
x,y,z [a.u.] :    -0.423115     0.000000     0.000000 
x,y,z [Debye]:    -1.075472     0.000000     0.000000 

 

Timings for individual modules:

Sum of individual times         ...      387.681 sec (=   6.461 min)
GTO integral calculation        ...        1.402 sec (=   0.023 min)   0.4 %
SCF iterations                  ...      386.279 sec (=   6.438 min)  99.6 %
                             ****ORCA TERMINATED NORMALLY****
TOTAL RUN TIME: 0 days 0 hours 6 minutes 28 seconds 580 msec
