
                                 *****************
                                 * O   R   C   A *
                                 *****************

           --- An Ab Initio, DFT and Semiempirical electronic structure package ---

                  #######################################################
                  #                        -***-                        #
                  #          Department of theory and spectroscopy      #
                  #               Directorship: Frank Neese             #
                  #        Max Planck Institute fuer Kohlenforschung    #
                  #                Kaiser Wilhelm Platz 1               #
                  #                 D-45470 Muelheim/Ruhr               #
                  #                      Germany                        #
                  #                                                     #
                  #                  All rights reserved                #
                  #                        -***-                        #
                  #######################################################


                         Program Version 4.1.1  - RELEASE  -


 With contributions from (in alphabetic order):
   Daniel Aravena         : Magnetic Properties
   Michael Atanasov       : Ab Initio Ligand Field Theory
   Alexander A. Auer      : GIAO ZORA
   Ute Becker             : Parallelization
   Giovanni Bistoni       : ED, Open-shell LED
   Martin Brehm           : Molecular dynamics
   Dmytro Bykov           : SCF Hessian
   Vijay G. Chilkuri      : MRCI spin determinant printing
   Dipayan Datta          : RHF DLPNO-CCSD density
   Achintya Kumar Dutta   : EOM-CC, STEOM-CC
   Dmitry Ganyushin       : Spin-Orbit,Spin-Spin,Magnetic field MRCI
   Miquel Garcia          : C-PCM Hessian
   Yang Guo               : DLPNO-NEVPT2, CIM, IAO-localization
   Andreas Hansen         : Spin unrestricted coupled pair/coupled cluster methods
   Benjamin Helmich-Paris : CASSCF linear response (MC-RPA)
   Lee Huntington         : MR-EOM, pCC
   Robert Izsak           : Overlap fitted RIJCOSX, COSX-SCS-MP3, EOM
   Christian Kollmar      : KDIIS, OOCD, Brueckner-CCSD(T), CCSD density
   Simone Kossmann        : Meta GGA functionals, TD-DFT gradient, OOMP2, MP2 Hessian
   Martin Krupicka        : AUTO-CI
   Lucas Lang             : DCDCAS
   Dagmar Lenk            : GEPOL surface, SMD
   Dimitrios Liakos       : Extrapolation schemes; parallel MDCI
   Dimitrios Manganas     : ROCIS; embedding schemes
   Dimitrios Pantazis     : SARC Basis sets
   Taras Petrenko         : DFT Hessian,TD-DFT gradient, ASA, ECA, R-Raman, ABS, FL, XAS/XES, NRVS
   Peter Pinski           : DLPNO-MP2, DLPNO-MP2 Gradient
   Christoph Reimann      : Effective Core Potentials
   Marius Retegan         : Local ZFS, SOC
   Christoph Riplinger    : Optimizer, TS searches, QM/MM, DLPNO-CCSD(T), (RO)-DLPNO pert. Triples
   Tobias Risthaus        : Range-separated hybrids, TD-DFT gradient, RPA, STAB
   Michael Roemelt        : Restricted open shell CIS
   Masaaki Saitow         : Open-shell DLPNO
   Barbara Sandhoefer     : DKH picture change effects
   Avijit Sen             : IP-ROCIS
   Kantharuban Sivalingam : CASSCF convergence, NEVPT2, FIC-MRCI
   Bernardo de Souza      : ESD, SOC TD-DFT
   Georgi Stoychev        : AutoAux, RI-MP2 NMR
   Willem Van den Heuvel  : Paramagnetic NMR
   Boris Wezisla          : Elementary symmetry handling
   Frank Wennmohs         : Technical directorship


 We gratefully acknowledge several colleagues who have allowed us to
 interface, adapt or use parts of their codes:
   Stefan Grimme, W. Hujo, H. Kruse,             : VdW corrections, initial TS optimization,
                  C. Bannwarth                     DFT functionals, gCP, sTDA/sTD-DF
   Ed Valeev                                     : LibInt (2-el integral package), F12 methods
   Garnet Chan, S. Sharma, J. Yang, R. Olivares  : DMRG
   Ulf Ekstrom                                   : XCFun DFT Library
   Mihaly Kallay                                 : mrcc  (arbitrary order and MRCC methods)
   Andreas Klamt, Michael Diedenhofen            : otool_cosmo (COSMO solvation model)
   Jiri Pittner, Ondrej Demel                    : Mk-CCSD
   Frank Weinhold                                : gennbo (NPA and NBO analysis)
   Christopher J. Cramer and Donald G. Truhlar   : smd solvation model
   Lars Goerigk                                  : TD-DFT with DH, B97 family of functionals
   V. Asgeirsson, H. Jonsson                     : NEB implementation
   FAccTs GmbH                                   : IRC, NEB, NEB-TS, Multilevel


 Your calculation uses the libint2 library for the computation of 2-el integrals
 For citations please refer to: http://libint.valeyev.net

 This ORCA versions uses:
   CBLAS   interface :  Fast vector & matrix operations
   LAPACKE interface :  Fast linear algebra routines
   SCALAPACK package :  Parallel linear algebra routines


----- Orbital basis set information -----
Your calculation utilizes the basis: aug-pc-4
   H, C-F              : F. Jensen, J. Chem. Phys. 115, 9113 (2001).
                         F. Jensen, J. Chem. Phys. 116, 7372 (2002).
                         F. Jensen, J. Chem. Phys. 117, 9234 (2002).
   Si-Cl               : F. Jensen, T. Helgaker, J. Chem. Phys. 121, 3463 (2004).
   He-B, Ne-Mg, Al, Ar : F. Jensen, J. Phys. Chem. A 111, 11198 (2007).
   K, Ca, Ga-Kr        : F. Jensen, J. Chem. Phys. 136, 094110 (2012).
   Sc-Zn               : F. Jensen, J. Chem. Phys. 138, 014107 (2013).

================================================================================
                                        WARNINGS
                       Please study these warnings very carefully!
================================================================================


INFO   : the flag for use of LIBINT has been found!

================================================================================
                                       INPUT FILE
================================================================================
NAME = bn_pbe_-001_z.inp
|  1> ! uks pbe nori aug-pc-4 grid5 nofinalgrid verytightscf
|  2> 
|  3> %maxcore 1500
|  4> 
|  5> %pal nprocs 4 end
|  6> %scf
|  7>     efield 0.0, 0.0, -0.01
|  8>     maxiter 300
|  9> end
| 10> * xyz 0 3
| 11> B      0.0000  0.0000  0.0000
| 12> N      0.0000  0.0000  1.3250
| 13> *
| 14> 
| 15>                          ****END OF INPUT****
================================================================================

                       ****************************
                       * Single Point Calculation *
                       ****************************

---------------------------------
CARTESIAN COORDINATES (ANGSTROEM)
---------------------------------
  B      0.000000    0.000000    0.000000
  N      0.000000    0.000000    1.325000

----------------------------
CARTESIAN COORDINATES (A.U.)
----------------------------
  NO LB      ZA    FRAG     MASS         X           Y           Z
   0 B     5.0000    0    10.810    0.000000    0.000000    0.000000
   1 N     7.0000    0    14.007    0.000000    0.000000    2.503887

--------------------------------
INTERNAL COORDINATES (ANGSTROEM)
--------------------------------
 B      0   0   0     0.000000000000     0.00000000     0.00000000
 N      1   0   0     1.325000000000     0.00000000     0.00000000

---------------------------
INTERNAL COORDINATES (A.U.)
---------------------------
 B      0   0   0     0.000000000000     0.00000000     0.00000000
 N      1   0   0     2.503887127446     0.00000000     0.00000000

---------------------
BASIS SET INFORMATION
---------------------
There are 2 groups of distinct atoms

 Group   1 Type B   : 27s12p7d4f3g2h contracted to 9s8p7d4f3g2h pattern {1191111111/51111111/1111111/1111/111/11}
 Group   2 Type N   : 27s12p7d4f3g2h contracted to 9s8p7d4f3g2h pattern {1191111111/51111111/1111111/1111/111/11}

Atom   0B    basis set group =>   1
Atom   1N    basis set group =>   2


           ************************************************************
           *        Program running with 4 parallel MPI-processes     *
           *              working on a common directory               *
           ************************************************************
------------------------------------------------------------------------------
                           ORCA GTO INTEGRAL CALCULATION
------------------------------------------------------------------------------

                         BASIS SET STATISTICS AND STARTUP INFO

 # of primitive gaussian shells          ...  110
 # of primitive gaussian functions       ...  350
 # of contracted shells                  ...   66
 # of contracted basis functions         ...  290
 Highest angular momentum                ...    5
 Maximum contraction depth               ...   11
 Integral package used                   ... LIBINT
 Integral threshhold            Thresh   ...  1.000e-12
 Primitive cut-off              TCut     ...  1.000e-14


------------------------------ INTEGRAL EVALUATION ----------------------------


 * One electron integrals 
 Pre-screening matrix                    ... done
 Shell pair data                         ... done (   0.001 sec)


An Electric Field will be added: 0.000e+00 0.000e+00 -1.000e-02 au

  ... done adding electric field perturbation



           ************************************************************
           *        Program running with 4 parallel MPI-processes     *
           *              working on a common directory               *
           ************************************************************
-------------------------------------------------------------------------------
                                 ORCA SCF
-------------------------------------------------------------------------------

------------
SCF SETTINGS
------------
Hamiltonian:
 Density Functional     Method          .... DFT(GTOs)
 Exchange Functional    Exchange        .... PBE
   PBE kappa parameter   XKappa         ....  0.804000
   PBE mue parameter    XMuePBE         ....  0.219520
 Correlation Functional Correlation     .... PBE
   PBE beta parameter  CBetaPBE         ....  0.066725
 LDA part of GGA corr.  LDAOpt          .... PW91-LDA
 Gradients option       PostSCFGGA      .... off
   Density functional embedding theory  .... OFF
   NL short-range parameter             ....  6.400000


General Settings:
 Integral files         IntName         .... bn_pbe_-001_z
 Hartree-Fock type      HFTyp           .... UHF
 Total Charge           Charge          ....    0
 Multiplicity           Mult            ....    3
 Number of Electrons    NEL             ....   12
 Basis Dimension        Dim             ....  290
 Nuclear Repulsion      ENuc            ....     13.9782658796 Eh

Convergence Acceleration:
 DIIS                   CNVDIIS         .... on
   Start iteration      DIISMaxIt       ....    12
   Startup error        DIISStart       ....  0.200000
   # of expansion vecs  DIISMaxEq       ....     5
   Bias factor          DIISBfac        ....   1.050
   Max. coefficient     DIISMaxC        ....  10.000
 Newton-Raphson         CNVNR           .... off
 SOSCF                  CNVSOSCF        .... off
 Level Shifting         CNVShift        .... on
   Level shift para.    LevelShift      ....    0.2500
   Turn off err/grad.   ShiftErr        ....    0.0010
 Zerner damping         CNVZerner       .... off
 Static damping         CNVDamp         .... on
   Fraction old density DampFac         ....    0.7000
   Max. Damping (<1)    DampMax         ....    0.9800
   Min. Damping (>=0)   DampMin         ....    0.0000
   Turn off err/grad.   DampErr         ....    0.1000
 Fernandez-Rico         CNVRico         .... off

SCF Procedure:
 Maximum # iterations   MaxIter         ....   300
 SCF integral mode      SCFMode         .... Direct
   Integral package                     .... LIBINT
 Reset frequency        DirectResetFreq ....    20
 Integral Threshold     Thresh          ....  1.000e-12 Eh
 Primitive CutOff       TCut            ....  1.000e-14 Eh

Convergence Tolerance:
 Convergence Check Mode ConvCheckMode   .... Total+1el-Energy
 Convergence forced     ConvForced      .... 0
 Energy Change          TolE            ....  1.000e-09 Eh
 1-El. energy change                    ....  1.000e-06 Eh
 DIIS Error             TolErr          ....  1.000e-08


Diagonalization of the overlap matrix:
Smallest eigenvalue                        ... 1.822e-06
Time for diagonalization                   ...    0.019 sec
Threshold for overlap eigenvalues          ... 1.000e-08
Number of eigenvalues below threshold      ... 0
Time for construction of square roots      ...    0.013 sec
Total time needed                          ...    0.033 sec

-------------------
DFT GRID GENERATION
-------------------

General Integration Accuracy     IntAcc      ...  5.010
Radial Grid Type                 RadialGrid  ... Gauss-Chebyshev
Angular Grid (max. acc.)         AngularGrid ... Lebedev-434
Angular grid pruning method      GridPruning ... 3 (G Style)
Weight generation scheme         WeightScheme... Becke
Basis function cutoff            BFCut       ...    1.0000e-12
Integration weight cutoff        WCut        ...    1.0000e-14
Grids for H and He will be reduced by one unit

# of grid points (after initial pruning)     ...  21180 (   0.0 sec)
# of grid points (after weights+screening)   ...  21087 (   0.0 sec)
nearest neighbour list constructed           ...    0.0 sec
Grid point re-assignment to atoms done       ...    0.0 sec
Grid point division into batches done        ...    0.2 sec
Reduced shell lists constructed in    0.2 sec

Total number of grid points                  ...    21087
Total number of batches                      ...      330
Average number of points per batch           ...       63
Average number of grid points per atom       ...    10544
Average number of shells per batch           ...    38.64 (58.55%)
Average number of basis functions per batch  ...   176.76 (60.95%)
Average number of large shells per batch     ...    32.98 (85.34%)
Average number of large basis fcns per batch ...   151.05 (85.45%)
Maximum spatial batch extension              ...  23.53, 23.53, 21.88 au
Average spatial batch extension              ...   1.87,  1.89,  1.61 au

Time for grid setup =    0.246 sec

------------------------------
INITIAL GUESS: MODEL POTENTIAL
------------------------------
Loading Hartree-Fock densities                     ... done
Calculating cut-offs                               ... done
Setting up the integral package                    ... done
Initializing the effective Hamiltonian             ... done
Starting the Coulomb interaction                   ... done (   0.0 sec)
Reading the grid                                   ... done
Mapping shells                                     ... done
Starting the XC term evaluation                    ... done (   0.3 sec)
  promolecular density results
     # of electrons  =     11.999998350
     EX              =    -10.158820762
     EC              =     -0.344996361
     EX+EC           =    -10.503817123
Transforming the Hamiltonian                       ... done (   0.0 sec)
Diagonalizing the Hamiltonian                      ... done (   0.0 sec)
Back transforming the eigenvectors                 ... done (   0.0 sec)
Now organizing SCF variables                       ... done
                      ------------------
                      INITIAL GUESS DONE (   0.7 sec)
                      ------------------
--------------
SCF ITERATIONS
--------------
ITER       Energy         Delta-E        Max-DP      RMS-DP      [F,P]     Damp
               ***  Starting incremental Fock matrix formation  ***
  0    -79.2510378123   0.000000000000 0.03573332  0.00031407  0.2774891 0.7000
  1    -79.3109401766  -0.059902364258 0.02448705  0.00019117  0.0705954 0.7000
                               ***Turning on DIIS***
  2    -79.3166041304  -0.005663953836 0.04315199  0.00024825  0.0467708 0.0000
  3    -79.3492340766  -0.032629946181 0.01983708  0.00014302  0.0415065 0.0000
  4    -79.3491805596   0.000053517031 0.00538627  0.00004860  0.0547776 0.0000
  5    -79.3516543661  -0.002473806467 0.00465186  0.00004234  0.0301088 0.0000
  6    -79.3524323575  -0.000777991488 0.00221304  0.00001995  0.0147265 0.0000
  7    -79.3526157339  -0.000183376402 0.00075863  0.00000776  0.0071634 0.0000
  8    -79.3526614910  -0.000045757009 0.00022584  0.00000304  0.0032744 0.0000
  9    -79.3526723320  -0.000010841013 0.00015182  0.00000156  0.0012396 0.0000
 10    -79.3526742627  -0.000001930681 0.00033601  0.00000231  0.0005689 0.0000
 11    -79.3526750480  -0.000000785340 0.00003507  0.00000042  0.0000940 0.0000
 12    -79.3526751007  -0.000000052753 0.00002022  0.00000017  0.0000236 0.0000
 13    -79.3526751075  -0.000000006769 0.00000863  0.00000009  0.0000051 0.0000
 14    -79.3526751094  -0.000000001844 0.00000501  0.00000005  0.0000039 0.0000
 15    -79.3526751098  -0.000000000393 0.00000117  0.00000001  0.0000009 0.0000
                 **** Energy Check signals convergence ****

               *****************************************************
               *                     SUCCESS                       *
               *           SCF CONVERGED AFTER  16 CYCLES          *
               *****************************************************


----------------
TOTAL SCF ENERGY
----------------

Total Energy       :          -79.35267511 Eh           -2159.29607 eV

Components:
Nuclear Repulsion  :           13.97826588 Eh             380.36795 eV
Electronic Energy  :          -93.33094099 Eh           -2539.66402 eV
One Electron Energy:         -134.40125808 Eh           -3657.24416 eV
Two Electron Energy:           41.07031709 Eh            1117.58014 eV

Virial components:
Potential Energy   :         -158.41794541 Eh           -4310.77145 eV
Kinetic Energy     :           79.06527030 Eh            2151.47538 eV
Virial Ratio       :            2.00363503


DFT components:
N(Alpha)           :        7.000000387548 electrons
N(Beta)            :        5.000000465222 electrons
N(Total)           :       12.000000852770 electrons
E(X)               :      -10.373279020898 Eh       
E(C)               :       -0.340888491336 Eh       
E(XC)              :      -10.714167512235 Eh       
DFET-embed. en.    :        0.000000000000 Eh       

---------------
SCF CONVERGENCE
---------------

  Last Energy change         ...   -2.1373e-11  Tolerance :   1.0000e-09
  Last MAX-Density change    ...    1.2933e-06  Tolerance :   1.0000e-08
  Last RMS-Density change    ...    1.1327e-08  Tolerance :   1.0000e-09
  Last DIIS Error            ...    1.5827e-07  Tolerance :   1.0000e-08

             **** THE GBW FILE WAS UPDATED (bn_pbe_-001_z.gbw) ****
             **** DENSITY FILE WAS UPDATED (bn_pbe_-001_z.scfp.tmp) ****
             **** ENERGY FILE WAS UPDATED (bn_pbe_-001_z.en.tmp) ****
----------------------
UHF SPIN CONTAMINATION
----------------------

Warning: in a DFT calculation there is little theoretical justification to 
         calculate <S**2> as in Hartree-Fock theory. We will do it anyways
         but you should keep in mind that the values have only limited relevance

Expectation value of <S**2>     :     2.004319
Ideal value S*(S+1) for S=1.0   :     2.000000
Deviation                       :     0.004319

----------------
ORBITAL ENERGIES
----------------
                 SPIN UP ORBITALS
  NO   OCC          E(Eh)            E(eV) 
   0   1.0000     -14.036723      -381.9587 
   1   1.0000      -6.602449      -179.6618 
   2   1.0000      -0.769099       -20.9283 
   3   1.0000      -0.360320        -9.8048 
   4   1.0000      -0.332424        -9.0457 
   5   1.0000      -0.287608        -7.8262 
   6   1.0000      -0.274494        -7.4694 
   7   0.0000      -0.073140        -1.9903 
   8   0.0000      -0.053454        -1.4546 
   9   0.0000      -0.049089        -1.3358 
  10   0.0000      -0.017292        -0.4705 
  11   0.0000      -0.016536        -0.4500 
  12   0.0000      -0.001202        -0.0327 
  13   0.0000       0.038688         1.0528 
  14   0.0000       0.042987         1.1697 
  15   0.0000       0.046044         1.2529 
  16   0.0000       0.055109         1.4996 
  17   0.0000       0.060132         1.6363 
  18   0.0000       0.060328         1.6416 
  19   0.0000       0.063794         1.7359 
  20   0.0000       0.065343         1.7781 
  21   0.0000       0.080876         2.2007 
  22   0.0000       0.110026         2.9940 
  23   0.0000       0.113066         3.0767 
  24   0.0000       0.120668         3.2835 
  25   0.0000       0.135864         3.6971 
  26   0.0000       0.135875         3.6973 
  27   0.0000       0.143885         3.9153 
  28   0.0000       0.144939         3.9440 
  29   0.0000       0.145644         3.9632 
  30   0.0000       0.147659         4.0180 
  31   0.0000       0.147665         4.0182 
  32   0.0000       0.176671         4.8075 
  33   0.0000       0.177568         4.8319 
  34   0.0000       0.178784         4.8650 
  35   0.0000       0.179770         4.8918 
  36   0.0000       0.183907         5.0044 
  37   0.0000       0.188699         5.1347 
  38   0.0000       0.226549         6.1647 
  39   0.0000       0.228597         6.2204 
  40   0.0000       0.229446         6.2435 
  41   0.0000       0.241887         6.5821 
  42   0.0000       0.242521         6.5993 
  43   0.0000       0.243571         6.6279 
  44   0.0000       0.244699         6.6586 
  45   0.0000       0.246309         6.7024 
  46   0.0000       0.246589         6.7100 
  47   0.0000       0.248643         6.7659 
  48   0.0000       0.251032         6.8309 
  49   0.0000       0.251032         6.8309 
  50   0.0000       0.302009         8.2181 
  51   0.0000       0.303702         8.2641 
  52   0.0000       0.306841         8.3496 
  53   0.0000       0.316328         8.6077 
  54   0.0000       0.320050         8.7090 
  55   0.0000       0.342125         9.3097 
  56   0.0000       0.345824         9.4104 
  57   0.0000       0.350091         9.5265 
  58   0.0000       0.381426        10.3791 
  59   0.0000       0.381575        10.3832 
  60   0.0000       0.381687        10.3862 
  61   0.0000       0.382560        10.4100 
  62   0.0000       0.382578        10.4105 
  63   0.0000       0.382638        10.4121 
  64   0.0000       0.382638        10.4121 
  65   0.0000       0.383426        10.4336 
  66   0.0000       0.383427        10.4336 
  67   0.0000       0.410648        11.1743 
  68   0.0000       0.411225        11.1900 
  69   0.0000       0.411608        11.2004 
  70   0.0000       0.412442        11.2231 
  71   0.0000       0.413219        11.2443 
  72   0.0000       0.415595        11.3089 
  73   0.0000       0.438298        11.9267 
  74   0.0000       0.471424        12.8281 
  75   0.0000       0.479026        13.0350 
  76   0.0000       0.479532        13.0487 
  77   0.0000       0.501966        13.6592 
  78   0.0000       0.538324        14.6485 
  79   0.0000       0.546710        14.8767 
  80   0.0000       0.551528        15.0078 
  81   0.0000       0.556715        15.1490 
  82   0.0000       0.559159        15.2155 
  83   0.0000       0.615880        16.7590 
  84   0.0000       0.621920        16.9233 
  85   0.0000       0.622270        16.9328 
  86   0.0000       0.623113        16.9558 
  87   0.0000       0.623888        16.9769 
  88   0.0000       0.626178        17.0392 
  89   0.0000       0.657530        17.8923 
  90   0.0000       0.657533        17.8924 
  91   0.0000       0.669115        18.2075 
  92   0.0000       0.691549        18.8180 
  93   0.0000       0.700903        19.0725 
  94   0.0000       0.715099        19.4588 
  95   0.0000       0.725225        19.7344 
  96   0.0000       0.727744        19.8029 
  97   0.0000       0.727965        19.8089 
  98   0.0000       0.732697        19.9377 
  99   0.0000       0.784362        21.3436 
 100   0.0000       0.784370        21.3438 
 101   0.0000       0.817883        22.2557 
 102   0.0000       0.817885        22.2558 
 103   0.0000       0.827450        22.5161 
 104   0.0000       0.867494        23.6057 
 105   0.0000       0.867494        23.6057 
 106   0.0000       0.881254        23.9801 
 107   0.0000       0.881359        23.9830 
 108   0.0000       0.912230        24.8230 
 109   0.0000       0.926030        25.1985 
 110   0.0000       0.949760        25.8443 
 111   0.0000       0.967183        26.3184 
 112   0.0000       0.977199        26.5909 
 113   0.0000       0.981411        26.7056 
 114   0.0000       1.024018        27.8649 
 115   0.0000       1.177825        32.0503 
 116   0.0000       1.180812        32.1315 
 117   0.0000       1.203222        32.7413 
 118   0.0000       1.210563        32.9411 
 119   0.0000       1.221773        33.2461 
 120   0.0000       1.345769        36.6202 
 121   0.0000       1.345847        36.6224 
 122   0.0000       1.391721        37.8707 
 123   0.0000       1.392072        37.8802 
 124   0.0000       1.460017        39.7291 
 125   0.0000       1.465715        39.8841 
 126   0.0000       1.472161        40.0595 
 127   0.0000       1.472615        40.0719 
 128   0.0000       1.480889        40.2970 
 129   0.0000       1.486733        40.4561 
 130   0.0000       1.508459        41.0473 
 131   0.0000       1.567237        42.6467 
 132   0.0000       1.712661        46.6039 
 133   0.0000       1.724443        46.9245 
 134   0.0000       1.727105        46.9969 
 135   0.0000       1.731158        47.1072 
 136   0.0000       1.735473        47.2246 
 137   0.0000       1.930119        52.5212 
 138   0.0000       1.952737        53.1367 
 139   0.0000       1.953201        53.1493 
 140   0.0000       1.999905        54.4202 
 141   0.0000       2.076867        56.5144 
 142   0.0000       2.078814        56.5674 
 143   0.0000       2.454767        66.7976 
 144   0.0000       2.476103        67.3782 
 145   0.0000       2.557505        69.5932 
 146   0.0000       2.822832        76.8132 
 147   0.0000       2.845591        77.4325 
 148   0.0000       2.857190        77.7481 
 149   0.0000       2.857361        77.7528 
 150   0.0000       2.862864        77.9025 
 151   0.0000       2.979277        81.0703 
 152   0.0000       2.997578        81.5682 
 153   0.0000       2.998413        81.5910 
 154   0.0000       3.122901        84.9785 
 155   0.0000       3.122914        84.9788 
 156   0.0000       3.164575        86.1125 
 157   0.0000       3.164618        86.1136 
 158   0.0000       3.174720        86.3885 
 159   0.0000       3.200993        87.1035 
 160   0.0000       3.316478        90.2460 
 161   0.0000       3.499906        95.2373 
 162   0.0000       3.500102        95.2426 
 163   0.0000       3.562891        96.9512 
 164   0.0000       3.578418        97.3737 
 165   0.0000       3.585135        97.5565 
 166   0.0000       3.595176        97.8297 
 167   0.0000       3.597556        97.8945 
 168   0.0000       3.739828       101.7659 
 169   0.0000       3.740006       101.7707 
 170   0.0000       3.748660       102.0062 
 171   0.0000       3.773105       102.6714 
 172   0.0000       3.866634       105.2165 
 173   0.0000       3.889505       105.8388 
 174   0.0000       3.914732       106.5253 
 175   0.0000       3.974314       108.1466 
 176   0.0000       4.446994       121.0089 
 177   0.0000       4.447657       121.0269 
 178   0.0000       4.491527       122.2207 
 179   0.0000       4.518781       122.9623 
 180   0.0000       4.576751       124.5397 
 181   0.0000       4.806072       130.7799 
 182   0.0000       4.808550       130.8473 
 183   0.0000       4.916504       133.7849 
 184   0.0000       4.954525       134.8195 
 185   0.0000       4.954550       134.8201 
 186   0.0000       5.275411       143.5512 
 187   0.0000       5.275440       143.5520 
 188   0.0000       5.481577       149.1613 
 189   0.0000       5.512894       150.0135 
 190   0.0000       6.102214       166.0497 
 191   0.0000       6.104154       166.1025 
 192   0.0000       6.224750       169.3841 
 193   0.0000       6.616579       180.0463 
 194   0.0000       6.655469       181.1045 
 195   0.0000       6.725636       183.0139 
 196   0.0000       6.781954       184.5464 
 197   0.0000       6.785898       184.6537 
 198   0.0000       6.954015       189.2284 
 199   0.0000       7.117823       193.6858 
 200   0.0000       7.142584       194.3596 
 201   0.0000       7.309104       198.8908 
 202   0.0000       7.309464       198.9006 
 203   0.0000       7.777861       211.6464 
 204   0.0000       7.867524       214.0862 
 205   0.0000       7.895974       214.8604 
 206   0.0000       7.927724       215.7243 
 207   0.0000       8.832382       240.3413 
 208   0.0000       9.049262       246.2429 
 209   0.0000       9.098008       247.5694 
 210   0.0000       9.106199       247.7923 
 211   0.0000       9.106575       247.8025 
 212   0.0000       9.182622       249.8718 
 213   0.0000       9.182646       249.8725 
 214   0.0000       9.200844       250.3677 
 215   0.0000       9.200845       250.3677 
 216   0.0000       9.296998       252.9842 
 217   0.0000       9.303627       253.1645 
 218   0.0000       9.304425       253.1863 
 219   0.0000       9.319645       253.6004 
 220   0.0000       9.432513       256.6717 
 221   0.0000       9.432528       256.6721 
 222   0.0000       9.672316       263.1971 
 223   0.0000      10.021559       272.7005 
 224   0.0000      10.021560       272.7005 
 225   0.0000      10.080412       274.3019 
 226   0.0000      10.098037       274.7816 
 227   0.0000      10.098040       274.7816 
 228   0.0000      10.100002       274.8350 
 229   0.0000      10.119088       275.3544 
 230   0.0000      10.157833       276.4087 
 231   0.0000      10.157835       276.4087 
 232   0.0000      10.532731       286.6102 
 233   0.0000      10.547023       286.9991 
 234   0.0000      10.705524       291.3121 
 235   0.0000      10.706456       291.3375 
 236   0.0000      10.827527       294.6320 
 237   0.0000      11.107716       302.2563 
 238   0.0000      11.107719       302.2564 
 239   0.0000      11.286405       307.1187 
 240   0.0000      11.290258       307.2235 
 241   0.0000      11.342189       308.6366 
 242   0.0000      11.342199       308.6369 
 243   0.0000      11.355180       308.9901 
 244   0.0000      11.410675       310.5002 
 245   0.0000      11.410687       310.5006 
 246   0.0000      11.627159       316.3911 
 247   0.0000      11.661662       317.3299 
 248   0.0000      12.022305       327.1436 
 249   0.0000      12.022341       327.1445 
 250   0.0000      12.164156       331.0035 
 251   0.0000      12.192497       331.7747 
 252   0.0000      12.566062       341.9399 
 253   0.0000      13.453984       366.1015 
 254   0.0000      13.497809       367.2940 
 255   0.0000      13.498031       367.3001 
 256   0.0000      14.198534       386.3617 
 257   0.0000      14.198619       386.3641 
 258   0.0000      14.409595       392.1050 
 259   0.0000      14.409598       392.1051 
 260   0.0000      15.080736       410.3677 
 261   0.0000      15.081674       410.3932 
 262   0.0000      15.257078       415.1662 
 263   0.0000      15.297108       416.2555 
 264   0.0000      15.693796       427.0499 
 265   0.0000      15.860057       431.5741 
 266   0.0000      15.888900       432.3589 
 267   0.0000      15.925869       433.3649 
 268   0.0000      16.759881       456.0595 
 269   0.0000      16.760136       456.0665 
 270   0.0000      17.504829       476.3306 
 271   0.0000      17.544459       477.4090 
 272   0.0000      18.462797       502.3983 
 273   0.0000      19.267297       524.2898 
 274   0.0000      20.132244       547.8262 
 275   0.0000      20.132344       547.8289 
 276   0.0000      20.508130       558.0546 
 277   0.0000      20.519080       558.3526 
 278   0.0000      21.889466       595.6427 
 279   0.0000      22.993242       625.6779 
 280   0.0000      25.968375       706.6354 
 281   0.0000      26.007354       707.6961 
 282   0.0000      27.567160       750.1406 
 283   0.0000      47.578666      1294.6813 
 284   0.0000      47.578823      1294.6856 
 285   0.0000      47.872246      1302.6700 
 286   0.0000      47.900396      1303.4360 
 287   0.0000      48.529573      1320.5568 
 288   0.0000      78.098333      2125.1637 
 289   0.0000     103.075844      2804.8363 

                 SPIN DOWN ORBITALS
  NO   OCC          E(Eh)            E(eV) 
   0   1.0000     -14.021010      -381.5311 
   1   1.0000      -6.586208      -179.2198 
   2   1.0000      -0.719280       -19.5726 
   3   1.0000      -0.318562        -8.6685 
   4   1.0000      -0.269589        -7.3359 
   5   0.0000      -0.244672        -6.6579 
   6   0.0000      -0.174137        -4.7385 
   7   0.0000      -0.052317        -1.4236 
   8   0.0000      -0.016252        -0.4422 
   9   0.0000      -0.015321        -0.4169 
  10   0.0000      -0.010206        -0.2777 
  11   0.0000       0.006561         0.1785 
  12   0.0000       0.006806         0.1852 
  13   0.0000       0.041766         1.1365 
  14   0.0000       0.050491         1.3739 
  15   0.0000       0.054252         1.4763 
  16   0.0000       0.065308         1.7771 
  17   0.0000       0.066227         1.8021 
  18   0.0000       0.066247         1.8027 
  19   0.0000       0.067848         1.8462 
  20   0.0000       0.071692         1.9508 
  21   0.0000       0.095944         2.6108 
  22   0.0000       0.123385         3.3575 
  23   0.0000       0.127247         3.4626 
  24   0.0000       0.136174         3.7055 
  25   0.0000       0.144035         3.9194 
  26   0.0000       0.144682         3.9370 
  27   0.0000       0.148786         4.0487 
  28   0.0000       0.149493         4.0679 
  29   0.0000       0.151538         4.1235 
  30   0.0000       0.154274         4.1980 
  31   0.0000       0.155209         4.2234 
  32   0.0000       0.187756         5.1091 
  33   0.0000       0.189454         5.1553 
  34   0.0000       0.189526         5.1573 
  35   0.0000       0.192059         5.2262 
  36   0.0000       0.194220         5.2850 
  37   0.0000       0.210304         5.7227 
  38   0.0000       0.241180         6.5628 
  39   0.0000       0.243999         6.6395 
  40   0.0000       0.245627         6.6838 
  41   0.0000       0.250864         6.8264 
  42   0.0000       0.251802         6.8519 
  43   0.0000       0.255852         6.9621 
  44   0.0000       0.256073         6.9681 
  45   0.0000       0.258209         7.0262 
  46   0.0000       0.258731         7.0404 
  47   0.0000       0.259363         7.0576 
  48   0.0000       0.261625         7.1192 
  49   0.0000       0.266811         7.2603 
  50   0.0000       0.319297         8.6885 
  51   0.0000       0.320273         8.7151 
  52   0.0000       0.323325         8.7981 
  53   0.0000       0.324660         8.8345 
  54   0.0000       0.327545         8.9130 
  55   0.0000       0.360983         9.8228 
  56   0.0000       0.365878         9.9560 
  57   0.0000       0.368223        10.0199 
  58   0.0000       0.392061        10.6685 
  59   0.0000       0.392171        10.6715 
  60   0.0000       0.393189        10.6992 
  61   0.0000       0.393407        10.7051 
  62   0.0000       0.394883        10.7453 
  63   0.0000       0.395696        10.7674 
  64   0.0000       0.396617        10.7925 
  65   0.0000       0.396952        10.8016 
  66   0.0000       0.420544        11.4436 
  67   0.0000       0.424158        11.5419 
  68   0.0000       0.425564        11.5802 
  69   0.0000       0.431049        11.7294 
  70   0.0000       0.431210        11.7338 
  71   0.0000       0.434044        11.8109 
  72   0.0000       0.434409        11.8209 
  73   0.0000       0.451336        12.2815 
  74   0.0000       0.489700        13.3254 
  75   0.0000       0.495449        13.4819 
  76   0.0000       0.504680        13.7330 
  77   0.0000       0.522985        14.2312 
  78   0.0000       0.571109        15.5407 
  79   0.0000       0.573033        15.5930 
  80   0.0000       0.573928        15.6174 
  81   0.0000       0.577129        15.7045 
  82   0.0000       0.579593        15.7715 
  83   0.0000       0.634217        17.2579 
  84   0.0000       0.634601        17.2684 
  85   0.0000       0.636408        17.3175 
  86   0.0000       0.640818        17.4375 
  87   0.0000       0.642373        17.4799 
  88   0.0000       0.643365        17.5068 
  89   0.0000       0.668269        18.1845 
  90   0.0000       0.668893        18.2015 
  91   0.0000       0.689009        18.7489 
  92   0.0000       0.711334        19.3564 
  93   0.0000       0.717350        19.5201 
  94   0.0000       0.747535        20.3415 
  95   0.0000       0.750042        20.4097 
  96   0.0000       0.752589        20.4790 
  97   0.0000       0.756323        20.5806 
  98   0.0000       0.764360        20.7993 
  99   0.0000       0.796754        21.6808 
 100   0.0000       0.797788        21.7089 
 101   0.0000       0.828509        22.5449 
 102   0.0000       0.828890        22.5553 
 103   0.0000       0.863557        23.4986 
 104   0.0000       0.878238        23.8981 
 105   0.0000       0.878569        23.9071 
 106   0.0000       0.895967        24.3805 
 107   0.0000       0.898222        24.4419 
 108   0.0000       0.935171        25.4473 
 109   0.0000       0.943316        25.6689 
 110   0.0000       0.970757        26.4156 
 111   0.0000       0.994400        27.0590 
 112   0.0000       0.996304        27.1108 
 113   0.0000       1.001429        27.2503 
 114   0.0000       1.041308        28.3354 
 115   0.0000       1.210317        32.9344 
 116   0.0000       1.214722        33.0543 
 117   0.0000       1.243536        33.8383 
 118   0.0000       1.253943        34.1215 
 119   0.0000       1.263911        34.3928 
 120   0.0000       1.385419        37.6992 
 121   0.0000       1.386195        37.7203 
 122   0.0000       1.438523        39.1442 
 123   0.0000       1.443472        39.2789 
 124   0.0000       1.516401        41.2634 
 125   0.0000       1.526582        41.5404 
 126   0.0000       1.526759        41.5452 
 127   0.0000       1.527036        41.5528 
 128   0.0000       1.530698        41.6524 
 129   0.0000       1.536280        41.8043 
 130   0.0000       1.540472        41.9184 
 131   0.0000       1.592251        43.3273 
 132   0.0000       1.766369        48.0653 
 133   0.0000       1.766924        48.0805 
 134   0.0000       1.778635        48.3991 
 135   0.0000       1.792269        48.7701 
 136   0.0000       1.794231        48.8235 
 137   0.0000       1.975945        53.7682 
 138   0.0000       1.977040        53.7980 
 139   0.0000       1.988849        54.1193 
 140   0.0000       2.053284        55.8727 
 141   0.0000       2.107266        57.3416 
 142   0.0000       2.110793        57.4376 
 143   0.0000       2.494940        67.8908 
 144   0.0000       2.503407        68.1212 
 145   0.0000       2.594260        70.5934 
 146   0.0000       2.882468        78.4359 
 147   0.0000       2.894415        78.7610 
 148   0.0000       2.900400        78.9239 
 149   0.0000       2.905741        79.0692 
 150   0.0000       2.929960        79.7283 
 151   0.0000       3.023588        82.2760 
 152   0.0000       3.047732        82.9330 
 153   0.0000       3.054314        83.1121 
 154   0.0000       3.182820        86.6089 
 155   0.0000       3.183327        86.6227 
 156   0.0000       3.231222        87.9260 
 157   0.0000       3.232519        87.9613 
 158   0.0000       3.237939        88.1088 
 159   0.0000       3.251199        88.4696 
 160   0.0000       3.375538        91.8531 
 161   0.0000       3.566368        97.0458 
 162   0.0000       3.571656        97.1897 
 163   0.0000       3.621999        98.5596 
 164   0.0000       3.636414        98.9519 
 165   0.0000       3.646665        99.2308 
 166   0.0000       3.666245        99.7636 
 167   0.0000       3.668905        99.8360 
 168   0.0000       3.804666       103.5302 
 169   0.0000       3.821606       103.9912 
 170   0.0000       3.847612       104.6988 
 171   0.0000       3.854265       104.8799 
 172   0.0000       3.919311       106.6499 
 173   0.0000       3.997159       108.7682 
 174   0.0000       4.018304       109.3436 
 175   0.0000       4.074502       110.8728 
 176   0.0000       4.503556       122.5480 
 177   0.0000       4.505495       122.6008 
 178   0.0000       4.566253       124.2541 
 179   0.0000       4.583572       124.7253 
 180   0.0000       4.655343       126.6783 
 181   0.0000       4.850638       131.9926 
 182   0.0000       4.856069       132.1404 
 183   0.0000       4.955913       134.8573 
 184   0.0000       5.009470       136.3146 
 185   0.0000       5.010123       136.3324 
 186   0.0000       5.322049       144.8203 
 187   0.0000       5.323093       144.8487 
 188   0.0000       5.537043       150.6706 
 189   0.0000       5.550653       151.0410 
 190   0.0000       6.146837       167.2639 
 191   0.0000       6.152231       167.4107 
 192   0.0000       6.271969       170.6689 
 193   0.0000       6.671247       181.5338 
 194   0.0000       6.687739       181.9826 
 195   0.0000       6.777578       184.4273 
 196   0.0000       6.843684       186.2261 
 197   0.0000       6.858780       186.6369 
 198   0.0000       7.005140       190.6195 
 199   0.0000       7.177472       195.3090 
 200   0.0000       7.190260       195.6569 
 201   0.0000       7.341468       199.7715 
 202   0.0000       7.343024       199.8138 
 203   0.0000       7.833685       213.1654 
 204   0.0000       7.925092       215.6527 
 205   0.0000       7.938099       216.0066 
 206   0.0000       7.974251       216.9904 
 207   0.0000       8.890211       241.9149 
 208   0.0000       9.117268       248.0935 
 209   0.0000       9.142628       248.7836 
 210   0.0000       9.143179       248.7986 
 211   0.0000       9.146395       248.8860 
 212   0.0000       9.240006       251.4333 
 213   0.0000       9.240816       251.4554 
 214   0.0000       9.262139       252.0356 
 215   0.0000       9.262575       252.0475 
 216   0.0000       9.351242       254.4602 
 217   0.0000       9.351672       254.4719 
 218   0.0000       9.358291       254.6521 
 219   0.0000       9.367287       254.8968 
 220   0.0000       9.528124       259.2734 
 221   0.0000       9.529444       259.3093 
 222   0.0000       9.732439       264.8331 
 223   0.0000      10.121070       275.4083 
 224   0.0000      10.123411       275.4720 
 225   0.0000      10.171238       276.7735 
 226   0.0000      10.183819       277.1158 
 227   0.0000      10.184907       277.1454 
 228   0.0000      10.211931       277.8808 
 229   0.0000      10.224083       278.2114 
 230   0.0000      10.227783       278.3121 
 231   0.0000      10.228143       278.3219 
 232   0.0000      10.579746       287.8895 
 233   0.0000      10.591359       288.2055 
 234   0.0000      10.806691       294.0650 
 235   0.0000      10.811759       294.2029 
 236   0.0000      10.878662       296.0234 
 237   0.0000      11.185812       304.3814 
 238   0.0000      11.190012       304.4957 
 239   0.0000      11.343478       308.6717 
 240   0.0000      11.349034       308.8229 
 241   0.0000      11.411759       310.5297 
 242   0.0000      11.412291       310.5442 
 243   0.0000      11.427657       310.9624 
 244   0.0000      11.469427       312.0990 
 245   0.0000      11.470109       312.1175 
 246   0.0000      11.684133       317.9414 
 247   0.0000      11.702399       318.4385 
 248   0.0000      12.084175       328.8271 
 249   0.0000      12.086012       328.8771 
 250   0.0000      12.248065       333.2868 
 251   0.0000      12.268550       333.8442 
 252   0.0000      12.626458       343.5834 
 253   0.0000      13.517737       367.8363 
 254   0.0000      13.558766       368.9528 
 255   0.0000      13.566483       369.1628 
 256   0.0000      14.280097       388.5812 
 257   0.0000      14.281942       388.6314 
 258   0.0000      14.472105       393.8060 
 259   0.0000      14.474016       393.8580 
 260   0.0000      15.131679       411.7539 
 261   0.0000      15.139228       411.9593 
 262   0.0000      15.322968       416.9592 
 263   0.0000      15.346546       417.6007 
 264   0.0000      15.742698       428.3806 
 265   0.0000      15.903546       432.7575 
 266   0.0000      15.947463       433.9525 
 267   0.0000      15.966808       434.4789 
 268   0.0000      16.821232       457.7290 
 269   0.0000      16.828438       457.9251 
 270   0.0000      17.559270       477.8120 
 271   0.0000      17.583491       478.4711 
 272   0.0000      18.501357       503.4475 
 273   0.0000      19.310091       525.4543 
 274   0.0000      20.163510       548.6770 
 275   0.0000      20.164194       548.6956 
 276   0.0000      20.553987       559.3024 
 277   0.0000      20.558912       559.4364 
 278   0.0000      21.928945       596.7169 
 279   0.0000      23.039750       626.9435 
 280   0.0000      26.020109       708.0432 
 281   0.0000      26.050311       708.8650 
 282   0.0000      27.599231       751.0133 
 283   0.0000      47.625151      1295.9462 
 284   0.0000      47.631111      1296.1084 
 285   0.0000      47.912784      1303.7731 
 286   0.0000      47.930078      1304.2437 
 287   0.0000      48.562476      1321.4522 
 288   0.0000      78.120845      2125.7763 
 289   0.0000     103.094139      2805.3341 

                    ********************************
                    * MULLIKEN POPULATION ANALYSIS *
                    ********************************

--------------------------------------------
MULLIKEN ATOMIC CHARGES AND SPIN POPULATIONS
--------------------------------------------
   0 B :    0.104734    1.172776
   1 N :   -0.104734    0.827224
Sum of atomic charges         :   -0.0000000
Sum of atomic spin populations:    2.0000000

-----------------------------------------------------
MULLIKEN REDUCED ORBITAL CHARGES AND SPIN POPULATIONS
-----------------------------------------------------
CHARGE
  0 B s       :     3.262802  s :     3.262802
      pz      :     0.641135  p :     1.550605
      px      :     0.284440
      py      :     0.625031
      dz2     :     0.016008  d :     0.071314
      dxz     :     0.017033
      dyz     :     0.038137
      dx2y2   :     0.000136
      dxy     :     0.000000
      f0      :     0.003084  f :     0.009251
      f+1     :     0.002141
      f-1     :     0.003983
      f+2     :     0.000016
      f-2     :     0.000000
      f+3     :     0.000011
      f-3     :     0.000016
      g0      :     0.000489  g :     0.001260
      g+1     :     0.000260
      g-1     :     0.000504
      g+2     :     0.000003
      g-2     :     0.000000
      g+3     :     0.000002
      g-3     :     0.000002
      g+4     :     0.000000
      g-4     :     0.000000
      h0      :     0.000026  h :     0.000033
      h+1     :     0.000001
      h-1     :     0.000006
      h+2     :    -0.000000
      h-2     :    -0.000000
      h+3     :    -0.000000
      h-3     :    -0.000000
      h+4     :     0.000000
      h-4     :     0.000000
      h+5     :    -0.000000
      h-5     :     0.000000
  1 N s       :     3.820204  s :     3.820204
      pz      :     1.241736  p :     3.263827
      px      :     0.693518
      py      :     1.328573
      dz2     :     0.012470  d :     0.019699
      dxz     :     0.002969
      dyz     :     0.003891
      dx2y2   :     0.000369
      dxy     :     0.000000
      f0      :     0.001295  f :     0.000984
      f+1     :    -0.000369
      f-1     :    -0.000143
      f+2     :     0.000054
      f-2     :     0.000000
      f+3     :     0.000068
      f-3     :     0.000080
      g0      :     0.000139  g :     0.000013
      g+1     :    -0.000064
      g-1     :    -0.000069
      g+2     :     0.000003
      g-2     :     0.000000
      g+3     :     0.000001
      g-3     :     0.000002
      g+4     :     0.000001
      g-4     :     0.000000
      h0      :     0.000032  h :     0.000007
      h+1     :    -0.000011
      h-1     :    -0.000014
      h+2     :     0.000000
      h-2     :     0.000000
      h+3     :    -0.000000
      h-3     :    -0.000000
      h+4     :     0.000000
      h-4     :     0.000000
      h+5     :     0.000000
      h-5     :     0.000000

SPIN
  0 B s       :     0.403664  s :     0.403664
      pz      :     0.430202  p :     0.757307
      px      :     0.284440
      py      :     0.042665
      dz2     :     0.002528  d :     0.008927
      dxz     :     0.017033
      dyz     :    -0.010715
      dx2y2   :     0.000080
      dxy     :     0.000000
      f0      :     0.000319  f :     0.002515
      f+1     :     0.002141
      f-1     :     0.000019
      f+2     :     0.000015
      f-2     :     0.000000
      f+3     :     0.000011
      f-3     :     0.000011
      g0      :     0.000047  g :     0.000361
      g+1     :     0.000260
      g-1     :     0.000047
      g+2     :     0.000003
      g-2     :     0.000000
      g+3     :     0.000002
      g-3     :     0.000002
      g+4     :    -0.000000
      g-4     :    -0.000000
      h0      :     0.000003  h :     0.000001
      h+1     :     0.000001
      h-1     :    -0.000003
      h+2     :    -0.000000
      h-2     :    -0.000000
      h+3     :    -0.000000
      h-3     :    -0.000000
      h+4     :    -0.000000
      h-4     :    -0.000000
      h+5     :    -0.000000
      h-5     :    -0.000000
  1 N s       :     0.031833  s :     0.031833
      pz      :     0.118772  p :     0.779358
      px      :     0.693518
      py      :    -0.032933
      dz2     :     0.011202  d :     0.015237
      dxz     :     0.002969
      dyz     :     0.000827
      dx2y2   :     0.000238
      dxy     :     0.000000
      f0      :     0.000920  f :     0.000756
      f+1     :    -0.000369
      f-1     :     0.000030
      f+2     :     0.000040
      f-2     :     0.000000
      f+3     :     0.000068
      f-3     :     0.000067
      g0      :     0.000104  g :     0.000023
      g+1     :    -0.000064
      g-1     :    -0.000019
      g+2     :     0.000000
      g-2     :     0.000000
      g+3     :     0.000001
      g-3     :     0.000001
      g+4     :    -0.000001
      g-4     :    -0.000000
      h0      :     0.000028  h :     0.000017
      h+1     :    -0.000011
      h-1     :     0.000000
      h+2     :    -0.000000
      h-2     :    -0.000000
      h+3     :    -0.000000
      h-3     :    -0.000000
      h+4     :    -0.000000
      h-4     :    -0.000000
      h+5     :     0.000000
      h-5     :    -0.000000


                     *******************************
                     * LOEWDIN POPULATION ANALYSIS *
                     *******************************

-------------------------------------------
LOEWDIN ATOMIC CHARGES AND SPIN POPULATIONS
-------------------------------------------
   0 B :    0.005193    1.050028
   1 N :   -0.005193    0.949972

----------------------------------------------------
LOEWDIN REDUCED ORBITAL CHARGES AND SPIN POPULATIONS
----------------------------------------------------
CHARGE
  0 B s       :     2.765927  s :     2.765927
      pz      :     0.868876  p :     1.672266
      px      :     0.249935
      py      :     0.553454
      dz2     :     0.225409  d :     0.400603
      dxz     :     0.059111
      dyz     :     0.115960
      dx2y2   :     0.000123
      dxy     :     0.000000
      f0      :     0.052666  f :     0.123361
      f+1     :     0.025670
      f-1     :     0.044963
      f+2     :     0.000031
      f-2     :     0.000000
      f+3     :     0.000012
      f-3     :     0.000019
      g0      :     0.009277  g :     0.030418
      g+1     :     0.007657
      g-1     :     0.013467
      g+2     :     0.000011
      g-2     :     0.000000
      g+3     :     0.000003
      g-3     :     0.000003
      g+4     :     0.000000
      g-4     :     0.000000
      h0      :     0.000966  h :     0.002233
      h+1     :     0.000438
      h-1     :     0.000827
      h+2     :     0.000001
      h-2     :     0.000000
      h+3     :     0.000000
      h-3     :     0.000000
      h+4     :     0.000000
      h-4     :     0.000000
      h+5     :     0.000000
      h-5     :     0.000000
  1 N s       :     3.319857  s :     3.319857
      pz      :     1.593359  p :     3.442788
      px      :     0.632817
      py      :     1.216611
      dz2     :     0.113351  d :     0.161482
      dxz     :     0.014764
      dyz     :     0.033024
      dx2y2   :     0.000343
      dxy     :     0.000000
      f0      :     0.037130  f :     0.059166
      f+1     :     0.006552
      f-1     :     0.015281
      f+2     :     0.000064
      f-2     :     0.000000
      f+3     :     0.000065
      f-3     :     0.000076
      g0      :     0.010107  g :     0.017674
      g+1     :     0.002414
      g-1     :     0.005141
      g+2     :     0.000007
      g-2     :     0.000000
      g+3     :     0.000002
      g-3     :     0.000002
      g+4     :     0.000001
      g-4     :     0.000000
      h0      :     0.002493  h :     0.004226
      h+1     :     0.000559
      h-1     :     0.001172
      h+2     :     0.000002
      h-2     :     0.000000
      h+3     :     0.000000
      h-3     :     0.000000
      h+4     :     0.000000
      h-4     :     0.000000
      h+5     :     0.000000
      h-5     :     0.000000

SPIN
  0 B s       :     0.308744  s :     0.308744
      pz      :     0.377169  p :     0.656603
      px      :     0.249935
      py      :     0.029500
      dz2     :     0.002725  d :     0.049382
      dxz     :     0.059111
      dyz     :    -0.012525
      dx2y2   :     0.000071
      dxy     :     0.000000
      f0      :     0.001889  f :     0.026982
      f+1     :     0.025670
      f-1     :    -0.000625
      f+2     :     0.000023
      f-2     :     0.000000
      f+3     :     0.000012
      f-3     :     0.000013
      g0      :     0.000357  g :     0.007864
      g+1     :     0.007657
      g-1     :    -0.000164
      g+2     :     0.000008
      g-2     :     0.000000
      g+3     :     0.000003
      g-3     :     0.000003
      g+4     :    -0.000000
      g-4     :    -0.000000
      h0      :     0.000026  h :     0.000453
      h+1     :     0.000438
      h-1     :    -0.000013
      h+2     :     0.000001
      h-2     :     0.000000
      h+3     :     0.000000
      h-3     :     0.000000
      h+4     :    -0.000000
      h-4     :    -0.000000
      h+5     :     0.000000
      h-5     :    -0.000000
  1 N s       :     0.075048  s :     0.075048
      pz      :     0.139565  p :     0.749040
      px      :     0.632817
      py      :    -0.023342
      dz2     :     0.066447  d :     0.085489
      dxz     :     0.014764
      dyz     :     0.004057
      dx2y2   :     0.000221
      dxy     :     0.000000
      f0      :     0.019967  f :     0.028637
      f+1     :     0.006552
      f-1     :     0.001942
      f+2     :     0.000048
      f-2     :     0.000000
      f+3     :     0.000065
      f-3     :     0.000063
      g0      :     0.006155  g :     0.009397
      g+1     :     0.002414
      g-1     :     0.000822
      g+2     :     0.000003
      g-2     :     0.000000
      g+3     :     0.000002
      g-3     :     0.000002
      g+4     :    -0.000001
      g-4     :    -0.000000
      h0      :     0.001534  h :     0.002360
      h+1     :     0.000559
      h-1     :     0.000267
      h+2     :     0.000001
      h-2     :     0.000000
      h+3     :     0.000000
      h-3     :     0.000000
      h+4     :    -0.000000
      h-4     :    -0.000000
      h+5     :     0.000000
      h-5     :    -0.000000


                      *****************************
                      * MAYER POPULATION ANALYSIS *
                      *****************************

  NA   - Mulliken gross atomic population
  ZA   - Total nuclear charge
  QA   - Mulliken gross atomic charge
  VA   - Mayer's total valence
  BVA  - Mayer's bonded valence
  FA   - Mayer's free valence

  ATOM       NA         ZA         QA         VA         BVA        FA
  0 B      4.8953     5.0000     0.1047     3.0677     2.2250     0.8427
  1 N      7.1047     7.0000    -0.1047     2.7303     2.2250     0.5053

  Mayer bond orders larger than 0.1
B(  0-B ,  1-N ) :   2.2250 

-------
TIMINGS
-------

Total SCF time: 0 days 0 hours 6 min 37 sec 

Total time                  ....     397.263 sec
Sum of individual times     ....     395.671 sec  ( 99.6%)

Fock matrix formation       ....     393.520 sec  ( 99.1%)
  XC integration            ....       8.821 sec  (  2.2% of F)
    Basis function eval.    ....       0.607 sec  (  6.9% of XC)
    Density eval.           ....       1.590 sec  ( 18.0% of XC)
    XC-Functional eval.     ....       0.141 sec  (  1.6% of XC)
    XC-Potential eval.      ....       5.847 sec  ( 66.3% of XC)
Diagonalization             ....       0.906 sec  (  0.2%)
Density matrix formation    ....       0.018 sec  (  0.0%)
Population analysis         ....       0.069 sec  (  0.0%)
Initial guess               ....       0.405 sec  (  0.1%)
Orbital Transformation      ....       0.000 sec  (  0.0%)
Orbital Orthonormalization  ....       0.000 sec  (  0.0%)
DIIS solution               ....       0.505 sec  (  0.1%)
Grid generation             ....       0.246 sec  (  0.1%)

-------------------------   --------------------
FINAL SINGLE POINT ENERGY       -79.352675109772
-------------------------   --------------------


                            ***************************************
                            *     ORCA property calculations      *
                            ***************************************

                                    ---------------------
                                    Active property flags
                                    ---------------------
   (+) Dipole Moment


------------------------------------------------------------------------------
                       ORCA ELECTRIC PROPERTIES CALCULATION
------------------------------------------------------------------------------

Dipole Moment Calculation                       ... on
Quadrupole Moment Calculation                   ... off
Polarizability Calculation                      ... off
GBWName                                         ... bn_pbe_-001_z.gbw
Electron density file                           ... bn_pbe_-001_z.scfp.tmp
The origin for moment calculation is the CENTER OF MASS  = ( 0.000000,  0.000000  1.413223)

-------------
DIPOLE MOMENT
-------------
                                X             Y             Z
Electronic contribution:      0.00000       0.00000      -1.60816
Nuclear contribution   :      0.00000       0.00000       0.56854
                        -----------------------------------------
Total Dipole Moment    :      0.00000       0.00000      -1.03962
                        -----------------------------------------
Magnitude (a.u.)       :      1.03962
Magnitude (Debye)      :      2.64251



--------------------
Rotational spectrum 
--------------------
 
Rotational constants in cm-1:     0.000000     1.573778     1.573778 
Rotational constants in MHz :     0.000000 47180.691902 47180.691902 

 Dipole components along the rotational axes: 
x,y,z [a.u.] :    -1.039624     0.000000     0.000000 
x,y,z [Debye]:    -2.642514     0.000000     0.000000 

 

Timings for individual modules:

Sum of individual times         ...      398.930 sec (=   6.649 min)
GTO integral calculation        ...        1.348 sec (=   0.022 min)   0.3 %
SCF iterations                  ...      397.582 sec (=   6.626 min)  99.7 %
                             ****ORCA TERMINATED NORMALLY****
TOTAL RUN TIME: 0 days 0 hours 6 minutes 39 seconds 871 msec
