
                                 *****************
                                 * O   R   C   A *
                                 *****************

           --- An Ab Initio, DFT and Semiempirical electronic structure package ---

                  #######################################################
                  #                        -***-                        #
                  #          Department of theory and spectroscopy      #
                  #               Directorship: Frank Neese             #
                  #        Max Planck Institute fuer Kohlenforschung    #
                  #                Kaiser Wilhelm Platz 1               #
                  #                 D-45470 Muelheim/Ruhr               #
                  #                      Germany                        #
                  #                                                     #
                  #                  All rights reserved                #
                  #                        -***-                        #
                  #######################################################


                         Program Version 4.1.1  - RELEASE  -


 With contributions from (in alphabetic order):
   Daniel Aravena         : Magnetic Properties
   Michael Atanasov       : Ab Initio Ligand Field Theory
   Alexander A. Auer      : GIAO ZORA
   Ute Becker             : Parallelization
   Giovanni Bistoni       : ED, Open-shell LED
   Martin Brehm           : Molecular dynamics
   Dmytro Bykov           : SCF Hessian
   Vijay G. Chilkuri      : MRCI spin determinant printing
   Dipayan Datta          : RHF DLPNO-CCSD density
   Achintya Kumar Dutta   : EOM-CC, STEOM-CC
   Dmitry Ganyushin       : Spin-Orbit,Spin-Spin,Magnetic field MRCI
   Miquel Garcia          : C-PCM Hessian
   Yang Guo               : DLPNO-NEVPT2, CIM, IAO-localization
   Andreas Hansen         : Spin unrestricted coupled pair/coupled cluster methods
   Benjamin Helmich-Paris : CASSCF linear response (MC-RPA)
   Lee Huntington         : MR-EOM, pCC
   Robert Izsak           : Overlap fitted RIJCOSX, COSX-SCS-MP3, EOM
   Christian Kollmar      : KDIIS, OOCD, Brueckner-CCSD(T), CCSD density
   Simone Kossmann        : Meta GGA functionals, TD-DFT gradient, OOMP2, MP2 Hessian
   Martin Krupicka        : AUTO-CI
   Lucas Lang             : DCDCAS
   Dagmar Lenk            : GEPOL surface, SMD
   Dimitrios Liakos       : Extrapolation schemes; parallel MDCI
   Dimitrios Manganas     : ROCIS; embedding schemes
   Dimitrios Pantazis     : SARC Basis sets
   Taras Petrenko         : DFT Hessian,TD-DFT gradient, ASA, ECA, R-Raman, ABS, FL, XAS/XES, NRVS
   Peter Pinski           : DLPNO-MP2, DLPNO-MP2 Gradient
   Christoph Reimann      : Effective Core Potentials
   Marius Retegan         : Local ZFS, SOC
   Christoph Riplinger    : Optimizer, TS searches, QM/MM, DLPNO-CCSD(T), (RO)-DLPNO pert. Triples
   Tobias Risthaus        : Range-separated hybrids, TD-DFT gradient, RPA, STAB
   Michael Roemelt        : Restricted open shell CIS
   Masaaki Saitow         : Open-shell DLPNO
   Barbara Sandhoefer     : DKH picture change effects
   Avijit Sen             : IP-ROCIS
   Kantharuban Sivalingam : CASSCF convergence, NEVPT2, FIC-MRCI
   Bernardo de Souza      : ESD, SOC TD-DFT
   Georgi Stoychev        : AutoAux, RI-MP2 NMR
   Willem Van den Heuvel  : Paramagnetic NMR
   Boris Wezisla          : Elementary symmetry handling
   Frank Wennmohs         : Technical directorship


 We gratefully acknowledge several colleagues who have allowed us to
 interface, adapt or use parts of their codes:
   Stefan Grimme, W. Hujo, H. Kruse,             : VdW corrections, initial TS optimization,
                  C. Bannwarth                     DFT functionals, gCP, sTDA/sTD-DF
   Ed Valeev                                     : LibInt (2-el integral package), F12 methods
   Garnet Chan, S. Sharma, J. Yang, R. Olivares  : DMRG
   Ulf Ekstrom                                   : XCFun DFT Library
   Mihaly Kallay                                 : mrcc  (arbitrary order and MRCC methods)
   Andreas Klamt, Michael Diedenhofen            : otool_cosmo (COSMO solvation model)
   Jiri Pittner, Ondrej Demel                    : Mk-CCSD
   Frank Weinhold                                : gennbo (NPA and NBO analysis)
   Christopher J. Cramer and Donald G. Truhlar   : smd solvation model
   Lars Goerigk                                  : TD-DFT with DH, B97 family of functionals
   V. Asgeirsson, H. Jonsson                     : NEB implementation
   FAccTs GmbH                                   : IRC, NEB, NEB-TS, Multilevel


 Your calculation uses the libint2 library for the computation of 2-el integrals
 For citations please refer to: http://libint.valeyev.net

 This ORCA versions uses:
   CBLAS   interface :  Fast vector & matrix operations
   LAPACKE interface :  Fast linear algebra routines
   SCALAPACK package :  Parallel linear algebra routines


----- Orbital basis set information -----
Your calculation utilizes the basis: aug-pc-4
   H, C-F              : F. Jensen, J. Chem. Phys. 115, 9113 (2001).
                         F. Jensen, J. Chem. Phys. 116, 7372 (2002).
                         F. Jensen, J. Chem. Phys. 117, 9234 (2002).
   Si-Cl               : F. Jensen, T. Helgaker, J. Chem. Phys. 121, 3463 (2004).
   He-B, Ne-Mg, Al, Ar : F. Jensen, J. Phys. Chem. A 111, 11198 (2007).
   K, Ca, Ga-Kr        : F. Jensen, J. Chem. Phys. 136, 094110 (2012).
   Sc-Zn               : F. Jensen, J. Chem. Phys. 138, 014107 (2013).

================================================================================
                                        WARNINGS
                       Please study these warnings very carefully!
================================================================================


INFO   : the flag for use of LIBINT has been found!

================================================================================
                                       INPUT FILE
================================================================================
NAME = bn_pbe_+001_x.inp
|  1> ! uks pbe nori aug-pc-4 grid5 nofinalgrid verytightscf
|  2> 
|  3> %maxcore 1500
|  4> 
|  5> %pal nprocs 4 end
|  6> %scf
|  7>     efield 0.01, 0.0, 0.0
|  8>     maxiter 300
|  9> end
| 10> * xyz 0 3
| 11> B      0.0000  0.0000  0.0000
| 12> N      0.0000  0.0000  1.3250
| 13> *
| 14> 
| 15>                          ****END OF INPUT****
================================================================================

                       ****************************
                       * Single Point Calculation *
                       ****************************

---------------------------------
CARTESIAN COORDINATES (ANGSTROEM)
---------------------------------
  B      0.000000    0.000000    0.000000
  N      0.000000    0.000000    1.325000

----------------------------
CARTESIAN COORDINATES (A.U.)
----------------------------
  NO LB      ZA    FRAG     MASS         X           Y           Z
   0 B     5.0000    0    10.810    0.000000    0.000000    0.000000
   1 N     7.0000    0    14.007    0.000000    0.000000    2.503887

--------------------------------
INTERNAL COORDINATES (ANGSTROEM)
--------------------------------
 B      0   0   0     0.000000000000     0.00000000     0.00000000
 N      1   0   0     1.325000000000     0.00000000     0.00000000

---------------------------
INTERNAL COORDINATES (A.U.)
---------------------------
 B      0   0   0     0.000000000000     0.00000000     0.00000000
 N      1   0   0     2.503887127446     0.00000000     0.00000000

---------------------
BASIS SET INFORMATION
---------------------
There are 2 groups of distinct atoms

 Group   1 Type B   : 27s12p7d4f3g2h contracted to 9s8p7d4f3g2h pattern {1191111111/51111111/1111111/1111/111/11}
 Group   2 Type N   : 27s12p7d4f3g2h contracted to 9s8p7d4f3g2h pattern {1191111111/51111111/1111111/1111/111/11}

Atom   0B    basis set group =>   1
Atom   1N    basis set group =>   2


           ************************************************************
           *        Program running with 4 parallel MPI-processes     *
           *              working on a common directory               *
           ************************************************************
------------------------------------------------------------------------------
                           ORCA GTO INTEGRAL CALCULATION
------------------------------------------------------------------------------

                         BASIS SET STATISTICS AND STARTUP INFO

 # of primitive gaussian shells          ...  110
 # of primitive gaussian functions       ...  350
 # of contracted shells                  ...   66
 # of contracted basis functions         ...  290
 Highest angular momentum                ...    5
 Maximum contraction depth               ...   11
 Integral package used                   ... LIBINT
 Integral threshhold            Thresh   ...  1.000e-12
 Primitive cut-off              TCut     ...  1.000e-14


------------------------------ INTEGRAL EVALUATION ----------------------------


 * One electron integrals 
 Pre-screening matrix                    ... done
 Shell pair data                         ... done (   0.001 sec)


An Electric Field will be added: 1.000e-02 0.000e+00 0.000e+00 au

  ... done adding electric field perturbation



           ************************************************************
           *        Program running with 4 parallel MPI-processes     *
           *              working on a common directory               *
           ************************************************************
-------------------------------------------------------------------------------
                                 ORCA SCF
-------------------------------------------------------------------------------

------------
SCF SETTINGS
------------
Hamiltonian:
 Density Functional     Method          .... DFT(GTOs)
 Exchange Functional    Exchange        .... PBE
   PBE kappa parameter   XKappa         ....  0.804000
   PBE mue parameter    XMuePBE         ....  0.219520
 Correlation Functional Correlation     .... PBE
   PBE beta parameter  CBetaPBE         ....  0.066725
 LDA part of GGA corr.  LDAOpt          .... PW91-LDA
 Gradients option       PostSCFGGA      .... off
   Density functional embedding theory  .... OFF
   NL short-range parameter             ....  6.400000


General Settings:
 Integral files         IntName         .... bn_pbe_+001_x
 Hartree-Fock type      HFTyp           .... UHF
 Total Charge           Charge          ....    0
 Multiplicity           Mult            ....    3
 Number of Electrons    NEL             ....   12
 Basis Dimension        Dim             ....  290
 Nuclear Repulsion      ENuc            ....     13.9782658796 Eh

Convergence Acceleration:
 DIIS                   CNVDIIS         .... on
   Start iteration      DIISMaxIt       ....    12
   Startup error        DIISStart       ....  0.200000
   # of expansion vecs  DIISMaxEq       ....     5
   Bias factor          DIISBfac        ....   1.050
   Max. coefficient     DIISMaxC        ....  10.000
 Newton-Raphson         CNVNR           .... off
 SOSCF                  CNVSOSCF        .... off
 Level Shifting         CNVShift        .... on
   Level shift para.    LevelShift      ....    0.2500
   Turn off err/grad.   ShiftErr        ....    0.0010
 Zerner damping         CNVZerner       .... off
 Static damping         CNVDamp         .... on
   Fraction old density DampFac         ....    0.7000
   Max. Damping (<1)    DampMax         ....    0.9800
   Min. Damping (>=0)   DampMin         ....    0.0000
   Turn off err/grad.   DampErr         ....    0.1000
 Fernandez-Rico         CNVRico         .... off

SCF Procedure:
 Maximum # iterations   MaxIter         ....   300
 SCF integral mode      SCFMode         .... Direct
   Integral package                     .... LIBINT
 Reset frequency        DirectResetFreq ....    20
 Integral Threshold     Thresh          ....  1.000e-12 Eh
 Primitive CutOff       TCut            ....  1.000e-14 Eh

Convergence Tolerance:
 Convergence Check Mode ConvCheckMode   .... Total+1el-Energy
 Convergence forced     ConvForced      .... 0
 Energy Change          TolE            ....  1.000e-09 Eh
 1-El. energy change                    ....  1.000e-06 Eh
 DIIS Error             TolErr          ....  1.000e-08


Diagonalization of the overlap matrix:
Smallest eigenvalue                        ... 1.822e-06
Time for diagonalization                   ...    0.126 sec
Threshold for overlap eigenvalues          ... 1.000e-08
Number of eigenvalues below threshold      ... 0
Time for construction of square roots      ...    0.014 sec
Total time needed                          ...    0.140 sec

-------------------
DFT GRID GENERATION
-------------------

General Integration Accuracy     IntAcc      ...  5.010
Radial Grid Type                 RadialGrid  ... Gauss-Chebyshev
Angular Grid (max. acc.)         AngularGrid ... Lebedev-434
Angular grid pruning method      GridPruning ... 3 (G Style)
Weight generation scheme         WeightScheme... Becke
Basis function cutoff            BFCut       ...    1.0000e-12
Integration weight cutoff        WCut        ...    1.0000e-14
Grids for H and He will be reduced by one unit

# of grid points (after initial pruning)     ...  21180 (   0.0 sec)
# of grid points (after weights+screening)   ...  21087 (   0.0 sec)
nearest neighbour list constructed           ...    0.0 sec
Grid point re-assignment to atoms done       ...    0.0 sec
Grid point division into batches done        ...    0.2 sec
Reduced shell lists constructed in    0.2 sec

Total number of grid points                  ...    21087
Total number of batches                      ...      330
Average number of points per batch           ...       63
Average number of grid points per atom       ...    10544
Average number of shells per batch           ...    38.64 (58.55%)
Average number of basis functions per batch  ...   176.76 (60.95%)
Average number of large shells per batch     ...    32.98 (85.34%)
Average number of large basis fcns per batch ...   151.05 (85.45%)
Maximum spatial batch extension              ...  23.53, 23.53, 21.88 au
Average spatial batch extension              ...   1.87,  1.89,  1.61 au

Time for grid setup =    0.249 sec

------------------------------
INITIAL GUESS: MODEL POTENTIAL
------------------------------
Loading Hartree-Fock densities                     ... done
Calculating cut-offs                               ... done
Setting up the integral package                    ... done
Initializing the effective Hamiltonian             ... done
Starting the Coulomb interaction                   ... done (   0.0 sec)
Reading the grid                                   ... done
Mapping shells                                     ... done
Starting the XC term evaluation                    ... done (   0.2 sec)
  promolecular density results
     # of electrons  =     11.999998350
     EX              =    -10.158820762
     EC              =     -0.344996361
     EX+EC           =    -10.503817123
Transforming the Hamiltonian                       ... done (   0.0 sec)
Diagonalizing the Hamiltonian                      ... done (   0.0 sec)
Back transforming the eigenvectors                 ... done (   0.0 sec)
Now organizing SCF variables                       ... done
                      ------------------
                      INITIAL GUESS DONE (   0.6 sec)
                      ------------------
--------------
SCF ITERATIONS
--------------
ITER       Energy         Delta-E        Max-DP      RMS-DP      [F,P]     Damp
               ***  Starting incremental Fock matrix formation  ***
  0    -79.2647836834   0.000000000000 0.03050389  0.00026541  0.2485088 0.7000
  1    -79.3119570915  -0.047173408072 0.02217907  0.00017419  0.0614000 0.7000
                               ***Turning on DIIS***
  2    -79.3163185972  -0.004361505746 0.03843568  0.00024289  0.0458860 0.0000
  3    -79.3422387867  -0.025920189484 0.01616945  0.00012198  0.0334864 0.0000
  4    -79.3422614242  -0.000022637535 0.00471950  0.00004099  0.0482695 0.0000
  5    -79.3441680304  -0.001906606156 0.00390869  0.00003502  0.0255094 0.0000
  6    -79.3447112088  -0.000543178461 0.00216987  0.00001828  0.0126419 0.0000
  7    -79.3448417783  -0.000130569510 0.00100615  0.00000855  0.0062962 0.0000
  8    -79.3448769158  -0.000035137443 0.00029240  0.00000314  0.0028451 0.0000
  9    -79.3448850993  -0.000008183479 0.00010006  0.00000136  0.0011003 0.0000
 10    -79.3448867297  -0.000001630423 0.00027861  0.00000238  0.0005220 0.0000
 11    -79.3448876778  -0.000000948129 0.00003823  0.00000055  0.0000995 0.0000
 12    -79.3448877576  -0.000000079795 0.00002080  0.00000024  0.0000258 0.0000
 13    -79.3448877725  -0.000000014909 0.00000731  0.00000010  0.0000109 0.0000
 14    -79.3448877758  -0.000000003250 0.00000548  0.00000008  0.0000094 0.0000
 15    -79.3448877770  -0.000000001208 0.00000115  0.00000002  0.0000019 0.0000
 16    -79.3448877770  -0.000000000047 0.00000047  0.00000000  0.0000003 0.0000
                 **** Energy Check signals convergence ****

               *****************************************************
               *                     SUCCESS                       *
               *           SCF CONVERGED AFTER  17 CYCLES          *
               *****************************************************


----------------
TOTAL SCF ENERGY
----------------

Total Energy       :          -79.34488778 Eh           -2159.08416 eV

Components:
Nuclear Repulsion  :           13.97826588 Eh             380.36795 eV
Electronic Energy  :          -93.32315366 Eh           -2539.45211 eV
One Electron Energy:         -134.33506288 Eh           -3655.44290 eV
Two Electron Energy:           41.01190923 Eh            1115.99079 eV

Virial components:
Potential Energy   :         -158.41727341 Eh           -4310.75316 eV
Kinetic Energy     :           79.07238564 Eh            2151.66900 eV
Virial Ratio       :            2.00344624


DFT components:
N(Alpha)           :        7.000000389291 electrons
N(Beta)            :        5.000000472018 electrons
N(Total)           :       12.000000861309 electrons
E(X)               :      -10.366381801415 Eh       
E(C)               :       -0.341264683469 Eh       
E(XC)              :      -10.707646484884 Eh       
DFET-embed. en.    :        0.000000000000 Eh       

---------------
SCF CONVERGENCE
---------------

  Last Energy change         ...   -1.6627e-12  Tolerance :   1.0000e-09
  Last MAX-Density change    ...    5.2508e-07  Tolerance :   1.0000e-08
  Last RMS-Density change    ...    3.6820e-09  Tolerance :   1.0000e-09
  Last DIIS Error            ...    1.0444e-07  Tolerance :   1.0000e-08

             **** THE GBW FILE WAS UPDATED (bn_pbe_+001_x.gbw) ****
             **** DENSITY FILE WAS UPDATED (bn_pbe_+001_x.scfp.tmp) ****
             **** ENERGY FILE WAS UPDATED (bn_pbe_+001_x.en.tmp) ****
----------------------
UHF SPIN CONTAMINATION
----------------------

Warning: in a DFT calculation there is little theoretical justification to 
         calculate <S**2> as in Hartree-Fock theory. We will do it anyways
         but you should keep in mind that the values have only limited relevance

Expectation value of <S**2>     :     2.004049
Ideal value S*(S+1) for S=1.0   :     2.000000
Deviation                       :     0.004049

----------------
ORBITAL ENERGIES
----------------
                 SPIN UP ORBITALS
  NO   OCC          E(Eh)            E(eV) 
   0   1.0000     -14.043939      -382.1550 
   1   1.0000      -6.605778      -179.7523 
   2   1.0000      -0.773898       -21.0588 
   3   1.0000      -0.364711        -9.9243 
   4   1.0000      -0.335685        -9.1344 
   5   1.0000      -0.291716        -7.9380 
   6   1.0000      -0.283694        -7.7197 
   7   0.0000      -0.083171        -2.2632 
   8   0.0000      -0.064489        -1.7548 
   9   0.0000      -0.048824        -1.3286 
  10   0.0000      -0.019323        -0.5258 
  11   0.0000      -0.007295        -0.1985 
  12   0.0000       0.005625         0.1531 
  13   0.0000       0.023041         0.6270 
  14   0.0000       0.028276         0.7694 
  15   0.0000       0.037082         1.0091 
  16   0.0000       0.042593         1.1590 
  17   0.0000       0.049948         1.3592 
  18   0.0000       0.053005         1.4423 
  19   0.0000       0.065495         1.7822 
  20   0.0000       0.074394         2.0244 
  21   0.0000       0.085892         2.3372 
  22   0.0000       0.088497         2.4081 
  23   0.0000       0.100433         2.7329 
  24   0.0000       0.102478         2.7886 
  25   0.0000       0.123861         3.3704 
  26   0.0000       0.124435         3.3860 
  27   0.0000       0.129528         3.5246 
  28   0.0000       0.140673         3.8279 
  29   0.0000       0.142032         3.8649 
  30   0.0000       0.142222         3.8701 
  31   0.0000       0.147370         4.0101 
  32   0.0000       0.156393         4.2557 
  33   0.0000       0.157535         4.2868 
  34   0.0000       0.158417         4.3107 
  35   0.0000       0.182775         4.9736 
  36   0.0000       0.185515         5.0481 
  37   0.0000       0.190692         5.1890 
  38   0.0000       0.198787         5.4093 
  39   0.0000       0.201850         5.4926 
  40   0.0000       0.221752         6.0342 
  41   0.0000       0.223192         6.0734 
  42   0.0000       0.225711         6.1419 
  43   0.0000       0.227466         6.1897 
  44   0.0000       0.230379         6.2689 
  45   0.0000       0.234903         6.3920 
  46   0.0000       0.234912         6.3923 
  47   0.0000       0.239380         6.5139 
  48   0.0000       0.244499         6.6532 
  49   0.0000       0.244554         6.6547 
  50   0.0000       0.295930         8.0527 
  51   0.0000       0.296403         8.0655 
  52   0.0000       0.309681         8.4269 
  53   0.0000       0.328673         8.9436 
  54   0.0000       0.329096         8.9552 
  55   0.0000       0.334519         9.1027 
  56   0.0000       0.337596         9.1865 
  57   0.0000       0.343115         9.3366 
  58   0.0000       0.356800         9.7090 
  59   0.0000       0.357911         9.7393 
  60   0.0000       0.362130         9.8540 
  61   0.0000       0.362463         9.8631 
  62   0.0000       0.363373         9.8879 
  63   0.0000       0.368417        10.0251 
  64   0.0000       0.368532        10.0283 
  65   0.0000       0.376435        10.2433 
  66   0.0000       0.376437        10.2434 
  67   0.0000       0.385246        10.4831 
  68   0.0000       0.392329        10.6758 
  69   0.0000       0.404412        11.0046 
  70   0.0000       0.405163        11.0251 
  71   0.0000       0.415908        11.3174 
  72   0.0000       0.415934        11.3181 
  73   0.0000       0.430406        11.7119 
  74   0.0000       0.458672        12.4811 
  75   0.0000       0.463395        12.6096 
  76   0.0000       0.471879        12.8405 
  77   0.0000       0.509540        13.8653 
  78   0.0000       0.528532        14.3821 
  79   0.0000       0.541330        14.7303 
  80   0.0000       0.550794        14.9879 
  81   0.0000       0.558334        15.1930 
  82   0.0000       0.561204        15.2711 
  83   0.0000       0.617570        16.8049 
  84   0.0000       0.623221        16.9587 
  85   0.0000       0.625277        17.0147 
  86   0.0000       0.628236        17.0952 
  87   0.0000       0.630891        17.1674 
  88   0.0000       0.631839        17.1932 
  89   0.0000       0.663158        18.0454 
  90   0.0000       0.663158        18.0455 
  91   0.0000       0.665394        18.1063 
  92   0.0000       0.698228        18.9997 
  93   0.0000       0.708892        19.2899 
  94   0.0000       0.718806        19.5597 
  95   0.0000       0.728099        19.8126 
  96   0.0000       0.733369        19.9560 
  97   0.0000       0.738269        20.0893 
  98   0.0000       0.742663        20.2089 
  99   0.0000       0.798685        21.7333 
 100   0.0000       0.798690        21.7335 
 101   0.0000       0.822531        22.3822 
 102   0.0000       0.828918        22.5560 
 103   0.0000       0.828921        22.5561 
 104   0.0000       0.877017        23.8648 
 105   0.0000       0.877017        23.8648 
 106   0.0000       0.887005        24.1366 
 107   0.0000       0.887227        24.1427 
 108   0.0000       0.908867        24.7315 
 109   0.0000       0.923512        25.1300 
 110   0.0000       0.943988        25.6872 
 111   0.0000       0.978061        26.6144 
 112   0.0000       0.987942        26.8833 
 113   0.0000       0.992792        27.0152 
 114   0.0000       1.036228        28.1972 
 115   0.0000       1.174256        31.9531 
 116   0.0000       1.177663        32.0459 
 117   0.0000       1.199596        32.6427 
 118   0.0000       1.203842        32.7582 
 119   0.0000       1.218140        33.1473 
 120   0.0000       1.339006        36.4362 
 121   0.0000       1.339079        36.4382 
 122   0.0000       1.387750        37.7626 
 123   0.0000       1.388064        37.7711 
 124   0.0000       1.443708        39.2853 
 125   0.0000       1.460263        39.7358 
 126   0.0000       1.466601        39.9082 
 127   0.0000       1.467074        39.9211 
 128   0.0000       1.475933        40.1622 
 129   0.0000       1.488322        40.4993 
 130   0.0000       1.509801        41.0838 
 131   0.0000       1.577163        42.9168 
 132   0.0000       1.705989        46.4223 
 133   0.0000       1.718232        46.7555 
 134   0.0000       1.720870        46.8273 
 135   0.0000       1.731915        47.1278 
 136   0.0000       1.733693        47.1762 
 137   0.0000       1.925025        52.3826 
 138   0.0000       1.947744        53.0008 
 139   0.0000       1.956205        53.2310 
 140   0.0000       1.992120        54.2083 
 141   0.0000       2.078282        56.5529 
 142   0.0000       2.080128        56.6032 
 143   0.0000       2.455948        66.8298 
 144   0.0000       2.477234        67.4090 
 145   0.0000       2.557538        69.5942 
 146   0.0000       2.817928        76.6797 
 147   0.0000       2.840717        77.2998 
 148   0.0000       2.852642        77.6243 
 149   0.0000       2.853357        77.6438 
 150   0.0000       2.854784        77.6826 
 151   0.0000       2.976918        81.0061 
 152   0.0000       2.994392        81.4815 
 153   0.0000       2.995229        81.5043 
 154   0.0000       3.116369        84.8007 
 155   0.0000       3.116382        84.8011 
 156   0.0000       3.157713        85.9257 
 157   0.0000       3.157756        85.9269 
 158   0.0000       3.172328        86.3234 
 159   0.0000       3.198493        87.0354 
 160   0.0000       3.314587        90.1945 
 161   0.0000       3.494745        95.0969 
 162   0.0000       3.494934        95.1020 
 163   0.0000       3.558198        96.8235 
 164   0.0000       3.572615        97.2158 
 165   0.0000       3.580021        97.4173 
 166   0.0000       3.589321        97.6704 
 167   0.0000       3.592152        97.7474 
 168   0.0000       3.732277       101.5604 
 169   0.0000       3.732441       101.5649 
 170   0.0000       3.744664       101.8975 
 171   0.0000       3.769364       102.5696 
 172   0.0000       3.863301       105.1258 
 173   0.0000       3.881631       105.6246 
 174   0.0000       3.907228       106.3211 
 175   0.0000       3.967501       107.9612 
 176   0.0000       4.445648       120.9722 
 177   0.0000       4.446403       120.9928 
 178   0.0000       4.486846       122.0933 
 179   0.0000       4.514193       122.8374 
 180   0.0000       4.570036       124.3570 
 181   0.0000       4.804289       130.7313 
 182   0.0000       4.806704       130.7971 
 183   0.0000       4.913868       133.7132 
 184   0.0000       4.953612       134.7946 
 185   0.0000       4.953635       134.7953 
 186   0.0000       5.273994       143.5127 
 187   0.0000       5.274023       143.5135 
 188   0.0000       5.478936       149.0894 
 189   0.0000       5.510052       149.9361 
 190   0.0000       6.099980       165.9889 
 191   0.0000       6.101847       166.0397 
 192   0.0000       6.221654       169.2998 
 193   0.0000       6.614057       179.9776 
 194   0.0000       6.652398       181.0210 
 195   0.0000       6.721303       182.8960 
 196   0.0000       6.778869       184.4624 
 197   0.0000       6.782549       184.5625 
 198   0.0000       6.948410       189.0758 
 199   0.0000       7.113068       193.5564 
 200   0.0000       7.137885       194.2317 
 201   0.0000       7.304040       198.7530 
 202   0.0000       7.304409       198.7631 
 203   0.0000       7.772345       211.4963 
 204   0.0000       7.862918       213.9609 
 205   0.0000       7.891459       214.7375 
 206   0.0000       7.925709       215.6695 
 207   0.0000       8.826348       240.1771 
 208   0.0000       9.045421       246.1384 
 209   0.0000       9.093445       247.4452 
 210   0.0000       9.100906       247.6482 
 211   0.0000       9.101282       247.6585 
 212   0.0000       9.177565       249.7342 
 213   0.0000       9.177590       249.7349 
 214   0.0000       9.196852       250.2591 
 215   0.0000       9.196852       250.2591 
 216   0.0000       9.291582       252.8368 
 217   0.0000       9.299080       253.0408 
 218   0.0000       9.299960       253.0648 
 219   0.0000       9.314601       253.4632 
 220   0.0000       9.427763       256.5425 
 221   0.0000       9.427786       256.5431 
 222   0.0000       9.667253       263.0593 
 223   0.0000      10.017129       272.5799 
 224   0.0000      10.017130       272.5800 
 225   0.0000      10.074996       274.1546 
 226   0.0000      10.093572       274.6601 
 227   0.0000      10.093575       274.6601 
 228   0.0000      10.094783       274.6930 
 229   0.0000      10.114282       275.2236 
 230   0.0000      10.154271       276.3117 
 231   0.0000      10.154272       276.3118 
 232   0.0000      10.527885       286.4783 
 233   0.0000      10.542768       286.8833 
 234   0.0000      10.700832       291.1845 
 235   0.0000      10.701785       291.2104 
 236   0.0000      10.822744       294.5018 
 237   0.0000      11.103436       302.1398 
 238   0.0000      11.103439       302.1399 
 239   0.0000      11.281501       306.9853 
 240   0.0000      11.285222       307.0865 
 241   0.0000      11.338964       308.5489 
 242   0.0000      11.338974       308.5492 
 243   0.0000      11.350087       308.8516 
 244   0.0000      11.407090       310.4027 
 245   0.0000      11.407101       310.4030 
 246   0.0000      11.621757       316.2441 
 247   0.0000      11.655894       317.1730 
 248   0.0000      12.018090       327.0289 
 249   0.0000      12.018123       327.0298 
 250   0.0000      12.159022       330.8638 
 251   0.0000      12.187485       331.6383 
 252   0.0000      12.560111       341.7780 
 253   0.0000      13.448305       365.9470 
 254   0.0000      13.492695       367.1549 
 255   0.0000      13.492926       367.1612 
 256   0.0000      14.194118       386.2416 
 257   0.0000      14.194202       386.2439 
 258   0.0000      14.404748       391.9731 
 259   0.0000      14.404752       391.9732 
 260   0.0000      15.075880       410.2356 
 261   0.0000      15.076779       410.2600 
 262   0.0000      15.251315       415.0094 
 263   0.0000      15.290966       416.0883 
 264   0.0000      15.687966       426.8913 
 265   0.0000      15.854139       431.4131 
 266   0.0000      15.883876       432.2223 
 267   0.0000      15.920447       433.2174 
 268   0.0000      16.754519       455.9137 
 269   0.0000      16.754772       455.9205 
 270   0.0000      17.499221       476.1780 
 271   0.0000      17.538333       477.2423 
 272   0.0000      18.456734       502.2333 
 273   0.0000      19.263162       524.1773 
 274   0.0000      20.128403       547.7217 
 275   0.0000      20.128495       547.7242 
 276   0.0000      20.503493       557.9284 
 277   0.0000      20.514884       558.2384 
 278   0.0000      21.883865       595.4902 
 279   0.0000      22.987366       625.5180 
 280   0.0000      25.962482       706.4751 
 281   0.0000      26.000823       707.5184 
 282   0.0000      27.560174       749.9505 
 283   0.0000      47.571810      1294.4948 
 284   0.0000      47.571957      1294.4988 
 285   0.0000      47.864986      1302.4725 
 286   0.0000      47.892675      1303.2259 
 287   0.0000      48.521890      1320.3477 
 288   0.0000      78.095171      2125.0776 
 289   0.0000     103.069270      2804.6574 

                 SPIN DOWN ORBITALS
  NO   OCC          E(Eh)            E(eV) 
   0   1.0000     -14.027730      -381.7139 
   1   1.0000      -6.590433      -179.3348 
   2   1.0000      -0.722942       -19.6723 
   3   1.0000      -0.318759        -8.6739 
   4   1.0000      -0.273416        -7.4400 
   5   0.0000      -0.248327        -6.7573 
   6   0.0000      -0.190560        -5.1854 
   7   0.0000      -0.052183        -1.4200 
   8   0.0000      -0.024251        -0.6599 
   9   0.0000      -0.015154        -0.4124 
  10   0.0000      -0.013448        -0.3659 
  11   0.0000       0.004585         0.1248 
  12   0.0000       0.019856         0.5403 
  13   0.0000       0.029789         0.8106 
  14   0.0000       0.039802         1.0831 
  15   0.0000       0.041339         1.1249 
  16   0.0000       0.048321         1.3149 
  17   0.0000       0.058449         1.5905 
  18   0.0000       0.060060         1.6343 
  19   0.0000       0.080781         2.1982 
  20   0.0000       0.084163         2.2902 
  21   0.0000       0.092278         2.5110 
  22   0.0000       0.096128         2.6158 
  23   0.0000       0.109330         2.9750 
  24   0.0000       0.112156         3.0519 
  25   0.0000       0.131466         3.5774 
  26   0.0000       0.132976         3.6185 
  27   0.0000       0.138312         3.7637 
  28   0.0000       0.150993         4.1087 
  29   0.0000       0.151258         4.1159 
  30   0.0000       0.151924         4.1341 
  31   0.0000       0.156513         4.2589 
  32   0.0000       0.167122         4.5476 
  33   0.0000       0.169401         4.6096 
  34   0.0000       0.174963         4.7610 
  35   0.0000       0.193370         5.2619 
  36   0.0000       0.198172         5.3925 
  37   0.0000       0.204156         5.5554 
  38   0.0000       0.212424         5.7804 
  39   0.0000       0.225023         6.1232 
  40   0.0000       0.232418         6.3244 
  41   0.0000       0.236461         6.4344 
  42   0.0000       0.237806         6.4710 
  43   0.0000       0.238313         6.4848 
  44   0.0000       0.241994         6.5850 
  45   0.0000       0.245352         6.6764 
  46   0.0000       0.246208         6.6997 
  47   0.0000       0.249899         6.8001 
  48   0.0000       0.253127         6.8879 
  49   0.0000       0.253342         6.8938 
  50   0.0000       0.311801         8.4845 
  51   0.0000       0.313186         8.5222 
  52   0.0000       0.321326         8.7437 
  53   0.0000       0.339574         9.2403 
  54   0.0000       0.340332         9.2609 
  55   0.0000       0.350504         9.5377 
  56   0.0000       0.353693         9.6245 
  57   0.0000       0.356526         9.7016 
  58   0.0000       0.369730        10.0609 
  59   0.0000       0.370127        10.0717 
  60   0.0000       0.373265        10.1571 
  61   0.0000       0.373865        10.1734 
  62   0.0000       0.379008        10.3133 
  63   0.0000       0.379054        10.3146 
  64   0.0000       0.385755        10.4969 
  65   0.0000       0.385832        10.4990 
  66   0.0000       0.400174        10.8893 
  67   0.0000       0.404752        11.0139 
  68   0.0000       0.405653        11.0384 
  69   0.0000       0.423912        11.5352 
  70   0.0000       0.425921        11.5899 
  71   0.0000       0.428418        11.6578 
  72   0.0000       0.428798        11.6682 
  73   0.0000       0.451347        12.2818 
  74   0.0000       0.483120        13.1464 
  75   0.0000       0.486352        13.2343 
  76   0.0000       0.488363        13.2890 
  77   0.0000       0.527433        14.3522 
  78   0.0000       0.562436        15.3047 
  79   0.0000       0.562867        15.3164 
  80   0.0000       0.574602        15.6357 
  81   0.0000       0.576023        15.6744 
  82   0.0000       0.579396        15.7662 
  83   0.0000       0.637801        17.3554 
  84   0.0000       0.639774        17.4091 
  85   0.0000       0.641497        17.4560 
  86   0.0000       0.642541        17.4844 
  87   0.0000       0.645499        17.5649 
  88   0.0000       0.645513        17.5653 
  89   0.0000       0.674199        18.3459 
  90   0.0000       0.674763        18.3612 
  91   0.0000       0.689772        18.7696 
  92   0.0000       0.720402        19.6031 
  93   0.0000       0.723376        19.6841 
  94   0.0000       0.745122        20.2758 
  95   0.0000       0.755825        20.5670 
  96   0.0000       0.755863        20.5681 
  97   0.0000       0.762985        20.7619 
  98   0.0000       0.767541        20.8858 
  99   0.0000       0.810103        22.0440 
 100   0.0000       0.810950        22.0671 
 101   0.0000       0.839012        22.8307 
 102   0.0000       0.839289        22.8382 
 103   0.0000       0.855612        23.2824 
 104   0.0000       0.887873        24.1602 
 105   0.0000       0.888160        24.1681 
 106   0.0000       0.900847        24.5133 
 107   0.0000       0.902938        24.5702 
 108   0.0000       0.933357        25.3979 
 109   0.0000       0.940688        25.5974 
 110   0.0000       0.972819        26.4717 
 111   0.0000       0.994948        27.0739 
 112   0.0000       1.005661        27.3654 
 113   0.0000       1.009181        27.4612 
 114   0.0000       1.052680        28.6449 
 115   0.0000       1.206530        32.8313 
 116   0.0000       1.210784        32.9471 
 117   0.0000       1.236324        33.6421 
 118   0.0000       1.250508        34.0281 
 119   0.0000       1.259693        34.2780 
 120   0.0000       1.376989        37.4698 
 121   0.0000       1.377744        37.4903 
 122   0.0000       1.432962        38.9929 
 123   0.0000       1.437954        39.1287 
 124   0.0000       1.507309        41.0160 
 125   0.0000       1.516267        41.2597 
 126   0.0000       1.516627        41.2695 
 127   0.0000       1.521081        41.3907 
 128   0.0000       1.522063        41.4174 
 129   0.0000       1.529176        41.6110 
 130   0.0000       1.541371        41.9428 
 131   0.0000       1.603073        43.6218 
 132   0.0000       1.765644        48.0456 
 133   0.0000       1.766785        48.0767 
 134   0.0000       1.769394        48.1477 
 135   0.0000       1.781965        48.4897 
 136   0.0000       1.782098        48.4934 
 137   0.0000       1.971181        53.6386 
 138   0.0000       1.979672        53.8696 
 139   0.0000       1.982981        53.9596 
 140   0.0000       2.043132        55.5964 
 141   0.0000       2.108413        57.3728 
 142   0.0000       2.111804        57.4651 
 143   0.0000       2.495814        67.9145 
 144   0.0000       2.504257        68.1443 
 145   0.0000       2.595004        70.6136 
 146   0.0000       2.876975        78.2865 
 147   0.0000       2.889238        78.6202 
 148   0.0000       2.895398        78.7878 
 149   0.0000       2.900338        78.9222 
 150   0.0000       2.919755        79.4506 
 151   0.0000       3.020603        82.1948 
 152   0.0000       3.042530        82.7915 
 153   0.0000       3.049377        82.9778 
 154   0.0000       3.172018        86.3150 
 155   0.0000       3.172509        86.3283 
 156   0.0000       3.221580        87.6636 
 157   0.0000       3.222713        87.6945 
 158   0.0000       3.234593        88.0177 
 159   0.0000       3.248302        88.3908 
 160   0.0000       3.373371        91.7941 
 161   0.0000       3.558554        96.8332 
 162   0.0000       3.564063        96.9831 
 163   0.0000       3.615340        98.3784 
 164   0.0000       3.629270        98.7575 
 165   0.0000       3.639484        99.0354 
 166   0.0000       3.654719        99.4500 
 167   0.0000       3.657554        99.5271 
 168   0.0000       3.799519       103.3902 
 169   0.0000       3.816519       103.8528 
 170   0.0000       3.834340       104.3377 
 171   0.0000       3.840155       104.4959 
 172   0.0000       3.916131       106.5633 
 173   0.0000       3.985330       108.4463 
 174   0.0000       4.005633       108.9988 
 175   0.0000       4.061705       110.5246 
 176   0.0000       4.502335       122.5148 
 177   0.0000       4.504151       122.5642 
 178   0.0000       4.559358       124.0664 
 179   0.0000       4.576106       124.5222 
 180   0.0000       4.645132       126.4005 
 181   0.0000       4.849576       131.9637 
 182   0.0000       4.854924       132.1092 
 183   0.0000       4.954103       134.8080 
 184   0.0000       5.008650       136.2923 
 185   0.0000       5.009260       136.3089 
 186   0.0000       5.321164       144.7962 
 187   0.0000       5.322153       144.8231 
 188   0.0000       5.534602       150.6042 
 189   0.0000       5.548249       150.9755 
 190   0.0000       6.144967       167.2131 
 191   0.0000       6.150223       167.3561 
 192   0.0000       6.269295       170.5962 
 193   0.0000       6.669764       181.4935 
 194   0.0000       6.686253       181.9422 
 195   0.0000       6.773692       184.3215 
 196   0.0000       6.840938       186.1514 
 197   0.0000       6.855551       186.5490 
 198   0.0000       6.997412       190.4093 
 199   0.0000       7.172145       195.1640 
 200   0.0000       7.184894       195.5109 
 201   0.0000       7.334178       199.5731 
 202   0.0000       7.335820       199.6178 
 203   0.0000       7.827553       212.9985 
 204   0.0000       7.920513       215.5281 
 205   0.0000       7.933542       215.8827 
 206   0.0000       7.973304       216.9646 
 207   0.0000       8.883920       241.7437 
 208   0.0000       9.113295       247.9854 
 209   0.0000       9.137754       248.6509 
 210   0.0000       9.138358       248.6674 
 211   0.0000       9.141137       248.7430 
 212   0.0000       9.232775       251.2366 
 213   0.0000       9.233649       251.2604 
 214   0.0000       9.253112       251.7900 
 215   0.0000       9.253609       251.8035 
 216   0.0000       9.343288       254.2438 
 217   0.0000       9.343660       254.2539 
 218   0.0000       9.352169       254.4855 
 219   0.0000       9.361753       254.7462 
 220   0.0000       9.519533       259.0397 
 221   0.0000       9.521371       259.0897 
 222   0.0000       9.726316       264.6665 
 223   0.0000      10.112638       275.1789 
 224   0.0000      10.114665       275.2340 
 225   0.0000      10.164958       276.6026 
 226   0.0000      10.174283       276.8563 
 227   0.0000      10.175167       276.8804 
 228   0.0000      10.203482       277.6509 
 229   0.0000      10.217288       278.0265 
 230   0.0000      10.217975       278.0452 
 231   0.0000      10.218333       278.0550 
 232   0.0000      10.573115       287.7091 
 233   0.0000      10.585316       288.0411 
 234   0.0000      10.798870       293.8522 
 235   0.0000      10.803924       293.9897 
 236   0.0000      10.874013       295.8969 
 237   0.0000      11.181737       304.2705 
 238   0.0000      11.185785       304.3807 
 239   0.0000      11.340541       308.5918 
 240   0.0000      11.345963       308.7393 
 241   0.0000      11.408487       310.4407 
 242   0.0000      11.408981       310.4542 
 243   0.0000      11.422752       310.8289 
 244   0.0000      11.466506       312.0195 
 245   0.0000      11.467150       312.0370 
 246   0.0000      11.680477       317.8419 
 247   0.0000      11.698810       318.3408 
 248   0.0000      12.079916       328.7112 
 249   0.0000      12.081646       328.7583 
 250   0.0000      12.241816       333.1167 
 251   0.0000      12.262736       333.6860 
 252   0.0000      12.620993       343.4347 
 253   0.0000      13.512159       367.6846 
 254   0.0000      13.553641       368.8133 
 255   0.0000      13.561205       369.0192 
 256   0.0000      14.275554       388.4576 
 257   0.0000      14.277297       388.5050 
 258   0.0000      14.468695       393.7132 
 259   0.0000      14.470557       393.7639 
 260   0.0000      15.128961       411.6800 
 261   0.0000      15.136315       411.8801 
 262   0.0000      15.318415       416.8353 
 263   0.0000      15.342039       417.4781 
 264   0.0000      15.739259       428.2870 
 265   0.0000      15.898934       432.6320 
 266   0.0000      15.943906       433.8557 
 267   0.0000      15.963342       434.3846 
 268   0.0000      16.816337       457.5958 
 269   0.0000      16.823348       457.7866 
 270   0.0000      17.555611       477.7125 
 271   0.0000      17.579752       478.3694 
 272   0.0000      18.497355       503.3386 
 273   0.0000      19.304810       525.3106 
 274   0.0000      20.158009       548.5273 
 275   0.0000      20.158962       548.5532 
 276   0.0000      20.548534       559.1540 
 277   0.0000      20.554001       559.3028 
 278   0.0000      21.924023       596.5830 
 279   0.0000      23.033591       626.7759 
 280   0.0000      26.014622       707.8938 
 281   0.0000      26.044548       708.7082 
 282   0.0000      27.594316       750.8795 
 283   0.0000      47.618790      1295.7732 
 284   0.0000      47.624603      1295.9313 
 285   0.0000      47.907088      1303.6181 
 286   0.0000      47.924373      1304.0885 
 287   0.0000      48.556887      1321.3001 
 288   0.0000      78.116097      2125.6471 
 289   0.0000     103.088046      2805.1683 

                    ********************************
                    * MULLIKEN POPULATION ANALYSIS *
                    ********************************

--------------------------------------------
MULLIKEN ATOMIC CHARGES AND SPIN POPULATIONS
--------------------------------------------
   0 B :    0.039405    1.138710
   1 N :   -0.039405    0.861290
Sum of atomic charges         :   -0.0000000
Sum of atomic spin populations:    2.0000000

-----------------------------------------------------
MULLIKEN REDUCED ORBITAL CHARGES AND SPIN POPULATIONS
-----------------------------------------------------
CHARGE
  0 B s       :     3.277318  s :     3.277318
      pz      :     0.653619  p :     1.604356
      px      :     0.658426
      py      :     0.292311
      dz2     :     0.017980  d :     0.068397
      dxz     :     0.034899
      dyz     :     0.015179
      dx2y2   :     0.000300
      dxy     :     0.000038
      f0      :     0.003140  f :     0.009272
      f+1     :     0.003891
      f-1     :     0.002190
      f+2     :     0.000021
      f-2     :     0.000001
      f+3     :     0.000018
      f-3     :     0.000012
      g0      :     0.000483  g :     0.001234
      g+1     :     0.000482
      g-1     :     0.000262
      g+2     :     0.000003
      g-2     :     0.000000
      g+3     :     0.000002
      g-3     :     0.000002
      g+4     :     0.000000
      g-4     :     0.000000
      h0      :     0.000022  h :     0.000019
      h+1     :    -0.000003
      h-1     :    -0.000001
      h+2     :     0.000000
      h-2     :     0.000000
      h+3     :    -0.000000
      h-3     :    -0.000000
      h+4     :     0.000000
      h-4     :    -0.000000
      h+5     :     0.000000
      h-5     :    -0.000000
  1 N s       :     3.817185  s :     3.817185
      pz      :     1.219164  p :     3.198615
      px      :     1.293503
      py      :     0.685948
      dz2     :     0.011872  d :     0.022714
      dxz     :     0.006020
      dyz     :     0.004303
      dx2y2   :     0.000476
      dxy     :     0.000043
      f0      :     0.001024  f :     0.000878
      f+1     :    -0.000054
      f-1     :    -0.000287
      f+2     :     0.000055
      f-2     :     0.000001
      f+3     :     0.000075
      f-3     :     0.000064
      g0      :     0.000094  g :     0.000006
      g+1     :    -0.000039
      g-1     :    -0.000058
      g+2     :     0.000003
      g-2     :    -0.000000
      g+3     :     0.000003
      g-3     :     0.000002
      g+4     :     0.000001
      g-4     :     0.000000
      h0      :     0.000028  h :     0.000007
      h+1     :    -0.000011
      h-1     :    -0.000010
      h+2     :     0.000000
      h-2     :    -0.000000
      h+3     :    -0.000000
      h-3     :    -0.000000
      h+4     :     0.000000
      h-4     :     0.000000
      h+5     :     0.000000
      h-5     :     0.000000

SPIN
  0 B s       :     0.356859  s :     0.356859
      pz      :     0.447513  p :     0.771638
      px      :     0.031814
      py      :     0.292311
      dz2     :     0.002597  d :     0.006964
      dxz     :    -0.010908
      dyz     :     0.015179
      dx2y2   :     0.000057
      dxy     :     0.000038
      f0      :     0.000406  f :     0.002875
      f+1     :     0.000241
      f-1     :     0.002190
      f+2     :     0.000014
      f-2     :     0.000001
      f+3     :     0.000011
      f-3     :     0.000012
      g0      :     0.000058  g :     0.000372
      g+1     :     0.000047
      g-1     :     0.000262
      g+2     :     0.000003
      g-2     :     0.000000
      g+3     :     0.000002
      g-3     :     0.000002
      g+4     :    -0.000000
      g-4     :     0.000000
      h0      :     0.000005  h :     0.000002
      h+1     :    -0.000002
      h-1     :    -0.000001
      h+2     :    -0.000000
      h-2     :     0.000000
      h+3     :    -0.000000
      h-3     :    -0.000000
      h+4     :    -0.000000
      h-4     :    -0.000000
      h+5     :    -0.000000
      h-5     :    -0.000000
  1 N s       :     0.042389  s :     0.042389
      pz      :     0.138869  p :     0.805579
      px      :    -0.019238
      py      :     0.685948
      dz2     :     0.007430  d :     0.013005
      dxz     :     0.001029
      dyz     :     0.004303
      dx2y2   :     0.000200
      dxy     :     0.000043
      f0      :     0.000441  f :     0.000355
      f+1     :     0.000038
      f-1     :    -0.000287
      f+2     :     0.000037
      f-2     :     0.000001
      f+3     :     0.000062
      f-3     :     0.000064
      g0      :     0.000035  g :    -0.000050
      g+1     :    -0.000030
      g-1     :    -0.000058
      g+2     :     0.000000
      g-2     :    -0.000000
      g+3     :     0.000002
      g-3     :     0.000002
      g+4     :    -0.000001
      g-4     :     0.000000
      h0      :     0.000024  h :     0.000012
      h+1     :    -0.000001
      h-1     :    -0.000010
      h+2     :    -0.000000
      h-2     :    -0.000000
      h+3     :    -0.000000
      h-3     :    -0.000000
      h+4     :    -0.000000
      h-4     :     0.000000
      h+5     :    -0.000000
      h-5     :     0.000000


                     *******************************
                     * LOEWDIN POPULATION ANALYSIS *
                     *******************************

-------------------------------------------
LOEWDIN ATOMIC CHARGES AND SPIN POPULATIONS
-------------------------------------------
   0 B :   -0.013351    1.031572
   1 N :    0.013351    0.968428

----------------------------------------------------
LOEWDIN REDUCED ORBITAL CHARGES AND SPIN POPULATIONS
----------------------------------------------------
CHARGE
  0 B s       :     2.776522  s :     2.776522
      pz      :     0.868184  p :     1.694871
      px      :     0.570611
      py      :     0.256076
      dz2     :     0.224079  d :     0.388271
      dxz     :     0.107744
      dyz     :     0.056134
      dx2y2   :     0.000276
      dxy     :     0.000038
      f0      :     0.052378  f :     0.121547
      f+1     :     0.043775
      f-1     :     0.025324
      f+2     :     0.000036
      f-2     :     0.000002
      f+3     :     0.000020
      f-3     :     0.000013
      g0      :     0.009143  g :     0.029995
      g+1     :     0.013245
      g-1     :     0.007589
      g+2     :     0.000011
      g-2     :     0.000000
      g+3     :     0.000003
      g-3     :     0.000003
      g+4     :     0.000000
      g-4     :     0.000000
      h0      :     0.000927  h :     0.002144
      h+1     :     0.000791
      h-1     :     0.000425
      h+2     :     0.000001
      h-2     :     0.000000
      h+3     :     0.000000
      h-3     :     0.000000
      h+4     :     0.000000
      h-4     :     0.000000
      h+5     :     0.000000
      h-5     :     0.000000
  1 N s       :     3.320316  s :     3.320316
      pz      :     1.582279  p :     3.409057
      px      :     1.199372
      py      :     0.627406
      dz2     :     0.117334  d :     0.173173
      dxz     :     0.038546
      dyz     :     0.016795
      dx2y2   :     0.000456
      dxy     :     0.000041
      f0      :     0.037977  f :     0.061518
      f+1     :     0.016361
      f-1     :     0.006976
      f+2     :     0.000069
      f-2     :     0.000002
      f+3     :     0.000071
      f-3     :     0.000061
      g0      :     0.010276  g :     0.018252
      g+1     :     0.005435
      g-1     :     0.002528
      g+2     :     0.000008
      g-2     :     0.000000
      g+3     :     0.000003
      g-3     :     0.000002
      g+4     :     0.000001
      g-4     :     0.000000
      h0      :     0.002513  h :     0.004334
      h+1     :     0.001233
      h-1     :     0.000585
      h+2     :     0.000002
      h-2     :     0.000000
      h+3     :     0.000000
      h-3     :     0.000000
      h+4     :     0.000000
      h-4     :     0.000000
      h+5     :     0.000000
      h-5     :     0.000000

SPIN
  0 B s       :     0.292138  s :     0.292138
      pz      :     0.374723  p :     0.655544
      px      :     0.024745
      py      :     0.256076
      dz2     :     0.002704  d :     0.048080
      dxz     :    -0.010840
      dyz     :     0.056134
      dx2y2   :     0.000044
      dxy     :     0.000038
      f0      :     0.002056  f :     0.027447
      f+1     :     0.000018
      f-1     :     0.025324
      f+2     :     0.000021
      f-2     :     0.000002
      f+3     :     0.000013
      f-3     :     0.000013
      g0      :     0.000371  g :     0.007906
      g+1     :    -0.000067
      g-1     :     0.007589
      g+2     :     0.000008
      g-2     :     0.000000
      g+3     :     0.000003
      g-3     :     0.000003
      g+4     :    -0.000000
      g-4     :     0.000000
      h0      :     0.000037  h :     0.000457
      h+1     :    -0.000006
      h-1     :     0.000425
      h+2     :     0.000001
      h-2     :     0.000000
      h+3     :     0.000000
      h-3     :     0.000000
      h+4     :    -0.000000
      h-4     :     0.000000
      h+5     :    -0.000000
      h-5     :     0.000000
  1 N s       :     0.075090  s :     0.075090
      pz      :     0.158088  p :     0.768444
      px      :    -0.017050
      py      :     0.627406
      dz2     :     0.063683  d :     0.084073
      dxz     :     0.003363
      dyz     :     0.016795
      dx2y2   :     0.000189
      dxy     :     0.000041
      f0      :     0.020060  f :     0.028970
      f+1     :     0.001769
      f-1     :     0.006976
      f+2     :     0.000045
      f-2     :     0.000002
      f+3     :     0.000058
      f-3     :     0.000061
      g0      :     0.006137  g :     0.009462
      g+1     :     0.000792
      g-1     :     0.002528
      g+2     :     0.000003
      g-2     :     0.000000
      g+3     :     0.000002
      g-3     :     0.000002
      g+4     :    -0.000001
      g-4     :     0.000000
      h0      :     0.001539  h :     0.002388
      h+1     :     0.000263
      h-1     :     0.000585
      h+2     :     0.000001
      h-2     :     0.000000
      h+3     :     0.000000
      h-3     :     0.000000
      h+4     :    -0.000000
      h-4     :     0.000000
      h+5     :    -0.000000
      h-5     :     0.000000


                      *****************************
                      * MAYER POPULATION ANALYSIS *
                      *****************************

  NA   - Mulliken gross atomic population
  ZA   - Total nuclear charge
  QA   - Mulliken gross atomic charge
  VA   - Mayer's total valence
  BVA  - Mayer's bonded valence
  FA   - Mayer's free valence

  ATOM       NA         ZA         QA         VA         BVA        FA
  0 B      4.9606     5.0000     0.0394     3.0870     2.2877     0.7993
  1 N      7.0394     7.0000    -0.0394     2.7928     2.2877     0.5051

  Mayer bond orders larger than 0.1
B(  0-B ,  1-N ) :   2.2877 

-------
TIMINGS
-------

Total SCF time: 0 days 0 hours 6 min 54 sec 

Total time                  ....     414.147 sec
Sum of individual times     ....     413.362 sec  ( 99.8%)

Fock matrix formation       ....     411.147 sec  ( 99.3%)
  XC integration            ....       9.155 sec  (  2.2% of F)
    Basis function eval.    ....       0.646 sec  (  7.1% of XC)
    Density eval.           ....       1.674 sec  ( 18.3% of XC)
    XC-Functional eval.     ....       0.167 sec  (  1.8% of XC)
    XC-Potential eval.      ....       6.128 sec  ( 66.9% of XC)
Diagonalization             ....       0.954 sec  (  0.2%)
Density matrix formation    ....       0.020 sec  (  0.0%)
Population analysis         ....       0.066 sec  (  0.0%)
Initial guess               ....       0.388 sec  (  0.1%)
Orbital Transformation      ....       0.000 sec  (  0.0%)
Orbital Orthonormalization  ....       0.000 sec  (  0.0%)
DIIS solution               ....       0.538 sec  (  0.1%)
Grid generation             ....       0.249 sec  (  0.1%)

-------------------------   --------------------
FINAL SINGLE POINT ENERGY       -79.344887777032
-------------------------   --------------------


                            ***************************************
                            *     ORCA property calculations      *
                            ***************************************

                                    ---------------------
                                    Active property flags
                                    ---------------------
   (+) Dipole Moment


------------------------------------------------------------------------------
                       ORCA ELECTRIC PROPERTIES CALCULATION
------------------------------------------------------------------------------

Dipole Moment Calculation                       ... on
Quadrupole Moment Calculation                   ... off
Polarizability Calculation                      ... off
GBWName                                         ... bn_pbe_+001_x.gbw
Electron density file                           ... bn_pbe_+001_x.scfp.tmp
The origin for moment calculation is the CENTER OF MASS  = ( 0.000000,  0.000000  1.413223)

-------------
DIPOLE MOMENT
-------------
                                X             Y             Z
Electronic contribution:      0.22926       0.00000      -1.30700
Nuclear contribution   :      0.00000       0.00000       0.56854
                        -----------------------------------------
Total Dipole Moment    :      0.22926       0.00000      -0.73847
                        -----------------------------------------
Magnitude (a.u.)       :      0.77324
Magnitude (Debye)      :      1.96541



--------------------
Rotational spectrum 
--------------------
 
Rotational constants in cm-1:     0.000000     1.573778     1.573778 
Rotational constants in MHz :     0.000000 47180.691902 47180.691902 

 Dipole components along the rotational axes: 
x,y,z [a.u.] :    -0.738466     0.000000     0.229262 
x,y,z [Debye]:    -1.877032     0.000000     0.582737 

 

Timings for individual modules:

Sum of individual times         ...      426.450 sec (=   7.108 min)
GTO integral calculation        ...        7.996 sec (=   0.133 min)   1.9 %
SCF iterations                  ...      418.454 sec (=   6.974 min)  98.1 %
                             ****ORCA TERMINATED NORMALLY****
TOTAL RUN TIME: 0 days 0 hours 7 minutes 8 seconds 930 msec
