
                                 *****************
                                 * O   R   C   A *
                                 *****************

           --- An Ab Initio, DFT and Semiempirical electronic structure package ---

                  #######################################################
                  #                        -***-                        #
                  #          Department of theory and spectroscopy      #
                  #               Directorship: Frank Neese             #
                  #        Max Planck Institute fuer Kohlenforschung    #
                  #                Kaiser Wilhelm Platz 1               #
                  #                 D-45470 Muelheim/Ruhr               #
                  #                      Germany                        #
                  #                                                     #
                  #                  All rights reserved                #
                  #                        -***-                        #
                  #######################################################


                         Program Version 4.1.1  - RELEASE  -


 With contributions from (in alphabetic order):
   Daniel Aravena         : Magnetic Properties
   Michael Atanasov       : Ab Initio Ligand Field Theory
   Alexander A. Auer      : GIAO ZORA
   Ute Becker             : Parallelization
   Giovanni Bistoni       : ED, Open-shell LED
   Martin Brehm           : Molecular dynamics
   Dmytro Bykov           : SCF Hessian
   Vijay G. Chilkuri      : MRCI spin determinant printing
   Dipayan Datta          : RHF DLPNO-CCSD density
   Achintya Kumar Dutta   : EOM-CC, STEOM-CC
   Dmitry Ganyushin       : Spin-Orbit,Spin-Spin,Magnetic field MRCI
   Miquel Garcia          : C-PCM Hessian
   Yang Guo               : DLPNO-NEVPT2, CIM, IAO-localization
   Andreas Hansen         : Spin unrestricted coupled pair/coupled cluster methods
   Benjamin Helmich-Paris : CASSCF linear response (MC-RPA)
   Lee Huntington         : MR-EOM, pCC
   Robert Izsak           : Overlap fitted RIJCOSX, COSX-SCS-MP3, EOM
   Christian Kollmar      : KDIIS, OOCD, Brueckner-CCSD(T), CCSD density
   Simone Kossmann        : Meta GGA functionals, TD-DFT gradient, OOMP2, MP2 Hessian
   Martin Krupicka        : AUTO-CI
   Lucas Lang             : DCDCAS
   Dagmar Lenk            : GEPOL surface, SMD
   Dimitrios Liakos       : Extrapolation schemes; parallel MDCI
   Dimitrios Manganas     : ROCIS; embedding schemes
   Dimitrios Pantazis     : SARC Basis sets
   Taras Petrenko         : DFT Hessian,TD-DFT gradient, ASA, ECA, R-Raman, ABS, FL, XAS/XES, NRVS
   Peter Pinski           : DLPNO-MP2, DLPNO-MP2 Gradient
   Christoph Reimann      : Effective Core Potentials
   Marius Retegan         : Local ZFS, SOC
   Christoph Riplinger    : Optimizer, TS searches, QM/MM, DLPNO-CCSD(T), (RO)-DLPNO pert. Triples
   Tobias Risthaus        : Range-separated hybrids, TD-DFT gradient, RPA, STAB
   Michael Roemelt        : Restricted open shell CIS
   Masaaki Saitow         : Open-shell DLPNO
   Barbara Sandhoefer     : DKH picture change effects
   Avijit Sen             : IP-ROCIS
   Kantharuban Sivalingam : CASSCF convergence, NEVPT2, FIC-MRCI
   Bernardo de Souza      : ESD, SOC TD-DFT
   Georgi Stoychev        : AutoAux, RI-MP2 NMR
   Willem Van den Heuvel  : Paramagnetic NMR
   Boris Wezisla          : Elementary symmetry handling
   Frank Wennmohs         : Technical directorship


 We gratefully acknowledge several colleagues who have allowed us to
 interface, adapt or use parts of their codes:
   Stefan Grimme, W. Hujo, H. Kruse,             : VdW corrections, initial TS optimization,
                  C. Bannwarth                     DFT functionals, gCP, sTDA/sTD-DF
   Ed Valeev                                     : LibInt (2-el integral package), F12 methods
   Garnet Chan, S. Sharma, J. Yang, R. Olivares  : DMRG
   Ulf Ekstrom                                   : XCFun DFT Library
   Mihaly Kallay                                 : mrcc  (arbitrary order and MRCC methods)
   Andreas Klamt, Michael Diedenhofen            : otool_cosmo (COSMO solvation model)
   Jiri Pittner, Ondrej Demel                    : Mk-CCSD
   Frank Weinhold                                : gennbo (NPA and NBO analysis)
   Christopher J. Cramer and Donald G. Truhlar   : smd solvation model
   Lars Goerigk                                  : TD-DFT with DH, B97 family of functionals
   V. Asgeirsson, H. Jonsson                     : NEB implementation
   FAccTs GmbH                                   : IRC, NEB, NEB-TS, Multilevel


 Your calculation uses the libint2 library for the computation of 2-el integrals
 For citations please refer to: http://libint.valeyev.net

 This ORCA versions uses:
   CBLAS   interface :  Fast vector & matrix operations
   LAPACKE interface :  Fast linear algebra routines
   SCALAPACK package :  Parallel linear algebra routines


----- Orbital basis set information -----
Your calculation utilizes the basis: aug-pc-4
   H, C-F              : F. Jensen, J. Chem. Phys. 115, 9113 (2001).
                         F. Jensen, J. Chem. Phys. 116, 7372 (2002).
                         F. Jensen, J. Chem. Phys. 117, 9234 (2002).
   Si-Cl               : F. Jensen, T. Helgaker, J. Chem. Phys. 121, 3463 (2004).
   He-B, Ne-Mg, Al, Ar : F. Jensen, J. Phys. Chem. A 111, 11198 (2007).
   K, Ca, Ga-Kr        : F. Jensen, J. Chem. Phys. 136, 094110 (2012).
   Sc-Zn               : F. Jensen, J. Chem. Phys. 138, 014107 (2013).

================================================================================
                                        WARNINGS
                       Please study these warnings very carefully!
================================================================================


INFO   : the flag for use of LIBINT has been found!

================================================================================
                                       INPUT FILE
================================================================================
NAME = li_pbe_-001_z.inp
|  1> ! uks pbe nori aug-pc-4 grid5 nofinalgrid verytightscf
|  2> 
|  3> %maxcore 1500
|  4> 
|  5> %pal nprocs 4 end
|  6> %scf
|  7>     efield 0.0, 0.0, -0.01
|  8>     maxiter 300
|  9> end
| 10> * xyz 0 2
| 11> Li 0.0 0.0 0.0
| 12> *
| 13> 
| 14>                          ****END OF INPUT****
================================================================================

                       ****************************
                       * Single Point Calculation *
                       ****************************

---------------------------------
CARTESIAN COORDINATES (ANGSTROEM)
---------------------------------
  Li     0.000000    0.000000    0.000000

----------------------------
CARTESIAN COORDINATES (A.U.)
----------------------------
  NO LB      ZA    FRAG     MASS         X           Y           Z
   0 Li    3.0000    0     6.941    0.000000    0.000000    0.000000

--------------------------------
INTERNAL COORDINATES (ANGSTROEM)
--------------------------------
 Li     0   0   0     0.000000000000     0.00000000     0.00000000

---------------------------
INTERNAL COORDINATES (A.U.)
---------------------------
 Li     0   0   0     0.000000000000     0.00000000     0.00000000

---------------------
BASIS SET INFORMATION
---------------------
There are 1 groups of distinct atoms

 Group   1 Type Li  : 31s9p4d3f2g contracted to 9s5p4d3f2g pattern {12121111111/51111/1111/111/11}

Atom   0Li   basis set group =>   1


           ************************************************************
           *        Program running with 4 parallel MPI-processes     *
           *              working on a common directory               *
           ************************************************************
------------------------------------------------------------------------------
                           ORCA GTO INTEGRAL CALCULATION
------------------------------------------------------------------------------

                         BASIS SET STATISTICS AND STARTUP INFO

 # of primitive gaussian shells          ...   49
 # of primitive gaussian functions       ...  117
 # of contracted shells                  ...   23
 # of contracted basis functions         ...   83
 Highest angular momentum                ...    4
 Maximum contraction depth               ...   12
 Integral package used                   ... LIBINT
 Integral threshhold            Thresh   ...  1.000e-12
 Primitive cut-off              TCut     ...  1.000e-14


------------------------------ INTEGRAL EVALUATION ----------------------------


 * One electron integrals 
 Pre-screening matrix                    ... done
 Shell pair data                         ... done (   0.000 sec)


An Electric Field will be added: 0.000e+00 0.000e+00 -1.000e-02 au

  ... done adding electric field perturbation



           ************************************************************
           *        Program running with 4 parallel MPI-processes     *
           *              working on a common directory               *
           ************************************************************
-------------------------------------------------------------------------------
                                 ORCA SCF
-------------------------------------------------------------------------------

------------
SCF SETTINGS
------------
Hamiltonian:
 Density Functional     Method          .... DFT(GTOs)
 Exchange Functional    Exchange        .... PBE
   PBE kappa parameter   XKappa         ....  0.804000
   PBE mue parameter    XMuePBE         ....  0.219520
 Correlation Functional Correlation     .... PBE
   PBE beta parameter  CBetaPBE         ....  0.066725
 LDA part of GGA corr.  LDAOpt          .... PW91-LDA
 Gradients option       PostSCFGGA      .... off
   Density functional embedding theory  .... OFF
   NL short-range parameter             ....  6.400000


General Settings:
 Integral files         IntName         .... li_pbe_-001_z
 Hartree-Fock type      HFTyp           .... UHF
 Total Charge           Charge          ....    0
 Multiplicity           Mult            ....    2
 Number of Electrons    NEL             ....    3
 Basis Dimension        Dim             ....   83
 Nuclear Repulsion      ENuc            ....      0.0000000000 Eh

Convergence Acceleration:
 DIIS                   CNVDIIS         .... on
   Start iteration      DIISMaxIt       ....    12
   Startup error        DIISStart       ....  0.200000
   # of expansion vecs  DIISMaxEq       ....     5
   Bias factor          DIISBfac        ....   1.050
   Max. coefficient     DIISMaxC        ....  10.000
 Newton-Raphson         CNVNR           .... off
 SOSCF                  CNVSOSCF        .... off
 Level Shifting         CNVShift        .... on
   Level shift para.    LevelShift      ....    0.2500
   Turn off err/grad.   ShiftErr        ....    0.0010
 Zerner damping         CNVZerner       .... off
 Static damping         CNVDamp         .... on
   Fraction old density DampFac         ....    0.7000
   Max. Damping (<1)    DampMax         ....    0.9800
   Min. Damping (>=0)   DampMin         ....    0.0000
   Turn off err/grad.   DampErr         ....    0.1000
 Fernandez-Rico         CNVRico         .... off

SCF Procedure:
 Maximum # iterations   MaxIter         ....   300
 SCF integral mode      SCFMode         .... Direct
   Integral package                     .... LIBINT
 Reset frequency        DirectResetFreq ....    20
 Integral Threshold     Thresh          ....  1.000e-12 Eh
 Primitive CutOff       TCut            ....  1.000e-14 Eh

Convergence Tolerance:
 Convergence Check Mode ConvCheckMode   .... Total+1el-Energy
 Convergence forced     ConvForced      .... 0
 Energy Change          TolE            ....  1.000e-09 Eh
 1-El. energy change                    ....  1.000e-06 Eh
 DIIS Error             TolErr          ....  1.000e-08


Diagonalization of the overlap matrix:
Smallest eigenvalue                        ... 1.746e-04
Time for diagonalization                   ...    0.424 sec
Threshold for overlap eigenvalues          ... 1.000e-08
Number of eigenvalues below threshold      ... 0
Time for construction of square roots      ...    0.005 sec
Total time needed                          ...    0.429 sec

-------------------
DFT GRID GENERATION
-------------------

General Integration Accuracy     IntAcc      ...  5.010
Radial Grid Type                 RadialGrid  ... Gauss-Chebyshev
Angular Grid (max. acc.)         AngularGrid ... Lebedev-434
Angular grid pruning method      GridPruning ... 3 (G Style)
Weight generation scheme         WeightScheme... Becke
Basis function cutoff            BFCut       ...    1.0000e-12
Integration weight cutoff        WCut        ...    1.0000e-14
Grids for H and He will be reduced by one unit

# of grid points (after initial pruning)     ...  10362 (   0.0 sec)
# of grid points (after weights+screening)   ...  10362 (   0.0 sec)
Grid point division into batches done        ...    0.1 sec
Reduced shell lists constructed in    0.1 sec

Total number of grid points                  ...    10362
Total number of batches                      ...      162
Average number of points per batch           ...       63
Average number of grid points per atom       ...    10362
Average number of shells per batch           ...    11.74 (51.04%)
Average number of basis functions per batch  ...    40.36 (48.62%)
Average number of large shells per batch     ...     9.76 (83.16%)
Average number of large basis fcns per batch ...    34.52 (85.55%)
Maximum spatial batch extension              ...  32.58, 32.58, 32.58 au
Average spatial batch extension              ...   5.53,  5.41,  5.31 au

Time for grid setup =    0.139 sec

------------------------------
INITIAL GUESS: MODEL POTENTIAL
------------------------------
Loading Hartree-Fock densities                     ... done
Calculating cut-offs                               ... done
Setting up the integral package                    ... done
Initializing the effective Hamiltonian             ... done
Starting the Coulomb interaction                   ... done (   0.0 sec)
Reading the grid                                   ... done
Mapping shells                                     ... done
Starting the XC term evaluation                    ... done (   0.0 sec)
  promolecular density results
     # of electrons  =      3.000000060
     EX              =     -1.740640158
     EC              =     -0.057671456
     EX+EC           =     -1.798311614
Transforming the Hamiltonian                       ... done (   0.0 sec)
Diagonalizing the Hamiltonian                      ... done (   0.0 sec)
Back transforming the eigenvectors                 ... done (   0.0 sec)
Now organizing SCF variables                       ... done
                      ------------------
                      INITIAL GUESS DONE (   0.3 sec)
                      ------------------
--------------
SCF ITERATIONS
--------------
ITER       Energy         Delta-E        Max-DP      RMS-DP      [F,P]     Damp
               ***  Starting incremental Fock matrix formation  ***
  0     -7.4691898442   0.000000000000 0.00833996  0.00014125  0.0175589 0.7000
  1     -7.4693056140  -0.000115769789 0.00964451  0.00014653  0.0124026 0.7000
                               ***Turning on DIIS***
  2     -7.4694162031  -0.000110589085 0.02865199  0.00043814  0.0083942 0.0000
  3     -7.4697123183  -0.000296115174 0.00428186  0.00008603  0.0018250 0.0000
  4     -7.4697382097  -0.000025891446 0.00189703  0.00003916  0.0010920 0.0000
  5     -7.4697521170  -0.000013907262 0.00577710  0.00013573  0.0008918 0.0000
  6     -7.4697785754  -0.000026458453 0.00098409  0.00002051  0.0002597 0.0000
  7     -7.4697790172  -0.000000441745 0.00038337  0.00000657  0.0000322 0.0000
  8     -7.4697790362  -0.000000018976 0.00003595  0.00000061  0.0000026 0.0000
                 **** Energy Check signals convergence ****

               *****************************************************
               *                     SUCCESS                       *
               *           SCF CONVERGED AFTER   9 CYCLES          *
               *****************************************************


----------------
TOTAL SCF ENERGY
----------------

Total Energy       :           -7.46977904 Eh            -203.26302 eV

Components:
Nuclear Repulsion  :            0.00000000 Eh               0.00000 eV
Electronic Energy  :           -7.46977904 Eh            -203.26302 eV
One Electron Energy:           -9.67822309 Eh            -263.35784 eV
Two Electron Energy:            2.20844406 Eh              60.09482 eV

Virial components:
Potential Energy   :          -14.86104040 Eh            -404.38947 eV
Kinetic Energy     :            7.39126137 Eh             201.12645 eV
Virial Ratio       :            2.01062304


DFT components:
N(Alpha)           :        1.999999999121 electrons
N(Beta)            :        0.999999999953 electrons
N(Total)           :        2.999999999073 electrons
E(X)               :       -1.745353442350 Eh       
E(C)               :       -0.050518855049 Eh       
E(XC)              :       -1.795872297399 Eh       
DFET-embed. en.    :        0.000000000000 Eh       

---------------
SCF CONVERGENCE
---------------

  Last Energy change         ...   -1.9612e-10  Tolerance :   1.0000e-09
  Last MAX-Density change    ...    1.7923e-06  Tolerance :   1.0000e-08
  Last RMS-Density change    ...    5.4697e-08  Tolerance :   1.0000e-09
  Last DIIS Error            ...    3.6896e-07  Tolerance :   1.0000e-08

             **** THE GBW FILE WAS UPDATED (li_pbe_-001_z.gbw) ****
             **** DENSITY FILE WAS UPDATED (li_pbe_-001_z.scfp.tmp) ****
             **** ENERGY FILE WAS UPDATED (li_pbe_-001_z.en.tmp) ****
----------------------
UHF SPIN CONTAMINATION
----------------------

Warning: in a DFT calculation there is little theoretical justification to 
         calculate <S**2> as in Hartree-Fock theory. We will do it anyways
         but you should keep in mind that the values have only limited relevance

Expectation value of <S**2>     :     0.750001
Ideal value S*(S+1) for S=0.5   :     0.750000
Deviation                       :     0.000001

----------------
ORBITAL ENERGIES
----------------
                 SPIN UP ORBITALS
  NO   OCC          E(Eh)            E(eV) 
   0   1.0000      -1.922106       -52.3032 
   1   1.0000      -0.128702        -3.5022 
   2   0.0000      -0.089155        -2.4260 
   3   0.0000      -0.060081        -1.6349 
   4   0.0000      -0.060081        -1.6349 
   5   0.0000      -0.053400        -1.4531 
   6   0.0000      -0.015852        -0.4314 
   7   0.0000      -0.015852        -0.4314 
   8   0.0000      -0.006962        -0.1895 
   9   0.0000       0.004003         0.1089 
  10   0.0000       0.011916         0.3243 
  11   0.0000       0.011916         0.3243 
  12   0.0000       0.025829         0.7029 
  13   0.0000       0.025829         0.7029 
  14   0.0000       0.063596         1.7305 
  15   0.0000       0.070765         1.9256 
  16   0.0000       0.070765         1.9256 
  17   0.0000       0.073201         1.9919 
  18   0.0000       0.073201         1.9919 
  19   0.0000       0.080617         2.1937 
  20   0.0000       0.080617         2.1937 
  21   0.0000       0.089228         2.4280 
  22   0.0000       0.089228         2.4280 
  23   0.0000       0.091907         2.5009 
  24   0.0000       0.098042         2.6679 
  25   0.0000       0.119908         3.2629 
  26   0.0000       0.148701         4.0463 
  27   0.0000       0.148701         4.0464 
  28   0.0000       0.159328         4.3355 
  29   0.0000       0.159328         4.3355 
  30   0.0000       0.166242         4.5237 
  31   0.0000       0.166245         4.5238 
  32   0.0000       0.170097         4.6286 
  33   0.0000       0.170097         4.6286 
  34   0.0000       0.171357         4.6629 
  35   0.0000       0.212467         5.7815 
  36   0.0000       0.212468         5.7815 
  37   0.0000       0.215528         5.8648 
  38   0.0000       0.215528         5.8648 
  39   0.0000       0.216579         5.8934 
  40   0.0000       0.284422         7.7395 
  41   0.0000       0.307971         8.3803 
  42   0.0000       0.307971         8.3803 
  43   0.0000       0.324164         8.8210 
  44   0.0000       0.628009        17.0890 
  45   0.0000       0.628009        17.0890 
  46   0.0000       0.631579        17.1861 
  47   0.0000       0.631579        17.1861 
  48   0.0000       0.633560        17.2400 
  49   0.0000       0.633560        17.2400 
  50   0.0000       0.634190        17.2572 
  51   0.0000       0.737281        20.0624 
  52   0.0000       0.932012        25.3613 
  53   0.0000       0.932012        25.3613 
  54   0.0000       0.932720        25.3806 
  55   0.0000       0.932720        25.3806 
  56   0.0000       0.932852        25.3842 
  57   0.0000       1.144203        31.1354 
  58   0.0000       1.144203        31.1354 
  59   0.0000       1.146790        31.2058 
  60   0.0000       1.862783        50.6889 
  61   0.0000       2.247082        61.1462 
  62   0.0000       2.247082        61.1462 
  63   0.0000       2.247120        61.1472 
  64   0.0000       2.247145        61.1479 
  65   0.0000       2.247145        61.1479 
  66   0.0000       2.247202        61.1495 
  67   0.0000       2.247202        61.1495 
  68   0.0000       2.616983        71.2117 
  69   0.0000       2.616983        71.2117 
  70   0.0000       2.618391        71.2500 
  71   0.0000       2.618391        71.2500 
  72   0.0000       2.619227        71.2728 
  73   0.0000       2.619227        71.2728 
  74   0.0000       2.619672        71.2849 
  75   0.0000       2.619672        71.2849 
  76   0.0000       2.619814        71.2888 
  77   0.0000       5.128524       139.5542 
  78   0.0000       5.128524       139.5542 
  79   0.0000       5.129392       139.5778 
  80   0.0000       5.129392       139.5778 
  81   0.0000       5.129624       139.5842 
  82   0.0000      10.133469       275.7457 

                 SPIN DOWN ORBITALS
  NO   OCC          E(Eh)            E(eV) 
   0   1.0000      -1.914809       -52.1046 
   1   0.0000      -0.054507        -1.4832 
   2   0.0000      -0.008489        -0.2310 
   3   0.0000       0.022549         0.6136 
   4   0.0000       0.022549         0.6136 
   5   0.0000       0.062919         1.7121 
   6   0.0000       0.067619         1.8400 
   7   0.0000       0.067624         1.8401 
   8   0.0000       0.085983         2.3397 
   9   0.0000       0.096022         2.6129 
  10   0.0000       0.108487         2.9521 
  11   0.0000       0.108811         2.9609 
  12   0.0000       0.131138         3.5684 
  13   0.0000       0.131140         3.5685 
  14   0.0000       0.140453         3.8219 
  15   0.0000       0.156028         4.2457 
  16   0.0000       0.156120         4.2482 
  17   0.0000       0.156142         4.2488 
  18   0.0000       0.161664         4.3991 
  19   0.0000       0.161672         4.3993 
  20   0.0000       0.192955         5.2506 
  21   0.0000       0.193671         5.2701 
  22   0.0000       0.199400         5.4259 
  23   0.0000       0.220642         6.0040 
  24   0.0000       0.222186         6.0460 
  25   0.0000       0.241620         6.5748 
  26   0.0000       0.241694         6.5768 
  27   0.0000       0.295311         8.0358 
  28   0.0000       0.295409         8.0385 
  29   0.0000       0.358081         9.7439 
  30   0.0000       0.361936         9.8488 
  31   0.0000       0.361937         9.8488 
  32   0.0000       0.368179        10.0187 
  33   0.0000       0.368849        10.0369 
  34   0.0000       0.390735        10.6324 
  35   0.0000       0.419600        11.4179 
  36   0.0000       0.469689        12.7809 
  37   0.0000       0.469861        12.7856 
  38   0.0000       0.517640        14.0857 
  39   0.0000       0.517810        14.0903 
  40   0.0000       0.713093        19.4042 
  41   0.0000       0.748470        20.3669 
  42   0.0000       0.749070        20.3832 
  43   0.0000       0.769534        20.9401 
  44   0.0000       0.769537        20.9402 
  45   0.0000       0.781732        21.2720 
  46   0.0000       0.781814        21.2742 
  47   0.0000       0.789390        21.4804 
  48   0.0000       0.789394        21.4805 
  49   0.0000       0.794731        21.6257 
  50   0.0000       0.807529        21.9740 
  51   0.0000       0.996194        27.1078 
  52   0.0000       1.024732        27.8844 
  53   0.0000       1.025106        27.8946 
  54   0.0000       1.090968        29.6867 
  55   0.0000       1.091117        29.6908 
  56   0.0000       1.120424        30.4883 
  57   0.0000       1.269901        34.5558 
  58   0.0000       1.270262        34.5656 
  59   0.0000       1.694182        46.1010 
  60   0.0000       1.985962        54.0408 
  61   0.0000       2.287492        62.2458 
  62   0.0000       2.287493        62.2458 
  63   0.0000       2.293891        62.4200 
  64   0.0000       2.293943        62.4214 
  65   0.0000       2.298336        62.5409 
  66   0.0000       2.298340        62.5410 
  67   0.0000       2.300815        62.6084 
  68   0.0000       2.655416        72.2575 
  69   0.0000       2.655416        72.2575 
  70   0.0000       2.656699        72.2925 
  71   0.0000       2.656699        72.2925 
  72   0.0000       2.657576        72.3163 
  73   0.0000       2.657577        72.3163 
  74   0.0000       2.658098        72.3305 
  75   0.0000       2.658098        72.3305 
  76   0.0000       2.658248        72.3346 
  77   0.0000       5.145083       140.0048 
  78   0.0000       5.145105       140.0054 
  79   0.0000       5.148740       140.1043 
  80   0.0000       5.148748       140.1045 
  81   0.0000       5.150134       140.1423 
  82   0.0000      10.168952       276.7113 

                    ********************************
                    * MULLIKEN POPULATION ANALYSIS *
                    ********************************

--------------------------------------------
MULLIKEN ATOMIC CHARGES AND SPIN POPULATIONS
--------------------------------------------
   0 Li:    0.000000    1.000000
Sum of atomic charges         :    0.0000000
Sum of atomic spin populations:    1.0000000

-----------------------------------------------------
MULLIKEN REDUCED ORBITAL CHARGES AND SPIN POPULATIONS
-----------------------------------------------------
CHARGE
  0 Lis       :     2.893745  s :     2.893745
      pz      :     0.100852  p :     0.100852
      px      :     0.000000
      py      :     0.000000
      dz2     :     0.005077  d :     0.005077
      dxz     :     0.000000
      dyz     :     0.000000
      dx2y2   :     0.000000
      dxy     :     0.000000
      f0      :     0.000309  f :     0.000309
      f+1     :     0.000000
      f-1     :     0.000000
      f+2     :     0.000000
      f-2     :     0.000000
      f+3     :     0.000000
      f-3     :     0.000000
      g0      :     0.000017  g :     0.000017
      g+1     :     0.000000
      g-1     :     0.000000
      g+2     :     0.000000
      g-2     :     0.000000
      g+3     :     0.000000
      g-3     :     0.000000
      g+4     :     0.000000
      g-4     :     0.000000

SPIN
  0 Lis       :     0.893753  s :     0.893753
      pz      :     0.100844  p :     0.100844
      px      :    -0.000000
      py      :    -0.000000
      dz2     :     0.005077  d :     0.005077
      dxz     :    -0.000000
      dyz     :    -0.000000
      dx2y2   :    -0.000000
      dxy     :    -0.000000
      f0      :     0.000309  f :     0.000309
      f+1     :    -0.000000
      f-1     :    -0.000000
      f+2     :    -0.000000
      f-2     :    -0.000000
      f+3     :    -0.000000
      f-3     :    -0.000000
      g0      :     0.000017  g :     0.000017
      g+1     :    -0.000000
      g-1     :    -0.000000
      g+2     :    -0.000000
      g-2     :    -0.000000
      g+3     :    -0.000000
      g-3     :    -0.000000
      g+4     :    -0.000000
      g-4     :    -0.000000


                     *******************************
                     * LOEWDIN POPULATION ANALYSIS *
                     *******************************

-------------------------------------------
LOEWDIN ATOMIC CHARGES AND SPIN POPULATIONS
-------------------------------------------
   0 Li:    0.000000    1.000000

----------------------------------------------------
LOEWDIN REDUCED ORBITAL CHARGES AND SPIN POPULATIONS
----------------------------------------------------
CHARGE
  0 Lis       :     2.893745  s :     2.893745
      pz      :     0.100852  p :     0.100852
      px      :     0.000000
      py      :     0.000000
      dz2     :     0.005077  d :     0.005077
      dxz     :     0.000000
      dyz     :     0.000000
      dx2y2   :     0.000000
      dxy     :     0.000000
      f0      :     0.000309  f :     0.000309
      f+1     :     0.000000
      f-1     :     0.000000
      f+2     :     0.000000
      f-2     :     0.000000
      f+3     :     0.000000
      f-3     :     0.000000
      g0      :     0.000017  g :     0.000017
      g+1     :     0.000000
      g-1     :     0.000000
      g+2     :     0.000000
      g-2     :     0.000000
      g+3     :     0.000000
      g-3     :     0.000000
      g+4     :     0.000000
      g-4     :     0.000000

SPIN
  0 Lis       :     0.893753  s :     0.893753
      pz      :     0.100844  p :     0.100844
      px      :    -0.000000
      py      :    -0.000000
      dz2     :     0.005077  d :     0.005077
      dxz     :    -0.000000
      dyz     :    -0.000000
      dx2y2   :    -0.000000
      dxy     :    -0.000000
      f0      :     0.000309  f :     0.000309
      f+1     :    -0.000000
      f-1     :    -0.000000
      f+2     :    -0.000000
      f-2     :    -0.000000
      f+3     :    -0.000000
      f-3     :    -0.000000
      g0      :     0.000017  g :     0.000017
      g+1     :    -0.000000
      g-1     :    -0.000000
      g+2     :    -0.000000
      g-2     :    -0.000000
      g+3     :    -0.000000
      g-3     :    -0.000000
      g+4     :    -0.000000
      g-4     :    -0.000000


                      *****************************
                      * MAYER POPULATION ANALYSIS *
                      *****************************

  NA   - Mulliken gross atomic population
  ZA   - Total nuclear charge
  QA   - Mulliken gross atomic charge
  VA   - Mayer's total valence
  BVA  - Mayer's bonded valence
  FA   - Mayer's free valence

  ATOM       NA         ZA         QA         VA         BVA        FA
  0 Li     3.0000     3.0000     0.0000     1.0000     0.0000     1.0000

  Mayer bond orders larger than 0.1


-------
TIMINGS
-------

Total SCF time: 0 days 0 hours 0 min 5 sec 

Total time                  ....       5.903 sec
Sum of individual times     ....       5.124 sec  ( 86.8%)

Fock matrix formation       ....       4.667 sec  ( 79.1%)
  XC integration            ....       0.565 sec  ( 12.1% of F)
    Basis function eval.    ....       0.055 sec  (  9.7% of XC)
    Density eval.           ....       0.070 sec  ( 12.4% of XC)
    XC-Functional eval.     ....       0.038 sec  (  6.8% of XC)
    XC-Potential eval.      ....       0.155 sec  ( 27.5% of XC)
Diagonalization             ....       0.055 sec  (  0.9%)
Density matrix formation    ....       0.002 sec  (  0.0%)
Population analysis         ....       0.057 sec  (  1.0%)
Initial guess               ....       0.122 sec  (  2.1%)
Orbital Transformation      ....       0.000 sec  (  0.0%)
Orbital Orthonormalization  ....       0.000 sec  (  0.0%)
DIIS solution               ....       0.083 sec  (  1.4%)
Grid generation             ....       0.139 sec  (  2.3%)

-------------------------   --------------------
FINAL SINGLE POINT ENERGY        -7.469779036354
-------------------------   --------------------


                            ***************************************
                            *     ORCA property calculations      *
                            ***************************************

                                    ---------------------
                                    Active property flags
                                    ---------------------
   (+) Dipole Moment


------------------------------------------------------------------------------
                       ORCA ELECTRIC PROPERTIES CALCULATION
------------------------------------------------------------------------------

Dipole Moment Calculation                       ... on
Quadrupole Moment Calculation                   ... off
Polarizability Calculation                      ... off
GBWName                                         ... li_pbe_-001_z.gbw
Electron density file                           ... li_pbe_-001_z.scfp.tmp
The origin for moment calculation is the CENTER OF MASS  = ( 0.000000,  0.000000  0.000000)

-------------
DIPOLE MOMENT
-------------
                                X             Y             Z
Electronic contribution:     -0.00000       0.00000      -1.69402
Nuclear contribution   :      0.00000       0.00000       0.00000
                        -----------------------------------------
Total Dipole Moment    :     -0.00000       0.00000      -1.69402
                        -----------------------------------------
Magnitude (a.u.)       :      1.69402
Magnitude (Debye)      :      4.30586



--------------------
Rotational spectrum 
--------------------
 
Rotational constants in cm-1:     0.000000     0.000000     0.000000 
Rotational constants in MHz :     0.000000     0.000000     0.000000 

 Dipole components along the rotational axes: 
x,y,z [a.u.] :    -0.000000     0.000000    -1.694021 
x,y,z [Debye]:    -0.000000     0.000000    -4.305859 

 

Timings for individual modules:

Sum of individual times         ...       62.783 sec (=   1.046 min)
GTO integral calculation        ...       28.454 sec (=   0.474 min)  45.3 %
SCF iterations                  ...       34.329 sec (=   0.572 min)  54.7 %
                             ****ORCA TERMINATED NORMALLY****
TOTAL RUN TIME: 0 days 0 hours 1 minutes 26 seconds 992 msec
