
                                 *****************
                                 * O   R   C   A *
                                 *****************

           --- An Ab Initio, DFT and Semiempirical electronic structure package ---

                  #######################################################
                  #                        -***-                        #
                  #          Department of theory and spectroscopy      #
                  #               Directorship: Frank Neese             #
                  #        Max Planck Institute fuer Kohlenforschung    #
                  #                Kaiser Wilhelm Platz 1               #
                  #                 D-45470 Muelheim/Ruhr               #
                  #                      Germany                        #
                  #                                                     #
                  #                  All rights reserved                #
                  #                        -***-                        #
                  #######################################################


                         Program Version 4.1.1  - RELEASE  -


 With contributions from (in alphabetic order):
   Daniel Aravena         : Magnetic Properties
   Michael Atanasov       : Ab Initio Ligand Field Theory
   Alexander A. Auer      : GIAO ZORA
   Ute Becker             : Parallelization
   Giovanni Bistoni       : ED, Open-shell LED
   Martin Brehm           : Molecular dynamics
   Dmytro Bykov           : SCF Hessian
   Vijay G. Chilkuri      : MRCI spin determinant printing
   Dipayan Datta          : RHF DLPNO-CCSD density
   Achintya Kumar Dutta   : EOM-CC, STEOM-CC
   Dmitry Ganyushin       : Spin-Orbit,Spin-Spin,Magnetic field MRCI
   Miquel Garcia          : C-PCM Hessian
   Yang Guo               : DLPNO-NEVPT2, CIM, IAO-localization
   Andreas Hansen         : Spin unrestricted coupled pair/coupled cluster methods
   Benjamin Helmich-Paris : CASSCF linear response (MC-RPA)
   Lee Huntington         : MR-EOM, pCC
   Robert Izsak           : Overlap fitted RIJCOSX, COSX-SCS-MP3, EOM
   Christian Kollmar      : KDIIS, OOCD, Brueckner-CCSD(T), CCSD density
   Simone Kossmann        : Meta GGA functionals, TD-DFT gradient, OOMP2, MP2 Hessian
   Martin Krupicka        : AUTO-CI
   Lucas Lang             : DCDCAS
   Dagmar Lenk            : GEPOL surface, SMD
   Dimitrios Liakos       : Extrapolation schemes; parallel MDCI
   Dimitrios Manganas     : ROCIS; embedding schemes
   Dimitrios Pantazis     : SARC Basis sets
   Taras Petrenko         : DFT Hessian,TD-DFT gradient, ASA, ECA, R-Raman, ABS, FL, XAS/XES, NRVS
   Peter Pinski           : DLPNO-MP2, DLPNO-MP2 Gradient
   Christoph Reimann      : Effective Core Potentials
   Marius Retegan         : Local ZFS, SOC
   Christoph Riplinger    : Optimizer, TS searches, QM/MM, DLPNO-CCSD(T), (RO)-DLPNO pert. Triples
   Tobias Risthaus        : Range-separated hybrids, TD-DFT gradient, RPA, STAB
   Michael Roemelt        : Restricted open shell CIS
   Masaaki Saitow         : Open-shell DLPNO
   Barbara Sandhoefer     : DKH picture change effects
   Avijit Sen             : IP-ROCIS
   Kantharuban Sivalingam : CASSCF convergence, NEVPT2, FIC-MRCI
   Bernardo de Souza      : ESD, SOC TD-DFT
   Georgi Stoychev        : AutoAux, RI-MP2 NMR
   Willem Van den Heuvel  : Paramagnetic NMR
   Boris Wezisla          : Elementary symmetry handling
   Frank Wennmohs         : Technical directorship


 We gratefully acknowledge several colleagues who have allowed us to
 interface, adapt or use parts of their codes:
   Stefan Grimme, W. Hujo, H. Kruse,             : VdW corrections, initial TS optimization,
                  C. Bannwarth                     DFT functionals, gCP, sTDA/sTD-DF
   Ed Valeev                                     : LibInt (2-el integral package), F12 methods
   Garnet Chan, S. Sharma, J. Yang, R. Olivares  : DMRG
   Ulf Ekstrom                                   : XCFun DFT Library
   Mihaly Kallay                                 : mrcc  (arbitrary order and MRCC methods)
   Andreas Klamt, Michael Diedenhofen            : otool_cosmo (COSMO solvation model)
   Jiri Pittner, Ondrej Demel                    : Mk-CCSD
   Frank Weinhold                                : gennbo (NPA and NBO analysis)
   Christopher J. Cramer and Donald G. Truhlar   : smd solvation model
   Lars Goerigk                                  : TD-DFT with DH, B97 family of functionals
   V. Asgeirsson, H. Jonsson                     : NEB implementation
   FAccTs GmbH                                   : IRC, NEB, NEB-TS, Multilevel


 Your calculation uses the libint2 library for the computation of 2-el integrals
 For citations please refer to: http://libint.valeyev.net

 This ORCA versions uses:
   CBLAS   interface :  Fast vector & matrix operations
   LAPACKE interface :  Fast linear algebra routines
   SCALAPACK package :  Parallel linear algebra routines


----- Orbital basis set information -----
Your calculation utilizes the basis: aug-pc-4
   H, C-F              : F. Jensen, J. Chem. Phys. 115, 9113 (2001).
                         F. Jensen, J. Chem. Phys. 116, 7372 (2002).
                         F. Jensen, J. Chem. Phys. 117, 9234 (2002).
   Si-Cl               : F. Jensen, T. Helgaker, J. Chem. Phys. 121, 3463 (2004).
   He-B, Ne-Mg, Al, Ar : F. Jensen, J. Phys. Chem. A 111, 11198 (2007).
   K, Ca, Ga-Kr        : F. Jensen, J. Chem. Phys. 136, 094110 (2012).
   Sc-Zn               : F. Jensen, J. Chem. Phys. 138, 014107 (2013).

================================================================================
                                        WARNINGS
                       Please study these warnings very carefully!
================================================================================


INFO   : the flag for use of LIBINT has been found!

================================================================================
                                       INPUT FILE
================================================================================
NAME = no_pbe_-001_z.inp
|  1> ! uks pbe nori aug-pc-4 grid5 nofinalgrid verytightscf
|  2> 
|  3> %maxcore 1500
|  4> 
|  5> %pal nprocs 4 end
|  6> %scf
|  7>     efield 0.0, 0.0, -0.01
|  8>     maxiter 300
|  9> end
| 10> * xyz 0 2
| 11> N      0.0000  0.0000  0.0000
| 12> O      0.0000  0.0000  1.1538
| 13> *
| 14> 
| 15>                          ****END OF INPUT****
================================================================================

                       ****************************
                       * Single Point Calculation *
                       ****************************

---------------------------------
CARTESIAN COORDINATES (ANGSTROEM)
---------------------------------
  N      0.000000    0.000000    0.000000
  O      0.000000    0.000000    1.153800

----------------------------
CARTESIAN COORDINATES (A.U.)
----------------------------
  NO LB      ZA    FRAG     MASS         X           Y           Z
   0 N     7.0000    0    14.007    0.000000    0.000000    0.000000
   1 O     8.0000    0    15.999    0.000000    0.000000    2.180366

--------------------------------
INTERNAL COORDINATES (ANGSTROEM)
--------------------------------
 N      0   0   0     0.000000000000     0.00000000     0.00000000
 O      1   0   0     1.153800000000     0.00000000     0.00000000

---------------------------
INTERNAL COORDINATES (A.U.)
---------------------------
 N      0   0   0     0.000000000000     0.00000000     0.00000000
 O      1   0   0     2.180366013318     0.00000000     0.00000000

---------------------
BASIS SET INFORMATION
---------------------
There are 2 groups of distinct atoms

 Group   1 Type N   : 27s12p7d4f3g2h contracted to 9s8p7d4f3g2h pattern {1191111111/51111111/1111111/1111/111/11}
 Group   2 Type O   : 27s12p7d4f3g2h contracted to 9s8p7d4f3g2h pattern {1191111111/51111111/1111111/1111/111/11}

Atom   0N    basis set group =>   1
Atom   1O    basis set group =>   2


           ************************************************************
           *        Program running with 4 parallel MPI-processes     *
           *              working on a common directory               *
           ************************************************************
------------------------------------------------------------------------------
                           ORCA GTO INTEGRAL CALCULATION
------------------------------------------------------------------------------

                         BASIS SET STATISTICS AND STARTUP INFO

 # of primitive gaussian shells          ...  110
 # of primitive gaussian functions       ...  350
 # of contracted shells                  ...   66
 # of contracted basis functions         ...  290
 Highest angular momentum                ...    5
 Maximum contraction depth               ...   11
 Integral package used                   ... LIBINT
 Integral threshhold            Thresh   ...  1.000e-12
 Primitive cut-off              TCut     ...  1.000e-14


------------------------------ INTEGRAL EVALUATION ----------------------------


 * One electron integrals 
 Pre-screening matrix                    ... done
 Shell pair data                         ... done (   0.001 sec)


An Electric Field will be added: 0.000e+00 0.000e+00 -1.000e-02 au

  ... done adding electric field perturbation



           ************************************************************
           *        Program running with 4 parallel MPI-processes     *
           *              working on a common directory               *
           ************************************************************
-------------------------------------------------------------------------------
                                 ORCA SCF
-------------------------------------------------------------------------------

------------
SCF SETTINGS
------------
Hamiltonian:
 Density Functional     Method          .... DFT(GTOs)
 Exchange Functional    Exchange        .... PBE
   PBE kappa parameter   XKappa         ....  0.804000
   PBE mue parameter    XMuePBE         ....  0.219520
 Correlation Functional Correlation     .... PBE
   PBE beta parameter  CBetaPBE         ....  0.066725
 LDA part of GGA corr.  LDAOpt          .... PW91-LDA
 Gradients option       PostSCFGGA      .... off
   Density functional embedding theory  .... OFF
   NL short-range parameter             ....  6.400000


General Settings:
 Integral files         IntName         .... no_pbe_-001_z
 Hartree-Fock type      HFTyp           .... UHF
 Total Charge           Charge          ....    0
 Multiplicity           Mult            ....    2
 Number of Electrons    NEL             ....   15
 Basis Dimension        Dim             ....  290
 Nuclear Repulsion      ENuc            ....     25.6837611933 Eh

Convergence Acceleration:
 DIIS                   CNVDIIS         .... on
   Start iteration      DIISMaxIt       ....    12
   Startup error        DIISStart       ....  0.200000
   # of expansion vecs  DIISMaxEq       ....     5
   Bias factor          DIISBfac        ....   1.050
   Max. coefficient     DIISMaxC        ....  10.000
 Newton-Raphson         CNVNR           .... off
 SOSCF                  CNVSOSCF        .... off
 Level Shifting         CNVShift        .... on
   Level shift para.    LevelShift      ....    0.2500
   Turn off err/grad.   ShiftErr        ....    0.0010
 Zerner damping         CNVZerner       .... off
 Static damping         CNVDamp         .... on
   Fraction old density DampFac         ....    0.7000
   Max. Damping (<1)    DampMax         ....    0.9800
   Min. Damping (>=0)   DampMin         ....    0.0000
   Turn off err/grad.   DampErr         ....    0.1000
 Fernandez-Rico         CNVRico         .... off

SCF Procedure:
 Maximum # iterations   MaxIter         ....   300
 SCF integral mode      SCFMode         .... Direct
   Integral package                     .... LIBINT
 Reset frequency        DirectResetFreq ....    20
 Integral Threshold     Thresh          ....  1.000e-12 Eh
 Primitive CutOff       TCut            ....  1.000e-14 Eh

Convergence Tolerance:
 Convergence Check Mode ConvCheckMode   .... Total+1el-Energy
 Convergence forced     ConvForced      .... 0
 Energy Change          TolE            ....  1.000e-09 Eh
 1-El. energy change                    ....  1.000e-06 Eh
 DIIS Error             TolErr          ....  1.000e-08


Diagonalization of the overlap matrix:
Smallest eigenvalue                        ... 2.019e-06
Time for diagonalization                   ...    0.016 sec
Threshold for overlap eigenvalues          ... 1.000e-08
Number of eigenvalues below threshold      ... 0
Time for construction of square roots      ...    0.014 sec
Total time needed                          ...    0.030 sec

-------------------
DFT GRID GENERATION
-------------------

General Integration Accuracy     IntAcc      ...  5.010
Radial Grid Type                 RadialGrid  ... Gauss-Chebyshev
Angular Grid (max. acc.)         AngularGrid ... Lebedev-434
Angular grid pruning method      GridPruning ... 3 (G Style)
Weight generation scheme         WeightScheme... Becke
Basis function cutoff            BFCut       ...    1.0000e-12
Integration weight cutoff        WCut        ...    1.0000e-14
Grids for H and He will be reduced by one unit

# of grid points (after initial pruning)     ...  21432 (   0.0 sec)
# of grid points (after weights+screening)   ...  21342 (   0.0 sec)
nearest neighbour list constructed           ...    0.0 sec
Grid point re-assignment to atoms done       ...    0.0 sec
Grid point division into batches done        ...    0.2 sec
Reduced shell lists constructed in    0.2 sec

Total number of grid points                  ...    21342
Total number of batches                      ...      334
Average number of points per batch           ...       63
Average number of grid points per atom       ...    10671
Average number of shells per batch           ...    40.49 (61.35%)
Average number of basis functions per batch  ...   187.39 (64.62%)
Average number of large shells per batch     ...    34.79 (85.91%)
Average number of large basis fcns per batch ...   162.46 (86.70%)
Maximum spatial batch extension              ...  16.29, 16.29, 13.64 au
Average spatial batch extension              ...   1.36,  1.35,  1.17 au

Time for grid setup =    0.251 sec

------------------------------
INITIAL GUESS: MODEL POTENTIAL
------------------------------
Loading Hartree-Fock densities                     ... done
Calculating cut-offs                               ... done
Setting up the integral package                    ... done
Initializing the effective Hamiltonian             ... done
Starting the Coulomb interaction                   ... done (   0.0 sec)
Reading the grid                                   ... done
Mapping shells                                     ... done
Starting the XC term evaluation                    ... done (   0.2 sec)
  promolecular density results
     # of electrons  =     15.000002805
     EX              =    -14.595347118
     EC              =     -0.490731592
     EX+EC           =    -15.086078709
Transforming the Hamiltonian                       ... done (   0.0 sec)
Diagonalizing the Hamiltonian                      ... done (   0.0 sec)
Back transforming the eigenvectors                 ... done (   0.0 sec)
Now organizing SCF variables                       ... done
                      ------------------
                      INITIAL GUESS DONE (   0.6 sec)
                      ------------------
--------------
SCF ITERATIONS
--------------
ITER       Energy         Delta-E        Max-DP      RMS-DP      [F,P]     Damp
               ***  Starting incremental Fock matrix formation  ***
  0   -129.8098219879   0.000000000000 0.00692784  0.00008355  0.1241349 0.7000
  1   -129.8175046033  -0.007682615408 0.00432608  0.00004743  0.0258617 0.7000
                               ***Turning on DIIS***
  2   -129.8192438984  -0.001739295121 0.01223798  0.00009579  0.0207959 0.0000
  3   -129.8250796996  -0.005835801172 0.00344344  0.00002805  0.0193362 0.0000
  4   -129.8255020486  -0.000422349035 0.00051964  0.00000710  0.0031934 0.0000
  5   -129.8255214982  -0.000019449632 0.00094087  0.00000939  0.0005942 0.0000
  6   -129.8255245992  -0.000003100994 0.00008827  0.00000132  0.0007771 0.0000
  7   -129.8255252851  -0.000000685852 0.00004225  0.00000060  0.0002952 0.0000
  8   -129.8255254253  -0.000000140248 0.00002682  0.00000031  0.0001904 0.0000
  9   -129.8255254794  -0.000000054105 0.00000968  0.00000012  0.0000200 0.0000
 10   -129.8255254862  -0.000000006761 0.00000421  0.00000005  0.0000048 0.0000
 11   -129.8255254873  -0.000000001070 0.00000182  0.00000002  0.0000009 0.0000
 12   -129.8255254874  -0.000000000172 0.00000058  0.00000001  0.0000003 0.0000
 13   -129.8255254874  -0.000000000017 0.00000026  0.00000000  0.0000001 0.0000
                 **** Energy Check signals convergence ****

               *****************************************************
               *                     SUCCESS                       *
               *           SCF CONVERGED AFTER  14 CYCLES          *
               *****************************************************


----------------
TOTAL SCF ENERGY
----------------

Total Energy       :         -129.82552549 Eh           -3532.73215 eV

Components:
Nuclear Repulsion  :           25.68376119 Eh             698.89067 eV
Electronic Energy  :         -155.50928668 Eh           -4231.62282 eV
One Electron Energy:         -227.80875381 Eh           -6198.99134 eV
Two Electron Energy:           72.29946713 Eh            1967.36852 eV

Virial components:
Potential Energy   :         -259.26242116 Eh           -7054.88914 eV
Kinetic Energy     :          129.43689567 Eh            3522.15699 eV
Virial Ratio       :            2.00300247


DFT components:
N(Alpha)           :        8.000000351424 electrons
N(Beta)            :        7.000000370218 electrons
N(Total)           :       15.000000721641 electrons
E(X)               :      -14.731692067063 Eh       
E(C)               :       -0.489532114140 Eh       
E(XC)              :      -15.221224181203 Eh       
DFET-embed. en.    :        0.000000000000 Eh       

---------------
SCF CONVERGENCE
---------------

  Last Energy change         ...   -7.9581e-13  Tolerance :   1.0000e-09
  Last MAX-Density change    ...    7.4470e-07  Tolerance :   1.0000e-08
  Last RMS-Density change    ...    6.5162e-09  Tolerance :   1.0000e-09
  Last DIIS Error            ...    2.7949e-08  Tolerance :   1.0000e-08

             **** THE GBW FILE WAS UPDATED (no_pbe_-001_z.gbw) ****
             **** DENSITY FILE WAS UPDATED (no_pbe_-001_z.scfp.tmp) ****
             **** ENERGY FILE WAS UPDATED (no_pbe_-001_z.en.tmp) ****
----------------------
UHF SPIN CONTAMINATION
----------------------

Warning: in a DFT calculation there is little theoretical justification to 
         calculate <S**2> as in Hartree-Fock theory. We will do it anyways
         but you should keep in mind that the values have only limited relevance

Expectation value of <S**2>     :     0.752057
Ideal value S*(S+1) for S=0.5   :     0.750000
Deviation                       :     0.002057

----------------
ORBITAL ENERGIES
----------------
                 SPIN UP ORBITALS
  NO   OCC          E(Eh)            E(eV) 
   0   1.0000     -18.887560      -513.9566 
   1   1.0000     -14.116966      -384.1422 
   2   1.0000      -1.153403       -31.3857 
   3   1.0000      -0.622765       -16.9463 
   4   1.0000      -0.473456       -12.8834 
   5   1.0000      -0.471771       -12.8375 
   6   1.0000      -0.427044       -11.6205 
   7   1.0000      -0.164206        -4.4683 
   8   0.0000      -0.153511        -4.1773 
   9   0.0000      -0.042334        -1.1520 
  10   0.0000       0.004704         0.1280 
  11   0.0000       0.007594         0.2066 
  12   0.0000       0.022340         0.6079 
  13   0.0000       0.069640         1.8950 
  14   0.0000       0.075025         2.0415 
  15   0.0000       0.078737         2.1425 
  16   0.0000       0.092389         2.5140 
  17   0.0000       0.121073         3.2946 
  18   0.0000       0.122608         3.3363 
  19   0.0000       0.134563         3.6616 
  20   0.0000       0.135304         3.6818 
  21   0.0000       0.149746         4.0748 
  22   0.0000       0.173445         4.7197 
  23   0.0000       0.177002         4.8165 
  24   0.0000       0.180457         4.9105 
  25   0.0000       0.191074         5.1994 
  26   0.0000       0.191741         5.2175 
  27   0.0000       0.194281         5.2867 
  28   0.0000       0.207689         5.6515 
  29   0.0000       0.212185         5.7739 
  30   0.0000       0.282628         7.6907 
  31   0.0000       0.298056         8.1105 
  32   0.0000       0.298279         8.1166 
  33   0.0000       0.319213         8.6862 
  34   0.0000       0.323103         8.7921 
  35   0.0000       0.325200         8.8492 
  36   0.0000       0.351154         9.5554 
  37   0.0000       0.352394         9.5891 
  38   0.0000       0.362442         9.8626 
  39   0.0000       0.366359         9.9691 
  40   0.0000       0.369351        10.0506 
  41   0.0000       0.369510        10.0549 
  42   0.0000       0.370741        10.0884 
  43   0.0000       0.386655        10.5214 
  44   0.0000       0.421533        11.4705 
  45   0.0000       0.424509        11.5515 
  46   0.0000       0.427599        11.6356 
  47   0.0000       0.428907        11.6711 
  48   0.0000       0.457505        12.4494 
  49   0.0000       0.474712        12.9176 
  50   0.0000       0.475401        12.9363 
  51   0.0000       0.489826        13.3289 
  52   0.0000       0.503197        13.6927 
  53   0.0000       0.503273        13.6948 
  54   0.0000       0.558956        15.2100 
  55   0.0000       0.559622        15.2281 
  56   0.0000       0.596631        16.2352 
  57   0.0000       0.600821        16.3492 
  58   0.0000       0.604600        16.4520 
  59   0.0000       0.637859        17.3570 
  60   0.0000       0.640768        17.4362 
  61   0.0000       0.642709        17.4890 
  62   0.0000       0.665793        18.1172 
  63   0.0000       0.665836        18.1183 
  64   0.0000       0.673314        18.3218 
  65   0.0000       0.673563        18.3286 
  66   0.0000       0.709972        19.3193 
  67   0.0000       0.715334        19.4652 
  68   0.0000       0.724429        19.7127 
  69   0.0000       0.752862        20.4864 
  70   0.0000       0.753099        20.4929 
  71   0.0000       0.763992        20.7893 
  72   0.0000       0.764775        20.8106 
  73   0.0000       0.771096        20.9826 
  74   0.0000       0.774669        21.0798 
  75   0.0000       0.813856        22.1461 
  76   0.0000       0.813871        22.1465 
  77   0.0000       0.832380        22.6502 
  78   0.0000       0.834000        22.6943 
  79   0.0000       0.848581        23.0911 
  80   0.0000       0.894781        24.3482 
  81   0.0000       0.900664        24.5083 
  82   0.0000       0.900811        24.5123 
  83   0.0000       0.910641        24.7798 
  84   0.0000       0.910704        24.7815 
  85   0.0000       0.912158        24.8211 
  86   0.0000       0.913831        24.8666 
  87   0.0000       0.914096        24.8738 
  88   0.0000       0.915102        24.9012 
  89   0.0000       0.951951        25.9039 
  90   0.0000       0.953133        25.9361 
  91   0.0000       0.953232        25.9387 
  92   0.0000       0.957591        26.0574 
  93   0.0000       0.957795        26.0629 
  94   0.0000       0.990652        26.9570 
  95   0.0000       0.990670        26.9575 
  96   0.0000       1.022227        27.8162 
  97   0.0000       1.023088        27.8397 
  98   0.0000       1.105421        30.0800 
  99   0.0000       1.105474        30.0815 
 100   0.0000       1.144588        31.1458 
 101   0.0000       1.146692        31.2031 
 102   0.0000       1.149091        31.2684 
 103   0.0000       1.170243        31.8439 
 104   0.0000       1.204937        32.7880 
 105   0.0000       1.204970        32.7889 
 106   0.0000       1.268897        34.5284 
 107   0.0000       1.332181        36.2505 
 108   0.0000       1.333952        36.2987 
 109   0.0000       1.456776        39.6409 
 110   0.0000       1.484896        40.4061 
 111   0.0000       1.487259        40.4704 
 112   0.0000       1.560618        42.4666 
 113   0.0000       1.564056        42.5601 
 114   0.0000       1.623857        44.1874 
 115   0.0000       1.654299        45.0158 
 116   0.0000       1.657953        45.1152 
 117   0.0000       1.809162        49.2298 
 118   0.0000       1.830075        49.7989 
 119   0.0000       1.831586        49.8400 
 120   0.0000       1.877889        51.1000 
 121   0.0000       1.878135        51.1066 
 122   0.0000       1.950979        53.0888 
 123   0.0000       1.952203        53.1221 
 124   0.0000       2.074906        56.4611 
 125   0.0000       2.108576        57.3773 
 126   0.0000       2.108773        57.3826 
 127   0.0000       2.145312        58.3769 
 128   0.0000       2.147273        58.4303 
 129   0.0000       2.301739        62.6335 
 130   0.0000       2.377984        64.7082 
 131   0.0000       2.378841        64.7316 
 132   0.0000       2.420194        65.8568 
 133   0.0000       2.421146        65.8827 
 134   0.0000       2.698472        73.4292 
 135   0.0000       2.886893        78.5564 
 136   0.0000       2.887241        78.5658 
 137   0.0000       2.895557        78.7921 
 138   0.0000       2.899056        78.8873 
 139   0.0000       2.924509        79.5799 
 140   0.0000       3.200800        87.0982 
 141   0.0000       3.203217        87.1640 
 142   0.0000       3.227941        87.8367 
 143   0.0000       3.403298        92.6084 
 144   0.0000       3.742964       101.8512 
 145   0.0000       3.750571       102.0582 
 146   0.0000       3.978053       108.2483 
 147   0.0000       4.029498       109.6482 
 148   0.0000       4.031036       109.6901 
 149   0.0000       4.102200       111.6265 
 150   0.0000       4.104406       111.6866 
 151   0.0000       4.239094       115.3516 
 152   0.0000       4.413562       120.0991 
 153   0.0000       4.413743       120.1041 
 154   0.0000       4.424820       120.4055 
 155   0.0000       4.426727       120.4574 
 156   0.0000       4.568550       124.3166 
 157   0.0000       4.569101       124.3316 
 158   0.0000       4.605842       125.3313 
 159   0.0000       4.888917       133.0342 
 160   0.0000       4.889314       133.0450 
 161   0.0000       4.918055       133.8271 
 162   0.0000       4.918187       133.8307 
 163   0.0000       4.953466       134.7907 
 164   0.0000       4.953606       134.7945 
 165   0.0000       5.198149       141.4488 
 166   0.0000       5.198279       141.4523 
 167   0.0000       5.261275       143.1666 
 168   0.0000       5.330197       145.0420 
 169   0.0000       5.332194       145.0964 
 170   0.0000       5.523030       150.2893 
 171   0.0000       5.867837       159.6720 
 172   0.0000       5.869421       159.7151 
 173   0.0000       5.893041       160.3578 
 174   0.0000       5.893064       160.3584 
 175   0.0000       6.089733       165.7101 
 176   0.0000       6.090234       165.7237 
 177   0.0000       6.467013       175.9764 
 178   0.0000       6.467152       175.9802 
 179   0.0000       6.549286       178.2151 
 180   0.0000       6.554126       178.3468 
 181   0.0000       6.673898       181.6060 
 182   0.0000       6.706641       182.4970 
 183   0.0000       6.713695       182.6889 
 184   0.0000       6.939200       188.8252 
 185   0.0000       7.153159       194.6474 
 186   0.0000       7.443347       202.5438 
 187   0.0000       7.445083       202.5910 
 188   0.0000       7.707208       209.7238 
 189   0.0000       7.708693       209.7642 
 190   0.0000       8.143017       221.5828 
 191   0.0000       8.370167       227.7638 
 192   0.0000       8.372933       227.8391 
 193   0.0000       8.914077       242.5644 
 194   0.0000       8.924149       242.8384 
 195   0.0000       9.027078       245.6393 
 196   0.0000       9.284147       252.6345 
 197   0.0000       9.286432       252.6967 
 198   0.0000       9.921848       269.9872 
 199   0.0000      10.155711       276.3510 
 200   0.0000      10.158571       276.4288 
 201   0.0000      10.501496       285.7602 
 202   0.0000      10.910043       296.8774 
 203   0.0000      10.914739       297.0051 
 204   0.0000      10.942705       297.7661 
 205   0.0000      10.943125       297.7776 
 206   0.0000      10.981413       298.8194 
 207   0.0000      10.984340       298.8991 
 208   0.0000      11.049674       300.6769 
 209   0.0000      11.049765       300.6794 
 210   0.0000      11.108763       302.2848 
 211   0.0000      11.109770       302.3122 
 212   0.0000      11.192150       304.5539 
 213   0.0000      11.193739       304.5971 
 214   0.0000      11.279707       306.9364 
 215   0.0000      11.279785       306.9386 
 216   0.0000      11.587342       315.3076 
 217   0.0000      11.659047       317.2588 
 218   0.0000      11.886569       323.4500 
 219   0.0000      11.889998       323.5433 
 220   0.0000      11.941756       324.9517 
 221   0.0000      11.941760       324.9518 
 222   0.0000      12.268179       333.8341 
 223   0.0000      12.268219       333.8352 
 224   0.0000      12.576909       342.2351 
 225   0.0000      12.577145       342.2415 
 226   0.0000      12.758546       347.1777 
 227   0.0000      12.760116       347.2204 
 228   0.0000      12.861645       349.9831 
 229   0.0000      13.123446       357.1071 
 230   0.0000      13.126330       357.1856 
 231   0.0000      13.159598       358.0909 
 232   0.0000      13.569581       369.2471 
 233   0.0000      13.569862       369.2547 
 234   0.0000      14.002610       381.0304 
 235   0.0000      14.007806       381.1718 
 236   0.0000      14.162967       385.3939 
 237   0.0000      14.163363       385.4047 
 238   0.0000      14.294488       388.9728 
 239   0.0000      14.295355       388.9964 
 240   0.0000      14.815510       403.1505 
 241   0.0000      14.819325       403.2543 
 242   0.0000      15.132714       411.7821 
 243   0.0000      15.467595       420.8947 
 244   0.0000      15.474161       421.0733 
 245   0.0000      15.907137       432.8552 
 246   0.0000      15.909343       432.9152 
 247   0.0000      15.991316       435.1458 
 248   0.0000      16.397672       446.2034 
 249   0.0000      16.416515       446.7161 
 250   0.0000      16.426989       447.0011 
 251   0.0000      16.690513       454.1720 
 252   0.0000      16.697048       454.3498 
 253   0.0000      16.872890       459.1347 
 254   0.0000      16.872902       459.1350 
 255   0.0000      17.136314       466.3028 
 256   0.0000      17.136468       466.3070 
 257   0.0000      17.887035       486.7310 
 258   0.0000      17.888366       486.7672 
 259   0.0000      18.615615       506.5566 
 260   0.0000      18.618031       506.6224 
 261   0.0000      18.647792       507.4322 
 262   0.0000      18.786020       511.1936 
 263   0.0000      18.792626       511.3734 
 264   0.0000      20.379724       554.5605 
 265   0.0000      22.884086       622.7076 
 266   0.0000      22.886514       622.7737 
 267   0.0000      23.790042       647.3600 
 268   0.0000      24.252204       659.9360 
 269   0.0000      24.260862       660.1716 
 270   0.0000      25.722375       699.9414 
 271   0.0000      26.094045       710.0551 
 272   0.0000      26.109403       710.4730 
 273   0.0000      28.652252       779.6674 
 274   0.0000      31.025418       844.2445 
 275   0.0000      31.777408       864.7072 
 276   0.0000      31.783182       864.8644 
 277   0.0000      34.191630       930.4016 
 278   0.0000      47.500638      1292.5581 
 279   0.0000      47.504353      1292.6592 
 280   0.0000      47.872369      1302.6734 
 281   0.0000      47.882315      1302.9440 
 282   0.0000      49.172823      1338.0605 
 283   0.0000      66.448095      1808.1446 
 284   0.0000      66.449399      1808.1801 
 285   0.0000      67.251190      1829.9979 
 286   0.0000      67.255544      1830.1164 
 287   0.0000      68.954319      1876.3424 
 288   0.0000     105.410635      2868.3692 
 289   0.0000     143.231441      3897.5257 

                 SPIN DOWN ORBITALS
  NO   OCC          E(Eh)            E(eV) 
   0   1.0000     -18.879111      -513.7267 
   1   1.0000     -14.102774      -383.7560 
   2   1.0000      -1.137030       -30.9402 
   3   1.0000      -0.595944       -16.2165 
   4   1.0000      -0.462989       -12.5986 
   5   1.0000      -0.425717       -11.5843 
   6   1.0000      -0.406248       -11.0546 
   7   0.0000      -0.138727        -3.7750 
   8   0.0000      -0.093959        -2.5567 
   9   0.0000      -0.037498        -1.0204 
  10   0.0000       0.009977         0.2715 
  11   0.0000       0.011492         0.3127 
  12   0.0000       0.027491         0.7481 
  13   0.0000       0.075567         2.0563 
  14   0.0000       0.082142         2.2352 
  15   0.0000       0.084767         2.3066 
  16   0.0000       0.096701         2.6314 
  17   0.0000       0.124678         3.3927 
  18   0.0000       0.128966         3.5094 
  19   0.0000       0.140660         3.8276 
  20   0.0000       0.140887         3.8337 
  21   0.0000       0.154866         4.2141 
  22   0.0000       0.179752         4.8913 
  23   0.0000       0.181843         4.9482 
  24   0.0000       0.184537         5.0215 
  25   0.0000       0.197402         5.3716 
  26   0.0000       0.200562         5.4576 
  27   0.0000       0.200825         5.4647 
  28   0.0000       0.215976         5.8770 
  29   0.0000       0.220470         5.9993 
  30   0.0000       0.289768         7.8850 
  31   0.0000       0.304671         8.2905 
  32   0.0000       0.304674         8.2906 
  33   0.0000       0.326524         8.8852 
  34   0.0000       0.330866         9.0033 
  35   0.0000       0.332699         9.0532 
  36   0.0000       0.359106         9.7718 
  37   0.0000       0.359140         9.7727 
  38   0.0000       0.371393        10.1061 
  39   0.0000       0.374633        10.1943 
  40   0.0000       0.376664        10.2495 
  41   0.0000       0.376749        10.2519 
  42   0.0000       0.380848        10.3634 
  43   0.0000       0.394161        10.7257 
  44   0.0000       0.426733        11.6120 
  45   0.0000       0.430912        11.7257 
  46   0.0000       0.439127        11.9492 
  47   0.0000       0.439362        11.9557 
  48   0.0000       0.464940        12.6517 
  49   0.0000       0.481063        13.0904 
  50   0.0000       0.481169        13.0933 
  51   0.0000       0.497133        13.5277 
  52   0.0000       0.510625        13.8948 
  53   0.0000       0.510625        13.8948 
  54   0.0000       0.562130        15.2963 
  55   0.0000       0.572308        15.5733 
  56   0.0000       0.602506        16.3950 
  57   0.0000       0.607176        16.5221 
  58   0.0000       0.611028        16.6269 
  59   0.0000       0.644104        17.5270 
  60   0.0000       0.649469        17.6730 
  61   0.0000       0.649904        17.6848 
  62   0.0000       0.671257        18.2658 
  63   0.0000       0.671257        18.2658 
  64   0.0000       0.680575        18.5194 
  65   0.0000       0.680580        18.5195 
  66   0.0000       0.719883        19.5890 
  67   0.0000       0.728940        19.8355 
  68   0.0000       0.730737        19.8844 
  69   0.0000       0.762388        20.7456 
  70   0.0000       0.762446        20.7472 
  71   0.0000       0.770188        20.9579 
  72   0.0000       0.770309        20.9612 
  73   0.0000       0.778719        21.1900 
  74   0.0000       0.787115        21.4185 
  75   0.0000       0.820299        22.3215 
  76   0.0000       0.820299        22.3215 
  77   0.0000       0.836061        22.7504 
  78   0.0000       0.845656        23.0115 
  79   0.0000       0.857678        23.3386 
  80   0.0000       0.900794        24.5118 
  81   0.0000       0.906815        24.6757 
  82   0.0000       0.906833        24.6762 
  83   0.0000       0.916832        24.9483 
  84   0.0000       0.921497        25.0752 
  85   0.0000       0.922044        25.0901 
  86   0.0000       0.922210        25.0946 
  87   0.0000       0.925212        25.1763 
  88   0.0000       0.925364        25.1804 
  89   0.0000       0.959241        26.1023 
  90   0.0000       0.961606        26.1666 
  91   0.0000       0.961607        26.1667 
  92   0.0000       0.965589        26.2750 
  93   0.0000       0.965601        26.2753 
  94   0.0000       0.996972        27.1290 
  95   0.0000       0.996972        27.1290 
  96   0.0000       1.031096        28.0576 
  97   0.0000       1.031118        28.0581 
  98   0.0000       1.113833        30.3089 
  99   0.0000       1.113833        30.3089 
 100   0.0000       1.151043        31.3215 
 101   0.0000       1.151174        31.3250 
 102   0.0000       1.156145        31.4603 
 103   0.0000       1.178106        32.0579 
 104   0.0000       1.206994        32.8440 
 105   0.0000       1.217337        33.1254 
 106   0.0000       1.275446        34.7067 
 107   0.0000       1.350169        36.7400 
 108   0.0000       1.350174        36.7401 
 109   0.0000       1.463404        39.8212 
 110   0.0000       1.490525        40.5592 
 111   0.0000       1.508154        41.0390 
 112   0.0000       1.570186        42.7269 
 113   0.0000       1.590855        43.2894 
 114   0.0000       1.635666        44.5087 
 115   0.0000       1.663313        45.2610 
 116   0.0000       1.683694        45.8156 
 117   0.0000       1.815794        49.4103 
 118   0.0000       1.844900        50.2023 
 119   0.0000       1.844994        50.2048 
 120   0.0000       1.895803        51.5874 
 121   0.0000       1.895813        51.5877 
 122   0.0000       1.966355        53.5072 
 123   0.0000       1.966790        53.5191 
 124   0.0000       2.089139        56.8484 
 125   0.0000       2.124008        57.7972 
 126   0.0000       2.124361        57.8068 
 127   0.0000       2.149278        58.4848 
 128   0.0000       2.169018        59.0220 
 129   0.0000       2.309317        62.8397 
 130   0.0000       2.380707        64.7823 
 131   0.0000       2.396687        65.2172 
 132   0.0000       2.433054        66.2068 
 133   0.0000       2.433269        66.2126 
 134   0.0000       2.712783        73.8186 
 135   0.0000       2.889777        78.6348 
 136   0.0000       2.909515        79.1719 
 137   0.0000       2.924539        79.5807 
 138   0.0000       2.935661        79.8834 
 139   0.0000       2.949167        80.2509 
 140   0.0000       3.207605        87.2834 
 141   0.0000       3.233748        87.9948 
 142   0.0000       3.244440        88.2857 
 143   0.0000       3.415660        92.9448 
 144   0.0000       3.762790       102.3907 
 145   0.0000       3.801019       103.4310 
 146   0.0000       3.991808       108.6226 
 147   0.0000       4.048735       110.1717 
 148   0.0000       4.049058       110.1805 
 149   0.0000       4.104204       111.6811 
 150   0.0000       4.125921       112.2720 
 151   0.0000       4.249027       115.6219 
 152   0.0000       4.419063       120.2488 
 153   0.0000       4.446303       120.9900 
 154   0.0000       4.446626       120.9989 
 155   0.0000       4.447676       121.0274 
 156   0.0000       4.606038       125.3367 
 157   0.0000       4.606104       125.3385 
 158   0.0000       4.620346       125.7260 
 159   0.0000       4.916879       133.7951 
 160   0.0000       4.916948       133.7970 
 161   0.0000       4.957250       134.8936 
 162   0.0000       4.961898       135.0201 
 163   0.0000       4.961899       135.0201 
 164   0.0000       4.985482       135.6619 
 165   0.0000       5.220099       142.0461 
 166   0.0000       5.220113       142.0465 
 167   0.0000       5.273942       143.5112 
 168   0.0000       5.353921       145.6876 
 169   0.0000       5.356657       145.7620 
 170   0.0000       5.537047       150.6707 
 171   0.0000       5.888137       160.2243 
 172   0.0000       5.888230       160.2269 
 173   0.0000       5.912728       160.8935 
 174   0.0000       5.912731       160.8936 
 175   0.0000       6.093868       165.8226 
 176   0.0000       6.122012       166.5884 
 177   0.0000       6.486401       176.5039 
 178   0.0000       6.486428       176.5047 
 179   0.0000       6.560413       178.5179 
 180   0.0000       6.595247       179.4658 
 181   0.0000       6.697736       182.2547 
 182   0.0000       6.771529       184.2627 
 183   0.0000       6.771909       184.2730 
 184   0.0000       6.955680       189.2737 
 185   0.0000       7.178360       195.3331 
 186   0.0000       7.448180       202.6753 
 187   0.0000       7.479647       203.5315 
 188   0.0000       7.726476       210.2481 
 189   0.0000       7.726604       210.2516 
 190   0.0000       8.155177       221.9137 
 191   0.0000       8.373387       227.8515 
 192   0.0000       8.399656       228.5663 
 193   0.0000       8.937936       243.2136 
 194   0.0000       8.985465       244.5069 
 195   0.0000       9.042342       246.0546 
 196   0.0000       9.317341       253.5377 
 197   0.0000       9.317473       253.5413 
 198   0.0000       9.945296       270.6253 
 199   0.0000      10.162560       276.5373 
 200   0.0000      10.192616       277.3552 
 201   0.0000      10.520279       286.2714 
 202   0.0000      10.918897       297.1183 
 203   0.0000      10.952534       298.0336 
 204   0.0000      10.967129       298.4307 
 205   0.0000      10.967201       298.4327 
 206   0.0000      11.011291       299.6325 
 207   0.0000      11.011825       299.6470 
 208   0.0000      11.085412       301.6494 
 209   0.0000      11.085416       301.6495 
 210   0.0000      11.115711       302.4739 
 211   0.0000      11.150187       303.4120 
 212   0.0000      11.266637       306.5808 
 213   0.0000      11.266844       306.5864 
 214   0.0000      11.344100       308.6887 
 215   0.0000      11.344102       308.6887 
 216   0.0000      11.604083       315.7631 
 217   0.0000      11.673037       317.6395 
 218   0.0000      11.920914       324.3846 
 219   0.0000      11.921138       324.3906 
 220   0.0000      11.967896       325.6630 
 221   0.0000      11.967897       325.6630 
 222   0.0000      12.293357       334.5192 
 223   0.0000      12.293358       334.5193 
 224   0.0000      12.611122       343.1661 
 225   0.0000      12.611154       343.1669 
 226   0.0000      12.780876       347.7853 
 227   0.0000      12.782366       347.8259 
 228   0.0000      12.883458       350.5767 
 229   0.0000      13.128365       357.2410 
 230   0.0000      13.156897       358.0174 
 231   0.0000      13.182058       358.7020 
 232   0.0000      13.595052       369.9402 
 233   0.0000      13.595077       369.9408 
 234   0.0000      14.012062       381.2876 
 235   0.0000      14.045889       382.2081 
 236   0.0000      14.240285       387.4978 
 237   0.0000      14.240334       387.4992 
 238   0.0000      14.346416       390.3858 
 239   0.0000      14.346516       390.3886 
 240   0.0000      14.852259       404.1505 
 241   0.0000      14.854722       404.2175 
 242   0.0000      15.159042       412.4985 
 243   0.0000      15.479393       421.2157 
 244   0.0000      15.519345       422.3029 
 245   0.0000      15.929961       433.4763 
 246   0.0000      15.933715       433.5784 
 247   0.0000      16.019386       435.9097 
 248   0.0000      16.416449       446.7143 
 249   0.0000      16.430575       447.0987 
 250   0.0000      16.467975       448.1164 
 251   0.0000      16.759455       456.0479 
 252   0.0000      16.760066       456.0646 
 253   0.0000      16.909526       460.1316 
 254   0.0000      16.909574       460.1329 
 255   0.0000      17.162407       467.0128 
 256   0.0000      17.162426       467.0134 
 257   0.0000      17.906770       487.2680 
 258   0.0000      17.907128       487.2777 
 259   0.0000      18.621964       506.7294 
 260   0.0000      18.652949       507.5725 
 261   0.0000      18.664623       507.8902 
 262   0.0000      18.795615       511.4547 
 263   0.0000      18.827056       512.3103 
 264   0.0000      20.393212       554.9275 
 265   0.0000      22.923014       623.7669 
 266   0.0000      22.923059       623.7681 
 267   0.0000      23.816835       648.0890 
 268   0.0000      24.262621       660.2195 
 269   0.0000      24.289559       660.9525 
 270   0.0000      25.733619       700.2474 
 271   0.0000      26.125654       710.9152 
 272   0.0000      26.165565       712.0012 
 273   0.0000      28.674097       780.2619 
 274   0.0000      31.039958       844.6402 
 275   0.0000      31.790206       865.0555 
 276   0.0000      31.817936       865.8100 
 277   0.0000      34.202452       930.6960 
 278   0.0000      47.551053      1293.9299 
 279   0.0000      47.551482      1293.9416 
 280   0.0000      47.888700      1303.1178 
 281   0.0000      47.918775      1303.9362 
 282   0.0000      49.193445      1338.6217 
 283   0.0000      66.474248      1808.8563 
 284   0.0000      66.474297      1808.8576 
 285   0.0000      67.257330      1830.1650 
 286   0.0000      67.277214      1830.7061 
 287   0.0000      68.964945      1876.6316 
 288   0.0000     105.426505      2868.8011 
 289   0.0000     143.240609      3897.7751 

                    ********************************
                    * MULLIKEN POPULATION ANALYSIS *
                    ********************************

--------------------------------------------
MULLIKEN ATOMIC CHARGES AND SPIN POPULATIONS
--------------------------------------------
   0 N :    0.118998    0.635892
   1 O :   -0.118998    0.364108
Sum of atomic charges         :   -0.0000000
Sum of atomic spin populations:    1.0000000

-----------------------------------------------------
MULLIKEN REDUCED ORBITAL CHARGES AND SPIN POPULATIONS
-----------------------------------------------------
CHARGE
  0 N s       :     3.877449  s :     3.877449
      pz      :     0.954232  p :     2.913331
      px      :     0.673325
      py      :     1.285774
      dz2     :     0.019651  d :     0.078121
      dxz     :     0.028782
      dyz     :     0.029419
      dx2y2   :     0.000268
      dxy     :     0.000000
      f0      :     0.002265  f :     0.011079
      f+1     :     0.003659
      f-1     :     0.005098
      f+2     :     0.000021
      f-2     :     0.000000
      f+3     :     0.000018
      f-3     :     0.000018
      g0      :     0.000464  g :     0.000949
      g+1     :     0.000512
      g-1     :    -0.000032
      g+2     :     0.000002
      g-2     :     0.000000
      g+3     :     0.000001
      g-3     :     0.000002
      g+4     :     0.000000
      g-4     :     0.000000
      h0      :     0.000067  h :     0.000074
      h+1     :     0.000034
      h-1     :    -0.000029
      h+2     :     0.000000
      h-2     :     0.000000
      h+3     :     0.000000
      h-3     :     0.000000
      h+4     :     0.000000
      h-4     :     0.000000
      h+5     :     0.000000
      h-5     :     0.000000
  1 O s       :     3.876321  s :     3.876321
      pz      :     1.252404  p :     4.154955
      px      :     1.272873
      py      :     1.629679
      dz2     :     0.014715  d :     0.076849
      dxz     :     0.018052
      dyz     :     0.044018
      dx2y2   :     0.000064
      dxy     :     0.000000
      f0      :     0.001628  f :     0.009673
      f+1     :     0.002457
      f-1     :     0.005550
      f+2     :     0.000014
      f-2     :     0.000000
      f+3     :     0.000012
      f-3     :     0.000013
      g0      :     0.000381  g :     0.001044
      g+1     :     0.000255
      g-1     :     0.000402
      g+2     :     0.000004
      g-2     :     0.000000
      g+3     :     0.000001
      g-3     :     0.000001
      g+4     :     0.000000
      g-4     :     0.000000
      h0      :     0.000051  h :     0.000155
      h+1     :     0.000017
      h-1     :     0.000085
      h+2     :     0.000001
      h-2     :     0.000000
      h+3     :     0.000000
      h-3     :     0.000000
      h+4     :     0.000000
      h-4     :     0.000000
      h+5     :     0.000000
      h-5     :     0.000000

SPIN
  0 N s       :    -0.047030  s :    -0.047030
      pz      :    -0.005739  p :     0.685961
      px      :     0.015782
      py      :     0.675918
      dz2     :     0.000063  d :    -0.000231
      dxz     :    -0.000114
      dyz     :     0.000074
      dx2y2   :    -0.000254
      dxy     :    -0.000000
      f0      :    -0.000662  f :    -0.001802
      f+1     :    -0.000655
      f-1     :    -0.000436
      f+2     :    -0.000015
      f-2     :    -0.000000
      f+3     :    -0.000018
      f-3     :    -0.000016
      g0      :    -0.000127  g :    -0.000919
      g+1     :    -0.000071
      g-1     :    -0.000721
      g+2     :    -0.000000
      g-2     :    -0.000000
      g+3     :     0.000000
      g-3     :     0.000000
      g+4     :     0.000000
      g-4     :     0.000000
      h0      :    -0.000014  h :    -0.000087
      h+1     :    -0.000000
      h-1     :    -0.000073
      h+2     :    -0.000000
      h-2     :    -0.000000
      h+3     :    -0.000000
      h-3     :    -0.000000
      h+4     :     0.000000
      h-4     :     0.000000
      h+5     :     0.000000
      h-5     :     0.000000
  1 O s       :     0.019104  s :     0.019104
      pz      :     0.030992  p :     0.314335
      px      :    -0.014001
      py      :     0.297344
      dz2     :     0.003898  d :     0.028002
      dxz     :    -0.000792
      dyz     :     0.024954
      dx2y2   :    -0.000057
      dxy     :    -0.000000
      f0      :    -0.000042  f :     0.002347
      f+1     :    -0.000192
      f-1     :     0.002610
      f+2     :    -0.000007
      f-2     :    -0.000000
      f+3     :    -0.000010
      f-3     :    -0.000011
      g0      :    -0.000094  g :     0.000243
      g+1     :     0.000063
      g-1     :     0.000276
      g+2     :    -0.000002
      g-2     :    -0.000000
      g+3     :    -0.000000
      g-3     :    -0.000000
      g+4     :     0.000000
      g-4     :     0.000000
      h0      :    -0.000012  h :     0.000076
      h+1     :     0.000008
      h-1     :     0.000081
      h+2     :    -0.000001
      h-2     :    -0.000000
      h+3     :    -0.000000
      h-3     :    -0.000001
      h+4     :     0.000000
      h-4     :     0.000000
      h+5     :     0.000000
      h-5     :     0.000000


                     *******************************
                     * LOEWDIN POPULATION ANALYSIS *
                     *******************************

-------------------------------------------
LOEWDIN ATOMIC CHARGES AND SPIN POPULATIONS
-------------------------------------------
   0 N :   -0.060030    0.595414
   1 O :    0.060030    0.404586

----------------------------------------------------
LOEWDIN REDUCED ORBITAL CHARGES AND SPIN POPULATIONS
----------------------------------------------------
CHARGE
  0 N s       :     3.276954  s :     3.276954
      pz      :     1.272121  p :     3.001617
      px      :     0.652207
      py      :     1.077289
      dz2     :     0.232231  d :     0.516436
      dxz     :     0.099721
      dyz     :     0.184240
      dx2y2   :     0.000244
      dxy     :     0.000000
      f0      :     0.070837  f :     0.204656
      f+1     :     0.047785
      f-1     :     0.085973
      f+2     :     0.000025
      f-2     :     0.000000
      f+3     :     0.000018
      f-3     :     0.000018
      g0      :     0.015228  g :     0.049246
      g+1     :     0.013327
      g-1     :     0.020686
      g+2     :     0.000002
      g-2     :     0.000000
      g+3     :     0.000001
      g-3     :     0.000001
      g+4     :     0.000000
      g-4     :     0.000000
      h0      :     0.004001  h :     0.011121
      h+1     :     0.002916
      h-1     :     0.004203
      h+2     :     0.000001
      h-2     :     0.000000
      h+3     :     0.000000
      h-3     :     0.000000
      h+4     :     0.000000
      h-4     :     0.000000
      h+5     :     0.000000
      h-5     :     0.000000
  1 O s       :     3.350759  s :     3.350759
      pz      :     1.512791  p :     4.008363
      px      :     1.112927
      py      :     1.382645
      dz2     :     0.196739  d :     0.405784
      dxz     :     0.043739
      dyz     :     0.165240
      dx2y2   :     0.000067
      dxy     :     0.000000
      f0      :     0.052059  f :     0.135254
      f+1     :     0.020395
      f-1     :     0.062752
      f+2     :     0.000022
      f-2     :     0.000000
      f+3     :     0.000012
      f-3     :     0.000013
      g0      :     0.012523  g :     0.031522
      g+1     :     0.005453
      g-1     :     0.013536
      g+2     :     0.000008
      g-2     :     0.000000
      g+3     :     0.000001
      g-3     :     0.000001
      g+4     :     0.000000
      g-4     :     0.000000
      h0      :     0.003382  h :     0.008288
      h+1     :     0.001498
      h-1     :     0.003402
      h+2     :     0.000004
      h-2     :     0.000000
      h+3     :     0.000000
      h-3     :     0.000000
      h+4     :     0.000000
      h-4     :     0.000000
      h+5     :     0.000000
      h-5     :     0.000000

SPIN
  0 N s       :     0.004209  s :     0.004209
      pz      :    -0.003534  p :     0.476669
      px      :     0.011308
      py      :     0.468895
      dz2     :     0.001353  d :     0.073939
      dxz     :    -0.002317
      dyz     :     0.075129
      dx2y2   :    -0.000226
      dxy     :    -0.000000
      f0      :    -0.000004  f :     0.032639
      f+1     :    -0.001195
      f-1     :     0.033891
      f+2     :    -0.000019
      f-2     :    -0.000000
      f+3     :    -0.000018
      f-3     :    -0.000017
      g0      :     0.000015  g :     0.006782
      g+1     :    -0.000106
      g-1     :     0.006873
      g+2     :    -0.000001
      g-2     :    -0.000000
      g+3     :     0.000000
      g-3     :     0.000000
      g+4     :     0.000000
      g-4     :     0.000000
      h0      :    -0.000029  h :     0.001176
      h+1     :    -0.000010
      h-1     :     0.001216
      h+2     :    -0.000001
      h-2     :    -0.000000
      h+3     :    -0.000000
      h-3     :    -0.000000
      h+4     :     0.000000
      h-4     :     0.000000
      h+5     :     0.000000
      h-5     :     0.000000
  1 O s       :     0.001140  s :     0.001140
      pz      :    -0.004804  p :     0.217808
      px      :    -0.009404
      py      :     0.232015
      dz2     :     0.001918  d :     0.128761
      dxz     :     0.000859
      dyz     :     0.126047
      dx2y2   :    -0.000062
      dxy     :    -0.000000
      f0      :     0.000345  f :     0.045980
      f+1     :     0.000646
      f-1     :     0.045028
      f+2     :    -0.000018
      f-2     :    -0.000000
      f+3     :    -0.000011
      f-3     :    -0.000011
      g0      :    -0.000160  g :     0.008898
      g+1     :     0.000207
      g-1     :     0.008857
      g+2     :    -0.000006
      g-2     :    -0.000000
      g+3     :    -0.000000
      g-3     :    -0.000000
      g+4     :     0.000000
      g-4     :     0.000000
      h0      :    -0.000113  h :     0.001999
      h+1     :     0.000039
      h-1     :     0.002077
      h+2     :    -0.000004
      h-2     :    -0.000000
      h+3     :    -0.000000
      h-3     :    -0.000000
      h+4     :     0.000000
      h-4     :     0.000000
      h+5     :     0.000000
      h-5     :     0.000000


                      *****************************
                      * MAYER POPULATION ANALYSIS *
                      *****************************

  NA   - Mulliken gross atomic population
  ZA   - Total nuclear charge
  QA   - Mulliken gross atomic charge
  VA   - Mayer's total valence
  BVA  - Mayer's bonded valence
  FA   - Mayer's free valence

  ATOM       NA         ZA         QA         VA         BVA        FA
  0 N      6.8810     7.0000     0.1190     2.6006     2.1285     0.4721
  1 O      8.1190     8.0000    -0.1190     2.2538     2.1285     0.1253

  Mayer bond orders larger than 0.1
B(  0-N ,  1-O ) :   2.1285 

-------
TIMINGS
-------

Total SCF time: 0 days 0 hours 5 min 36 sec 

Total time                  ....     336.894 sec
Sum of individual times     ....     336.243 sec  ( 99.8%)

Fock matrix formation       ....     334.277 sec  ( 99.2%)
  XC integration            ....       7.675 sec  (  2.3% of F)
    Basis function eval.    ....       0.521 sec  (  6.8% of XC)
    Density eval.           ....       1.378 sec  ( 18.0% of XC)
    XC-Functional eval.     ....       0.121 sec  (  1.6% of XC)
    XC-Potential eval.      ....       5.103 sec  ( 66.5% of XC)
Diagonalization             ....       0.808 sec  (  0.2%)
Density matrix formation    ....       0.017 sec  (  0.0%)
Population analysis         ....       0.065 sec  (  0.0%)
Initial guess               ....       0.395 sec  (  0.1%)
Orbital Transformation      ....       0.000 sec  (  0.0%)
Orbital Orthonormalization  ....       0.000 sec  (  0.0%)
DIIS solution               ....       0.430 sec  (  0.1%)
Grid generation             ....       0.251 sec  (  0.1%)

-------------------------   --------------------
FINAL SINGLE POINT ENERGY      -129.825525487449
-------------------------   --------------------


                            ***************************************
                            *     ORCA property calculations      *
                            ***************************************

                                    ---------------------
                                    Active property flags
                                    ---------------------
   (+) Dipole Moment


------------------------------------------------------------------------------
                       ORCA ELECTRIC PROPERTIES CALCULATION
------------------------------------------------------------------------------

Dipole Moment Calculation                       ... on
Quadrupole Moment Calculation                   ... off
Polarizability Calculation                      ... off
GBWName                                         ... no_pbe_-001_z.gbw
Electron density file                           ... no_pbe_-001_z.scfp.tmp
The origin for moment calculation is the CENTER OF MASS  = ( 0.000000,  0.000000  1.162557)

-------------
DIPOLE MOMENT
-------------
                                X             Y             Z
Electronic contribution:      0.00000      -0.00000      -0.07564
Nuclear contribution   :      0.00000       0.00000       0.00458
                        -----------------------------------------
Total Dipole Moment    :      0.00000      -0.00000      -0.07106
                        -----------------------------------------
Magnitude (a.u.)       :      0.07106
Magnitude (Debye)      :      0.18063



--------------------
Rotational spectrum 
--------------------
 
Rotational constants in cm-1:     0.000000     1.695532     1.695532 
Rotational constants in MHz :     0.000000 50830.768128 50830.768128 

 Dipole components along the rotational axes: 
x,y,z [a.u.] :    -0.071063    -0.000000     0.000000 
x,y,z [Debye]:    -0.180629    -0.000000     0.000000 

 

Timings for individual modules:

Sum of individual times         ...      338.517 sec (=   5.642 min)
GTO integral calculation        ...        1.310 sec (=   0.022 min)   0.4 %
SCF iterations                  ...      337.206 sec (=   5.620 min)  99.6 %
                             ****ORCA TERMINATED NORMALLY****
TOTAL RUN TIME: 0 days 0 hours 5 minutes 39 seconds 414 msec
