
                                 *****************
                                 * O   R   C   A *
                                 *****************

           --- An Ab Initio, DFT and Semiempirical electronic structure package ---

                  #######################################################
                  #                        -***-                        #
                  #          Department of theory and spectroscopy      #
                  #               Directorship: Frank Neese             #
                  #        Max Planck Institute fuer Kohlenforschung    #
                  #                Kaiser Wilhelm Platz 1               #
                  #                 D-45470 Muelheim/Ruhr               #
                  #                      Germany                        #
                  #                                                     #
                  #                  All rights reserved                #
                  #                        -***-                        #
                  #######################################################


                         Program Version 4.1.1  - RELEASE  -


 With contributions from (in alphabetic order):
   Daniel Aravena         : Magnetic Properties
   Michael Atanasov       : Ab Initio Ligand Field Theory
   Alexander A. Auer      : GIAO ZORA
   Ute Becker             : Parallelization
   Giovanni Bistoni       : ED, Open-shell LED
   Martin Brehm           : Molecular dynamics
   Dmytro Bykov           : SCF Hessian
   Vijay G. Chilkuri      : MRCI spin determinant printing
   Dipayan Datta          : RHF DLPNO-CCSD density
   Achintya Kumar Dutta   : EOM-CC, STEOM-CC
   Dmitry Ganyushin       : Spin-Orbit,Spin-Spin,Magnetic field MRCI
   Miquel Garcia          : C-PCM Hessian
   Yang Guo               : DLPNO-NEVPT2, CIM, IAO-localization
   Andreas Hansen         : Spin unrestricted coupled pair/coupled cluster methods
   Benjamin Helmich-Paris : CASSCF linear response (MC-RPA)
   Lee Huntington         : MR-EOM, pCC
   Robert Izsak           : Overlap fitted RIJCOSX, COSX-SCS-MP3, EOM
   Christian Kollmar      : KDIIS, OOCD, Brueckner-CCSD(T), CCSD density
   Simone Kossmann        : Meta GGA functionals, TD-DFT gradient, OOMP2, MP2 Hessian
   Martin Krupicka        : AUTO-CI
   Lucas Lang             : DCDCAS
   Dagmar Lenk            : GEPOL surface, SMD
   Dimitrios Liakos       : Extrapolation schemes; parallel MDCI
   Dimitrios Manganas     : ROCIS; embedding schemes
   Dimitrios Pantazis     : SARC Basis sets
   Taras Petrenko         : DFT Hessian,TD-DFT gradient, ASA, ECA, R-Raman, ABS, FL, XAS/XES, NRVS
   Peter Pinski           : DLPNO-MP2, DLPNO-MP2 Gradient
   Christoph Reimann      : Effective Core Potentials
   Marius Retegan         : Local ZFS, SOC
   Christoph Riplinger    : Optimizer, TS searches, QM/MM, DLPNO-CCSD(T), (RO)-DLPNO pert. Triples
   Tobias Risthaus        : Range-separated hybrids, TD-DFT gradient, RPA, STAB
   Michael Roemelt        : Restricted open shell CIS
   Masaaki Saitow         : Open-shell DLPNO
   Barbara Sandhoefer     : DKH picture change effects
   Avijit Sen             : IP-ROCIS
   Kantharuban Sivalingam : CASSCF convergence, NEVPT2, FIC-MRCI
   Bernardo de Souza      : ESD, SOC TD-DFT
   Georgi Stoychev        : AutoAux, RI-MP2 NMR
   Willem Van den Heuvel  : Paramagnetic NMR
   Boris Wezisla          : Elementary symmetry handling
   Frank Wennmohs         : Technical directorship


 We gratefully acknowledge several colleagues who have allowed us to
 interface, adapt or use parts of their codes:
   Stefan Grimme, W. Hujo, H. Kruse,             : VdW corrections, initial TS optimization,
                  C. Bannwarth                     DFT functionals, gCP, sTDA/sTD-DF
   Ed Valeev                                     : LibInt (2-el integral package), F12 methods
   Garnet Chan, S. Sharma, J. Yang, R. Olivares  : DMRG
   Ulf Ekstrom                                   : XCFun DFT Library
   Mihaly Kallay                                 : mrcc  (arbitrary order and MRCC methods)
   Andreas Klamt, Michael Diedenhofen            : otool_cosmo (COSMO solvation model)
   Jiri Pittner, Ondrej Demel                    : Mk-CCSD
   Frank Weinhold                                : gennbo (NPA and NBO analysis)
   Christopher J. Cramer and Donald G. Truhlar   : smd solvation model
   Lars Goerigk                                  : TD-DFT with DH, B97 family of functionals
   V. Asgeirsson, H. Jonsson                     : NEB implementation
   FAccTs GmbH                                   : IRC, NEB, NEB-TS, Multilevel


 Your calculation uses the libint2 library for the computation of 2-el integrals
 For citations please refer to: http://libint.valeyev.net

 This ORCA versions uses:
   CBLAS   interface :  Fast vector & matrix operations
   LAPACKE interface :  Fast linear algebra routines
   SCALAPACK package :  Parallel linear algebra routines


----- Orbital basis set information -----
Your calculation utilizes the basis: aug-pc-4
   H, C-F              : F. Jensen, J. Chem. Phys. 115, 9113 (2001).
                         F. Jensen, J. Chem. Phys. 116, 7372 (2002).
                         F. Jensen, J. Chem. Phys. 117, 9234 (2002).
   Si-Cl               : F. Jensen, T. Helgaker, J. Chem. Phys. 121, 3463 (2004).
   He-B, Ne-Mg, Al, Ar : F. Jensen, J. Phys. Chem. A 111, 11198 (2007).
   K, Ca, Ga-Kr        : F. Jensen, J. Chem. Phys. 136, 094110 (2012).
   Sc-Zn               : F. Jensen, J. Chem. Phys. 138, 014107 (2013).

================================================================================
                                        WARNINGS
                       Please study these warnings very carefully!
================================================================================


INFO   : the flag for use of LIBINT has been found!

================================================================================
                                       INPUT FILE
================================================================================
NAME = no_pbe_00.inp
|  1> ! uks pbe nori aug-pc-4 grid5 nofinalgrid verytightscf
|  2> 
|  3> %maxcore 1500
|  4> 
|  5> %pal nprocs 4 end
|  6> %scf
|  7>     efield 0.0, 0.0, 0.0
|  8>     maxiter 300
|  9> end
| 10> * xyz 0 2
| 11> N      0.0000  0.0000  0.0000
| 12> O      0.0000  0.0000  1.1538
| 13> *
| 14> 
| 15>                          ****END OF INPUT****
================================================================================

                       ****************************
                       * Single Point Calculation *
                       ****************************

---------------------------------
CARTESIAN COORDINATES (ANGSTROEM)
---------------------------------
  N      0.000000    0.000000    0.000000
  O      0.000000    0.000000    1.153800

----------------------------
CARTESIAN COORDINATES (A.U.)
----------------------------
  NO LB      ZA    FRAG     MASS         X           Y           Z
   0 N     7.0000    0    14.007    0.000000    0.000000    0.000000
   1 O     8.0000    0    15.999    0.000000    0.000000    2.180366

--------------------------------
INTERNAL COORDINATES (ANGSTROEM)
--------------------------------
 N      0   0   0     0.000000000000     0.00000000     0.00000000
 O      1   0   0     1.153800000000     0.00000000     0.00000000

---------------------------
INTERNAL COORDINATES (A.U.)
---------------------------
 N      0   0   0     0.000000000000     0.00000000     0.00000000
 O      1   0   0     2.180366013318     0.00000000     0.00000000

---------------------
BASIS SET INFORMATION
---------------------
There are 2 groups of distinct atoms

 Group   1 Type N   : 27s12p7d4f3g2h contracted to 9s8p7d4f3g2h pattern {1191111111/51111111/1111111/1111/111/11}
 Group   2 Type O   : 27s12p7d4f3g2h contracted to 9s8p7d4f3g2h pattern {1191111111/51111111/1111111/1111/111/11}

Atom   0N    basis set group =>   1
Atom   1O    basis set group =>   2


           ************************************************************
           *        Program running with 4 parallel MPI-processes     *
           *              working on a common directory               *
           ************************************************************
------------------------------------------------------------------------------
                           ORCA GTO INTEGRAL CALCULATION
------------------------------------------------------------------------------

                         BASIS SET STATISTICS AND STARTUP INFO

 # of primitive gaussian shells          ...  110
 # of primitive gaussian functions       ...  350
 # of contracted shells                  ...   66
 # of contracted basis functions         ...  290
 Highest angular momentum                ...    5
 Maximum contraction depth               ...   11
 Integral package used                   ... LIBINT
 Integral threshhold            Thresh   ...  1.000e-12
 Primitive cut-off              TCut     ...  1.000e-14


------------------------------ INTEGRAL EVALUATION ----------------------------


 * One electron integrals 
 Pre-screening matrix                    ... done
 Shell pair data                         ... done (   0.001 sec)



           ************************************************************
           *        Program running with 4 parallel MPI-processes     *
           *              working on a common directory               *
           ************************************************************
-------------------------------------------------------------------------------
                                 ORCA SCF
-------------------------------------------------------------------------------

------------
SCF SETTINGS
------------
Hamiltonian:
 Density Functional     Method          .... DFT(GTOs)
 Exchange Functional    Exchange        .... PBE
   PBE kappa parameter   XKappa         ....  0.804000
   PBE mue parameter    XMuePBE         ....  0.219520
 Correlation Functional Correlation     .... PBE
   PBE beta parameter  CBetaPBE         ....  0.066725
 LDA part of GGA corr.  LDAOpt          .... PW91-LDA
 Gradients option       PostSCFGGA      .... off
   Density functional embedding theory  .... OFF
   NL short-range parameter             ....  6.400000


General Settings:
 Integral files         IntName         .... no_pbe_00
 Hartree-Fock type      HFTyp           .... UHF
 Total Charge           Charge          ....    0
 Multiplicity           Mult            ....    2
 Number of Electrons    NEL             ....   15
 Basis Dimension        Dim             ....  290
 Nuclear Repulsion      ENuc            ....     25.6837611933 Eh

Convergence Acceleration:
 DIIS                   CNVDIIS         .... on
   Start iteration      DIISMaxIt       ....    12
   Startup error        DIISStart       ....  0.200000
   # of expansion vecs  DIISMaxEq       ....     5
   Bias factor          DIISBfac        ....   1.050
   Max. coefficient     DIISMaxC        ....  10.000
 Newton-Raphson         CNVNR           .... off
 SOSCF                  CNVSOSCF        .... off
 Level Shifting         CNVShift        .... on
   Level shift para.    LevelShift      ....    0.2500
   Turn off err/grad.   ShiftErr        ....    0.0010
 Zerner damping         CNVZerner       .... off
 Static damping         CNVDamp         .... on
   Fraction old density DampFac         ....    0.7000
   Max. Damping (<1)    DampMax         ....    0.9800
   Min. Damping (>=0)   DampMin         ....    0.0000
   Turn off err/grad.   DampErr         ....    0.1000
 Fernandez-Rico         CNVRico         .... off

SCF Procedure:
 Maximum # iterations   MaxIter         ....   300
 SCF integral mode      SCFMode         .... Direct
   Integral package                     .... LIBINT
 Reset frequency        DirectResetFreq ....    20
 Integral Threshold     Thresh          ....  1.000e-12 Eh
 Primitive CutOff       TCut            ....  1.000e-14 Eh

Convergence Tolerance:
 Convergence Check Mode ConvCheckMode   .... Total+1el-Energy
 Convergence forced     ConvForced      .... 0
 Energy Change          TolE            ....  1.000e-09 Eh
 1-El. energy change                    ....  1.000e-06 Eh
 DIIS Error             TolErr          ....  1.000e-08


Diagonalization of the overlap matrix:
Smallest eigenvalue                        ... 2.019e-06
Time for diagonalization                   ...    0.016 sec
Threshold for overlap eigenvalues          ... 1.000e-08
Number of eigenvalues below threshold      ... 0
Time for construction of square roots      ...    0.012 sec
Total time needed                          ...    0.029 sec

-------------------
DFT GRID GENERATION
-------------------

General Integration Accuracy     IntAcc      ...  5.010
Radial Grid Type                 RadialGrid  ... Gauss-Chebyshev
Angular Grid (max. acc.)         AngularGrid ... Lebedev-434
Angular grid pruning method      GridPruning ... 3 (G Style)
Weight generation scheme         WeightScheme... Becke
Basis function cutoff            BFCut       ...    1.0000e-12
Integration weight cutoff        WCut        ...    1.0000e-14
Grids for H and He will be reduced by one unit

# of grid points (after initial pruning)     ...  21432 (   0.0 sec)
# of grid points (after weights+screening)   ...  21342 (   0.0 sec)
nearest neighbour list constructed           ...    0.0 sec
Grid point re-assignment to atoms done       ...    0.0 sec
Grid point division into batches done        ...    0.2 sec
Reduced shell lists constructed in    0.2 sec

Total number of grid points                  ...    21342
Total number of batches                      ...      334
Average number of points per batch           ...       63
Average number of grid points per atom       ...    10671
Average number of shells per batch           ...    40.49 (61.35%)
Average number of basis functions per batch  ...   187.39 (64.62%)
Average number of large shells per batch     ...    34.79 (85.91%)
Average number of large basis fcns per batch ...   162.46 (86.70%)
Maximum spatial batch extension              ...  16.29, 16.29, 13.64 au
Average spatial batch extension              ...   1.36,  1.35,  1.17 au

Time for grid setup =    0.253 sec

------------------------------
INITIAL GUESS: MODEL POTENTIAL
------------------------------
Loading Hartree-Fock densities                     ... done
Calculating cut-offs                               ... done
Setting up the integral package                    ... done
Initializing the effective Hamiltonian             ... done
Starting the Coulomb interaction                   ... done (   0.0 sec)
Reading the grid                                   ... done
Mapping shells                                     ... done
Starting the XC term evaluation                    ... done (   0.2 sec)
  promolecular density results
     # of electrons  =     15.000002805
     EX              =    -14.595347118
     EC              =     -0.490731592
     EX+EC           =    -15.086078709
Transforming the Hamiltonian                       ... done (   0.0 sec)
Diagonalizing the Hamiltonian                      ... done (   0.0 sec)
Back transforming the eigenvectors                 ... done (   0.0 sec)
Now organizing SCF variables                       ... done
                      ------------------
                      INITIAL GUESS DONE (   0.6 sec)
                      ------------------
--------------
SCF ITERATIONS
--------------
ITER       Energy         Delta-E        Max-DP      RMS-DP      [F,P]     Damp
               ***  Starting incremental Fock matrix formation  ***
  0   -129.8173259752   0.000000000000 0.00543845  0.00005685  0.0755043 0.7000
  1   -129.8208017332  -0.003475757998 0.00414352  0.00003920  0.0239749 0.7000
                               ***Turning on DIIS***
  2   -129.8221564882  -0.001354754976 0.00947002  0.00008519  0.0146680 0.0000
  3   -129.8253303817  -0.003173893490 0.00262048  0.00002374  0.0120844 0.0000
  4   -129.8256041588  -0.000273777104 0.00048038  0.00000613  0.0016541 0.0000
  5   -129.8256165152  -0.000012356452 0.00023967  0.00000292  0.0013358 0.0000
  6   -129.8256197377  -0.000003222486 0.00044547  0.00000419  0.0004578 0.0000
  7   -129.8256209232  -0.000001185465 0.00005537  0.00000076  0.0003524 0.0000
  8   -129.8256211709  -0.000000247726 0.00002030  0.00000030  0.0000303 0.0000
  9   -129.8256212034  -0.000000032495 0.00000760  0.00000009  0.0000072 0.0000
 10   -129.8256212080  -0.000000004566 0.00000333  0.00000003  0.0000086 0.0000
                 **** Energy Check signals convergence ****

               *****************************************************
               *                     SUCCESS                       *
               *           SCF CONVERGED AFTER  11 CYCLES          *
               *****************************************************


----------------
TOTAL SCF ENERGY
----------------

Total Energy       :         -129.82562121 Eh           -3532.73475 eV

Components:
Nuclear Repulsion  :           25.68376119 Eh             698.89067 eV
Electronic Energy  :         -155.50938240 Eh           -4231.62543 eV
One Electron Energy:         -227.78299086 Eh           -6198.29030 eV
Two Electron Energy:           72.27360846 Eh            1966.66487 eV

Virial components:
Potential Energy   :         -259.25201143 Eh           -7054.60588 eV
Kinetic Energy     :          129.42639022 Eh            3521.87113 eV
Virial Ratio       :            2.00308462


DFT components:
N(Alpha)           :        8.000000351056 electrons
N(Beta)            :        7.000000370265 electrons
N(Total)           :       15.000000721321 electrons
E(X)               :      -14.728870283504 Eh       
E(C)               :       -0.489586278953 Eh       
E(XC)              :      -15.218456562457 Eh       
DFET-embed. en.    :        0.000000000000 Eh       

---------------
SCF CONVERGENCE
---------------

  Last Energy change         ...   -8.9250e-10  Tolerance :   1.0000e-09
  Last MAX-Density change    ...    2.6708e-06  Tolerance :   1.0000e-08
  Last RMS-Density change    ...    3.1312e-08  Tolerance :   1.0000e-09
  Last DIIS Error            ...    1.6239e-06  Tolerance :   1.0000e-08

             **** THE GBW FILE WAS UPDATED (no_pbe_00.gbw) ****
             **** DENSITY FILE WAS UPDATED (no_pbe_00.scfp.tmp) ****
             **** ENERGY FILE WAS UPDATED (no_pbe_00.en.tmp) ****
----------------------
UHF SPIN CONTAMINATION
----------------------

Warning: in a DFT calculation there is little theoretical justification to 
         calculate <S**2> as in Hartree-Fock theory. We will do it anyways
         but you should keep in mind that the values have only limited relevance

Expectation value of <S**2>     :     0.752014
Ideal value S*(S+1) for S=0.5   :     0.750000
Deviation                       :     0.002014

----------------
ORBITAL ENERGIES
----------------
                 SPIN UP ORBITALS
  NO   OCC          E(Eh)            E(eV) 
   0   1.0000     -18.889863      -514.0193 
   1   1.0000     -14.119323      -384.2063 
   2   1.0000      -1.154617       -31.4187 
   3   1.0000      -0.622338       -16.9347 
   4   1.0000      -0.474568       -12.9137 
   5   1.0000      -0.472770       -12.8647 
   6   1.0000      -0.432238       -11.7618 
   7   1.0000      -0.167267        -4.5516 
   8   0.0000      -0.156801        -4.2668 
   9   0.0000      -0.001378        -0.0375 
  10   0.0000       0.020651         0.5619 
  11   0.0000       0.022104         0.6015 
  12   0.0000       0.024886         0.6772 
  13   0.0000       0.056432         1.5356 
  14   0.0000       0.058253         1.5851 
  15   0.0000       0.061209         1.6656 
  16   0.0000       0.100620         2.7380 
  17   0.0000       0.113930         3.1002 
  18   0.0000       0.116821         3.1789 
  19   0.0000       0.117167         3.1883 
  20   0.0000       0.130129         3.5410 
  21   0.0000       0.131274         3.5721 
  22   0.0000       0.169876         4.6226 
  23   0.0000       0.181170         4.9299 
  24   0.0000       0.185003         5.0342 
  25   0.0000       0.186161         5.0657 
  26   0.0000       0.195007         5.3064 
  27   0.0000       0.195974         5.3327 
  28   0.0000       0.197294         5.3686 
  29   0.0000       0.198499         5.4014 
  30   0.0000       0.263481         7.1697 
  31   0.0000       0.286422         7.7939 
  32   0.0000       0.286754         7.8030 
  33   0.0000       0.308028         8.3819 
  34   0.0000       0.312519         8.5041 
  35   0.0000       0.326847         8.8940 
  36   0.0000       0.352876         9.6022 
  37   0.0000       0.354062         9.6345 
  38   0.0000       0.357299         9.7226 
  39   0.0000       0.364304         9.9132 
  40   0.0000       0.368689        10.0325 
  41   0.0000       0.370502        10.0819 
  42   0.0000       0.381979        10.3942 
  43   0.0000       0.382184        10.3998 
  44   0.0000       0.412618        11.2279 
  45   0.0000       0.414028        11.2663 
  46   0.0000       0.424051        11.5390 
  47   0.0000       0.426935        11.6175 
  48   0.0000       0.468785        12.7563 
  49   0.0000       0.480926        13.0867 
  50   0.0000       0.481595        13.1049 
  51   0.0000       0.490592        13.3497 
  52   0.0000       0.490708        13.3528 
  53   0.0000       0.492179        13.3929 
  54   0.0000       0.562292        15.3007 
  55   0.0000       0.562437        15.3047 
  56   0.0000       0.582893        15.8613 
  57   0.0000       0.586839        15.9687 
  58   0.0000       0.587867        15.9967 
  59   0.0000       0.622480        16.9385 
  60   0.0000       0.630126        17.1466 
  61   0.0000       0.631677        17.1888 
  62   0.0000       0.662219        18.0199 
  63   0.0000       0.662516        18.0280 
  64   0.0000       0.678593        18.4654 
  65   0.0000       0.678629        18.4664 
  66   0.0000       0.697357        18.9761 
  67   0.0000       0.703620        19.1465 
  68   0.0000       0.736086        20.0299 
  69   0.0000       0.742800        20.2126 
  70   0.0000       0.743030        20.2189 
  71   0.0000       0.775094        21.0914 
  72   0.0000       0.775833        21.1115 
  73   0.0000       0.784009        21.3340 
  74   0.0000       0.787043        21.4165 
  75   0.0000       0.804352        21.8875 
  76   0.0000       0.804376        21.8882 
  77   0.0000       0.835585        22.7374 
  78   0.0000       0.836026        22.7494 
  79   0.0000       0.837203        22.7814 
  80   0.0000       0.886527        24.1236 
  81   0.0000       0.894813        24.3491 
  82   0.0000       0.896258        24.3884 
  83   0.0000       0.897919        24.4336 
  84   0.0000       0.901072        24.5194 
  85   0.0000       0.902509        24.5585 
  86   0.0000       0.902746        24.5650 
  87   0.0000       0.914247        24.8779 
  88   0.0000       0.915355        24.9081 
  89   0.0000       0.937796        25.5187 
  90   0.0000       0.937901        25.5216 
  91   0.0000       0.946121        25.7453 
  92   0.0000       0.970771        26.4160 
  93   0.0000       0.970930        26.4204 
  94   0.0000       0.997253        27.1366 
  95   0.0000       0.997273        27.1372 
  96   0.0000       1.029321        28.0092 
  97   0.0000       1.030148        28.0318 
  98   0.0000       1.103120        30.0174 
  99   0.0000       1.103175        30.0189 
 100   0.0000       1.146613        31.2009 
 101   0.0000       1.148193        31.2439 
 102   0.0000       1.153161        31.3791 
 103   0.0000       1.175204        31.9789 
 104   0.0000       1.201629        32.6980 
 105   0.0000       1.202360        32.7179 
 106   0.0000       1.271075        34.5877 
 107   0.0000       1.329696        36.1829 
 108   0.0000       1.331431        36.2301 
 109   0.0000       1.451195        39.4890 
 110   0.0000       1.480015        40.2733 
 111   0.0000       1.483149        40.3585 
 112   0.0000       1.556800        42.3627 
 113   0.0000       1.559983        42.4493 
 114   0.0000       1.623870        44.1878 
 115   0.0000       1.662781        45.2466 
 116   0.0000       1.665789        45.3284 
 117   0.0000       1.808243        49.2048 
 118   0.0000       1.830331        49.8058 
 119   0.0000       1.831836        49.8468 
 120   0.0000       1.873283        50.9746 
 121   0.0000       1.873529        50.9813 
 122   0.0000       1.949689        53.0537 
 123   0.0000       1.950930        53.0875 
 124   0.0000       2.072388        56.3925 
 125   0.0000       2.110342        57.4253 
 126   0.0000       2.110540        57.4307 
 127   0.0000       2.138939        58.2035 
 128   0.0000       2.140795        58.2540 
 129   0.0000       2.307774        62.7977 
 130   0.0000       2.376912        64.6791 
 131   0.0000       2.377760        64.7021 
 132   0.0000       2.422051        65.9074 
 133   0.0000       2.422989        65.9329 
 134   0.0000       2.690909        73.2234 
 135   0.0000       2.886768        78.5530 
 136   0.0000       2.887185        78.5643 
 137   0.0000       2.890594        78.6571 
 138   0.0000       2.894001        78.7498 
 139   0.0000       2.927081        79.6499 
 140   0.0000       3.197249        87.0016 
 141   0.0000       3.199680        87.0677 
 142   0.0000       3.221237        87.6543 
 143   0.0000       3.403820        92.6226 
 144   0.0000       3.738748       101.7365 
 145   0.0000       3.745994       101.9337 
 146   0.0000       3.972775       108.1047 
 147   0.0000       4.031286       109.6969 
 148   0.0000       4.032865       109.7398 
 149   0.0000       4.103922       111.6734 
 150   0.0000       4.106148       111.7340 
 151   0.0000       4.244923       115.5102 
 152   0.0000       4.412854       120.0799 
 153   0.0000       4.413309       120.0922 
 154   0.0000       4.421556       120.3167 
 155   0.0000       4.423435       120.3678 
 156   0.0000       4.564183       124.1977 
 157   0.0000       4.564701       124.2118 
 158   0.0000       4.606397       125.3464 
 159   0.0000       4.883886       132.8973 
 160   0.0000       4.884269       132.9077 
 161   0.0000       4.912886       133.6864 
 162   0.0000       4.913008       133.6898 
 163   0.0000       4.951109       134.7265 
 164   0.0000       4.951211       134.7293 
 165   0.0000       5.199840       141.4948 
 166   0.0000       5.199976       141.4986 
 167   0.0000       5.258441       143.0895 
 168   0.0000       5.326953       144.9538 
 169   0.0000       5.328919       145.0073 
 170   0.0000       5.523242       150.2951 
 171   0.0000       5.867681       159.6677 
 172   0.0000       5.869256       159.7106 
 173   0.0000       5.894886       160.4080 
 174   0.0000       5.894908       160.4086 
 175   0.0000       6.087394       165.6464 
 176   0.0000       6.087825       165.6581 
 177   0.0000       6.467870       175.9997 
 178   0.0000       6.468007       176.0034 
 179   0.0000       6.546732       178.1456 
 180   0.0000       6.551312       178.2703 
 181   0.0000       6.668709       181.4648 
 182   0.0000       6.703042       182.3990 
 183   0.0000       6.709765       182.5820 
 184   0.0000       6.936093       188.7407 
 185   0.0000       7.149973       194.5607 
 186   0.0000       7.441322       202.4887 
 187   0.0000       7.442882       202.5311 
 188   0.0000       7.707334       209.7272 
 189   0.0000       7.708802       209.7672 
 190   0.0000       8.141517       221.5419 
 191   0.0000       8.370192       227.7645 
 192   0.0000       8.372867       227.8373 
 193   0.0000       8.910587       242.4694 
 194   0.0000       8.920222       242.7316 
 195   0.0000       9.027488       245.6504 
 196   0.0000       9.284024       252.6311 
 197   0.0000       9.286438       252.6968 
 198   0.0000       9.917651       269.8730 
 199   0.0000      10.156043       276.3600 
 200   0.0000      10.159114       276.4436 
 201   0.0000      10.504309       285.8368 
 202   0.0000      10.907731       296.8145 
 203   0.0000      10.912212       296.9364 
 204   0.0000      10.940781       297.7138 
 205   0.0000      10.941176       297.7245 
 206   0.0000      10.978698       298.7456 
 207   0.0000      10.981501       298.8218 
 208   0.0000      11.046696       300.5959 
 209   0.0000      11.046780       300.5982 
 210   0.0000      11.107735       302.2568 
 211   0.0000      11.109080       302.2934 
 212   0.0000      11.188942       304.4666 
 213   0.0000      11.190426       304.5070 
 214   0.0000      11.275845       306.8313 
 215   0.0000      11.275916       306.8333 
 216   0.0000      11.585523       315.2581 
 217   0.0000      11.656880       317.1998 
 218   0.0000      11.884786       323.4015 
 219   0.0000      11.888085       323.4912 
 220   0.0000      11.942344       324.9677 
 221   0.0000      11.942348       324.9678 
 222   0.0000      12.268014       333.8296 
 223   0.0000      12.268051       333.8306 
 224   0.0000      12.576332       342.2194 
 225   0.0000      12.576589       342.2264 
 226   0.0000      12.758414       347.1741 
 227   0.0000      12.760047       347.2185 
 228   0.0000      12.860740       349.9585 
 229   0.0000      13.122482       357.0809 
 230   0.0000      13.125346       357.1588 
 231   0.0000      13.157982       358.0469 
 232   0.0000      13.568611       369.2207 
 233   0.0000      13.568882       369.2280 
 234   0.0000      14.001007       380.9868 
 235   0.0000      14.006231       381.1289 
 236   0.0000      14.159857       385.3093 
 237   0.0000      14.160219       385.3191 
 238   0.0000      14.290539       388.8653 
 239   0.0000      14.291350       388.8874 
 240   0.0000      14.810490       403.0139 
 241   0.0000      14.814160       403.1138 
 242   0.0000      15.127928       411.6519 
 243   0.0000      15.462563       420.7577 
 244   0.0000      15.468868       420.9293 
 245   0.0000      15.905613       432.8137 
 246   0.0000      15.907776       432.8726 
 247   0.0000      15.989991       435.1098 
 248   0.0000      16.395633       446.1479 
 249   0.0000      16.414181       446.6526 
 250   0.0000      16.424184       446.9248 
 251   0.0000      16.688070       454.1055 
 252   0.0000      16.694281       454.2745 
 253   0.0000      16.872003       459.1105 
 254   0.0000      16.872010       459.1107 
 255   0.0000      17.136115       466.2974 
 256   0.0000      17.136280       466.3019 
 257   0.0000      17.887548       486.7449 
 258   0.0000      17.888942       486.7828 
 259   0.0000      18.614572       506.5283 
 260   0.0000      18.617136       506.5980 
 261   0.0000      18.647784       507.4320 
 262   0.0000      18.785463       511.1784 
 263   0.0000      18.791888       511.3533 
 264   0.0000      20.377660       554.5043 
 265   0.0000      22.882300       622.6590 
 266   0.0000      22.884876       622.7291 
 267   0.0000      23.786990       647.2769 
 268   0.0000      24.250517       659.8901 
 269   0.0000      24.259632       660.1381 
 270   0.0000      25.720572       699.8924 
 271   0.0000      26.091737       709.9923 
 272   0.0000      26.106632       710.3976 
 273   0.0000      28.650683       779.6247 
 274   0.0000      31.024267       844.2132 
 275   0.0000      31.775462       864.6543 
 276   0.0000      31.781624       864.8220 
 277   0.0000      34.190058       930.3588 
 278   0.0000      47.498636      1292.5036 
 279   0.0000      47.502174      1292.5999 
 280   0.0000      47.870083      1302.6112 
 281   0.0000      47.879684      1302.8724 
 282   0.0000      49.170274      1337.9912 
 283   0.0000      66.445541      1808.0751 
 284   0.0000      66.446921      1808.1126 
 285   0.0000      67.248906      1829.9358 
 286   0.0000      67.253541      1830.0619 
 287   0.0000      68.952311      1876.2878 
 288   0.0000     105.407869      2868.2939 
 289   0.0000     143.229669      3897.4774 

                 SPIN DOWN ORBITALS
  NO   OCC          E(Eh)            E(eV) 
   0   1.0000     -18.880966      -513.7772 
   1   1.0000     -14.105606      -383.8330 
   2   1.0000      -1.138069       -30.9684 
   3   1.0000      -0.594998       -16.1907 
   4   1.0000      -0.463794       -12.6205 
   5   1.0000      -0.426165       -11.5966 
   6   1.0000      -0.412269       -11.2184 
   7   0.0000      -0.142335        -3.8731 
   8   0.0000      -0.098274        -2.6742 
   9   0.0000       0.004392         0.1195 
  10   0.0000       0.026425         0.7191 
  11   0.0000       0.027528         0.7491 
  12   0.0000       0.029955         0.8151 
  13   0.0000       0.059826         1.6279 
  14   0.0000       0.063736         1.7343 
  15   0.0000       0.064916         1.7665 
  16   0.0000       0.104733         2.8499 
  17   0.0000       0.120202         3.2709 
  18   0.0000       0.123077         3.3491 
  19   0.0000       0.125392         3.4121 
  20   0.0000       0.138443         3.7672 
  21   0.0000       0.138554         3.7703 
  22   0.0000       0.174030         4.7356 
  23   0.0000       0.187792         5.1101 
  24   0.0000       0.190112         5.1732 
  25   0.0000       0.191804         5.2193 
  26   0.0000       0.201640         5.4869 
  27   0.0000       0.203148         5.5279 
  28   0.0000       0.203213         5.5297 
  29   0.0000       0.205595         5.5945 
  30   0.0000       0.271000         7.3743 
  31   0.0000       0.294865         8.0237 
  32   0.0000       0.294869         8.0238 
  33   0.0000       0.316817         8.6210 
  34   0.0000       0.322666         8.7802 
  35   0.0000       0.335120         9.1191 
  36   0.0000       0.360751         9.8165 
  37   0.0000       0.360883         9.8201 
  38   0.0000       0.365874         9.9559 
  39   0.0000       0.372323        10.1314 
  40   0.0000       0.377013        10.2591 
  41   0.0000       0.378483        10.2991 
  42   0.0000       0.387803        10.5527 
  43   0.0000       0.387806        10.5527 
  44   0.0000       0.424519        11.5517 
  45   0.0000       0.424841        11.5605 
  46   0.0000       0.429178        11.6785 
  47   0.0000       0.433384        11.7930 
  48   0.0000       0.475810        12.9475 
  49   0.0000       0.487339        13.2612 
  50   0.0000       0.487517        13.2660 
  51   0.0000       0.499020        13.5790 
  52   0.0000       0.499193        13.5837 
  53   0.0000       0.499195        13.5838 
  54   0.0000       0.564770        15.3682 
  55   0.0000       0.575139        15.6503 
  56   0.0000       0.589561        16.0428 
  57   0.0000       0.593515        16.1504 
  58   0.0000       0.594217        16.1695 
  59   0.0000       0.628834        17.1115 
  60   0.0000       0.638851        17.3840 
  61   0.0000       0.639142        17.3919 
  62   0.0000       0.670322        18.2404 
  63   0.0000       0.670327        18.2405 
  64   0.0000       0.683193        18.5906 
  65   0.0000       0.683193        18.5906 
  66   0.0000       0.709061        19.2945 
  67   0.0000       0.719773        19.5860 
  68   0.0000       0.742320        20.1995 
  69   0.0000       0.752239        20.4695 
  70   0.0000       0.752259        20.4700 
  71   0.0000       0.781110        21.2551 
  72   0.0000       0.781244        21.2587 
  73   0.0000       0.790202        21.5025 
  74   0.0000       0.796711        21.6796 
  75   0.0000       0.811784        22.0898 
  76   0.0000       0.811784        22.0898 
  77   0.0000       0.839237        22.8368 
  78   0.0000       0.845193        22.9989 
  79   0.0000       0.848752        23.0957 
  80   0.0000       0.892668        24.2907 
  81   0.0000       0.903941        24.5975 
  82   0.0000       0.905540        24.6410 
  83   0.0000       0.905885        24.6504 
  84   0.0000       0.908024        24.7086 
  85   0.0000       0.909063        24.7369 
  86   0.0000       0.910346        24.7718 
  87   0.0000       0.925744        25.1908 
  88   0.0000       0.925965        25.1968 
  89   0.0000       0.946940        25.7676 
  90   0.0000       0.946940        25.7676 
  91   0.0000       0.953405        25.9435 
  92   0.0000       0.977985        26.6123 
  93   0.0000       0.977989        26.6124 
  94   0.0000       1.002788        27.2872 
  95   0.0000       1.002788        27.2872 
  96   0.0000       1.037959        28.2443 
  97   0.0000       1.037990        28.2452 
  98   0.0000       1.111307        30.2402 
  99   0.0000       1.111307        30.2402 
 100   0.0000       1.150225        31.2992 
 101   0.0000       1.156620        31.4732 
 102   0.0000       1.159403        31.5490 
 103   0.0000       1.182701        32.1829 
 104   0.0000       1.204459        32.7750 
 105   0.0000       1.213788        33.0288 
 106   0.0000       1.277854        34.7722 
 107   0.0000       1.347298        36.6619 
 108   0.0000       1.347341        36.6630 
 109   0.0000       1.457781        39.6682 
 110   0.0000       1.486664        40.4542 
 111   0.0000       1.503999        40.9259 
 112   0.0000       1.566194        42.6183 
 113   0.0000       1.587498        43.1980 
 114   0.0000       1.635608        44.5072 
 115   0.0000       1.670620        45.4599 
 116   0.0000       1.690106        45.9901 
 117   0.0000       1.815035        49.3896 
 118   0.0000       1.845064        50.2067 
 119   0.0000       1.845152        50.2092 
 120   0.0000       1.891360        51.4665 
 121   0.0000       1.891369        51.4668 
 122   0.0000       1.965371        53.4805 
 123   0.0000       1.965787        53.4918 
 124   0.0000       2.086264        56.7701 
 125   0.0000       2.125112        57.8272 
 126   0.0000       2.125722        57.8438 
 127   0.0000       2.143351        58.3235 
 128   0.0000       2.163111        58.8612 
 129   0.0000       2.315335        63.0035 
 130   0.0000       2.379612        64.7525 
 131   0.0000       2.395540        65.1860 
 132   0.0000       2.434767        66.2534 
 133   0.0000       2.434992        66.2595 
 134   0.0000       2.704956        73.6056 
 135   0.0000       2.889543        78.6285 
 136   0.0000       2.909142        79.1618 
 137   0.0000       2.921775        79.5056 
 138   0.0000       2.929567        79.7176 
 139   0.0000       2.948623        80.2361 
 140   0.0000       3.204022        87.1859 
 141   0.0000       3.229910        87.8903 
 142   0.0000       3.237287        88.0910 
 143   0.0000       3.415955        92.9529 
 144   0.0000       3.757781       102.2544 
 145   0.0000       3.795303       103.2754 
 146   0.0000       3.986595       108.4808 
 147   0.0000       4.051368       110.2433 
 148   0.0000       4.051706       110.2525 
 149   0.0000       4.106022       111.7305 
 150   0.0000       4.127943       112.3271 
 151   0.0000       4.255010       115.7847 
 152   0.0000       4.418895       120.2442 
 153   0.0000       4.442703       120.8921 
 154   0.0000       4.443037       120.9012 
 155   0.0000       4.447848       121.0321 
 156   0.0000       4.600536       125.1869 
 157   0.0000       4.600599       125.1887 
 158   0.0000       4.621055       125.7453 
 159   0.0000       4.911333       133.6442 
 160   0.0000       4.911390       133.6457 
 161   0.0000       4.954889       134.8294 
 162   0.0000       4.955512       134.8463 
 163   0.0000       4.955513       134.8464 
 164   0.0000       4.983158       135.5986 
 165   0.0000       5.222596       142.1141 
 166   0.0000       5.222610       142.1145 
 167   0.0000       5.271131       143.4348 
 168   0.0000       5.350514       145.5949 
 169   0.0000       5.353199       145.6680 
 170   0.0000       5.537188       150.6746 
 171   0.0000       5.887962       160.2196 
 172   0.0000       5.888044       160.2218 
 173   0.0000       5.915426       160.9669 
 174   0.0000       5.915430       160.9670 
 175   0.0000       6.091422       165.7560 
 176   0.0000       6.119476       166.5194 
 177   0.0000       6.487454       176.5326 
 178   0.0000       6.487480       176.5333 
 179   0.0000       6.557372       178.4352 
 180   0.0000       6.591699       179.3693 
 181   0.0000       6.692037       182.0996 
 182   0.0000       6.765876       184.1089 
 183   0.0000       6.766247       184.1189 
 184   0.0000       6.952395       189.1843 
 185   0.0000       7.174364       195.2244 
 186   0.0000       7.445863       202.6122 
 187   0.0000       7.477006       203.4597 
 188   0.0000       7.726612       210.2518 
 189   0.0000       7.726719       210.2547 
 190   0.0000       8.153734       221.8744 
 191   0.0000       8.373512       227.8548 
 192   0.0000       8.399969       228.5748 
 193   0.0000       8.933491       243.0927 
 194   0.0000       8.979963       244.3572 
 195   0.0000       9.042729       246.0652 
 196   0.0000       9.318873       253.5794 
 197   0.0000       9.319013       253.5832 
 198   0.0000       9.940709       270.5004 
 199   0.0000      10.163300       276.5574 
 200   0.0000      10.193789       277.3871 
 201   0.0000      10.523814       286.3675 
 202   0.0000      10.916178       297.0443 
 203   0.0000      10.949271       297.9448 
 204   0.0000      10.964823       298.3680 
 205   0.0000      10.964902       298.3701 
 206   0.0000      11.007610       299.5323 
 207   0.0000      11.008124       299.5463 
 208   0.0000      11.081618       301.5462 
 209   0.0000      11.081622       301.5463 
 210   0.0000      11.115511       302.4684 
 211   0.0000      11.150813       303.4291 
 212   0.0000      11.261031       306.4282 
 213   0.0000      11.261222       306.4334 
 214   0.0000      11.338220       308.5287 
 215   0.0000      11.338222       308.5287 
 216   0.0000      11.602158       315.7108 
 217   0.0000      11.671133       317.5877 
 218   0.0000      11.918332       324.3143 
 219   0.0000      11.918546       324.3201 
 220   0.0000      11.969799       325.7148 
 221   0.0000      11.969800       325.7148 
 222   0.0000      12.293477       334.5225 
 223   0.0000      12.293478       334.5225 
 224   0.0000      12.612341       343.1992 
 225   0.0000      12.612376       343.2002 
 226   0.0000      12.781631       347.8059 
 227   0.0000      12.783257       347.8501 
 228   0.0000      12.882884       350.5611 
 229   0.0000      13.127415       357.2151 
 230   0.0000      13.155956       357.9918 
 231   0.0000      13.180048       358.6473 
 232   0.0000      13.594021       369.9121 
 233   0.0000      13.594044       369.9127 
 234   0.0000      14.010558       381.2467 
 235   0.0000      14.044429       382.1683 
 236   0.0000      14.234726       387.3466 
 237   0.0000      14.234770       387.3478 
 238   0.0000      14.340866       390.2348 
 239   0.0000      14.340961       390.2374 
 240   0.0000      14.846217       403.9861 
 241   0.0000      14.848579       404.0504 
 242   0.0000      15.153779       412.3553 
 243   0.0000      15.473897       421.0661 
 244   0.0000      15.513182       422.1351 
 245   0.0000      15.928359       433.4327 
 246   0.0000      15.932018       433.5323 
 247   0.0000      16.017328       435.8537 
 248   0.0000      16.414340       446.6569 
 249   0.0000      16.427515       447.0154 
 250   0.0000      16.464118       448.0114 
 251   0.0000      16.754773       455.9206 
 252   0.0000      16.755356       455.9364 
 253   0.0000      16.910546       460.1594 
 254   0.0000      16.910595       460.1607 
 255   0.0000      17.163522       467.0432 
 256   0.0000      17.163543       467.0437 
 257   0.0000      17.908210       487.3072 
 258   0.0000      17.908591       487.3175 
 259   0.0000      18.621290       506.7111 
 260   0.0000      18.652658       507.5646 
 261   0.0000      18.665088       507.9029 
 262   0.0000      18.794877       511.4346 
 263   0.0000      18.826163       512.2859 
 264   0.0000      20.391106       554.8702 
 265   0.0000      22.923238       623.7730 
 266   0.0000      22.923281       623.7742 
 267   0.0000      23.813100       647.9874 
 268   0.0000      24.261649       660.1930 
 269   0.0000      24.289247       660.9440 
 270   0.0000      25.732110       700.2063 
 271   0.0000      26.122224       710.8218 
 272   0.0000      26.161128       711.8805 
 273   0.0000      28.672797       780.2265 
 274   0.0000      31.038818       844.6092 
 275   0.0000      31.789245       865.0293 
 276   0.0000      31.817879       865.8085 
 277   0.0000      34.201481       930.6696 
 278   0.0000      47.547338      1293.8289 
 279   0.0000      47.547745      1293.8399 
 280   0.0000      47.885740      1303.0372 
 281   0.0000      47.914999      1303.8334 
 282   0.0000      49.190193      1338.5332 
 283   0.0000      66.473059      1808.8239 
 284   0.0000      66.473117      1808.8255 
 285   0.0000      67.255617      1830.1184 
 286   0.0000      67.276160      1830.6774 
 287   0.0000      68.963528      1876.5930 
 288   0.0000     105.423250      2868.7125 
 289   0.0000     143.239312      3897.7398 

                    ********************************
                    * MULLIKEN POPULATION ANALYSIS *
                    ********************************

--------------------------------------------
MULLIKEN ATOMIC CHARGES AND SPIN POPULATIONS
--------------------------------------------
   0 N :    0.072875    0.626703
   1 O :   -0.072875    0.373297
Sum of atomic charges         :   -0.0000000
Sum of atomic spin populations:    1.0000000

-----------------------------------------------------
MULLIKEN REDUCED ORBITAL CHARGES AND SPIN POPULATIONS
-----------------------------------------------------
CHARGE
  0 N s       :     3.878166  s :     3.878166
      pz      :     0.961500  p :     2.949910
      px      :     0.692981
      py      :     1.295429
      dz2     :     0.019962  d :     0.085544
      dxz     :     0.026960
      dyz     :     0.038366
      dx2y2   :     0.000256
      dxy     :     0.000000
      f0      :     0.002202  f :     0.012239
      f+1     :     0.003507
      f-1     :     0.006472
      f+2     :     0.000021
      f-2     :     0.000000
      f+3     :     0.000018
      f-3     :     0.000018
      g0      :     0.000459  g :     0.001158
      g+1     :     0.000492
      g-1     :     0.000203
      g+2     :     0.000002
      g-2     :     0.000000
      g+3     :     0.000001
      g-3     :     0.000002
      g+4     :     0.000000
      g-4     :     0.000000
      h0      :     0.000071  h :     0.000109
      h+1     :     0.000032
      h-1     :     0.000004
      h+2     :     0.000000
      h-2     :     0.000000
      h+3     :     0.000000
      h-3     :     0.000000
      h+4     :     0.000000
      h-4     :     0.000000
      h+5     :     0.000000
      h-5     :     0.000000
  1 O s       :     3.866920  s :     3.866920
      pz      :     1.252886  p :     4.121943
      px      :     1.253269
      py      :     1.615788
      dz2     :     0.015030  d :     0.072901
      dxz     :     0.019937
      dyz     :     0.037867
      dx2y2   :     0.000067
      dxy     :     0.000000
      f0      :     0.001945  f :     0.009770
      f+1     :     0.002505
      f-1     :     0.005280
      f+2     :     0.000015
      f-2     :     0.000000
      f+3     :     0.000012
      f-3     :     0.000013
      g0      :     0.000437  g :     0.001172
      g+1     :     0.000266
      g-1     :     0.000463
      g+2     :     0.000004
      g-2     :     0.000000
      g+3     :     0.000001
      g-3     :     0.000001
      g+4     :     0.000000
      g-4     :     0.000000
      h0      :     0.000055  h :     0.000169
      h+1     :     0.000018
      h-1     :     0.000094
      h+2     :     0.000001
      h-2     :     0.000000
      h+3     :     0.000000
      h-3     :     0.000000
      h+4     :     0.000000
      h-4     :     0.000000
      h+5     :     0.000000
      h-5     :     0.000000

SPIN
  0 N s       :    -0.047875  s :    -0.047875
      pz      :    -0.007385  p :     0.665748
      px      :     0.013997
      py      :     0.659136
      dz2     :    -0.000255  d :     0.009816
      dxz     :    -0.000237
      dyz     :     0.010551
      dx2y2   :    -0.000243
      dxy     :    -0.000000
      f0      :    -0.000645  f :    -0.000312
      f+1     :    -0.000672
      f-1     :     0.001054
      f+2     :    -0.000015
      f-2     :    -0.000000
      f+3     :    -0.000017
      f-3     :    -0.000016
      g0      :    -0.000116  g :    -0.000627
      g+1     :    -0.000064
      g-1     :    -0.000447
      g+2     :    -0.000000
      g-2     :    -0.000000
      g+3     :     0.000000
      g-3     :     0.000000
      g+4     :     0.000000
      g-4     :     0.000000
      h0      :    -0.000011  h :    -0.000047
      h+1     :     0.000000
      h-1     :    -0.000036
      h+2     :    -0.000000
      h-2     :    -0.000000
      h+3     :    -0.000000
      h-3     :    -0.000000
      h+4     :     0.000000
      h-4     :     0.000000
      h+5     :     0.000000
      h-5     :     0.000000
  1 O s       :     0.022526  s :     0.022526
      pz      :     0.030227  p :     0.328312
      px      :    -0.012147
      py      :     0.310232
      dz2     :     0.003960  d :     0.019985
      dxz     :    -0.000740
      dyz     :     0.016826
      dx2y2   :    -0.000061
      dxy     :    -0.000000
      f0      :    -0.000009  f :     0.002078
      f+1     :    -0.000180
      f-1     :     0.002296
      f+2     :    -0.000008
      f-2     :    -0.000000
      f+3     :    -0.000011
      f-3     :    -0.000011
      g0      :    -0.000078  g :     0.000310
      g+1     :     0.000064
      g-1     :     0.000326
      g+2     :    -0.000002
      g-2     :    -0.000000
      g+3     :    -0.000000
      g-3     :    -0.000001
      g+4     :     0.000000
      g-4     :     0.000000
      h0      :    -0.000011  h :     0.000087
      h+1     :     0.000009
      h-1     :     0.000090
      h+2     :    -0.000001
      h-2     :    -0.000000
      h+3     :    -0.000000
      h-3     :    -0.000001
      h+4     :     0.000000
      h-4     :     0.000000
      h+5     :     0.000000
      h-5     :     0.000000


                     *******************************
                     * LOEWDIN POPULATION ANALYSIS *
                     *******************************

-------------------------------------------
LOEWDIN ATOMIC CHARGES AND SPIN POPULATIONS
-------------------------------------------
   0 N :   -0.071863    0.587219
   1 O :    0.071863    0.412781

----------------------------------------------------
LOEWDIN REDUCED ORBITAL CHARGES AND SPIN POPULATIONS
----------------------------------------------------
CHARGE
  0 N s       :     3.274350  s :     3.274350
      pz      :     1.274236  p :     3.025854
      px      :     0.666797
      py      :     1.084821
      dz2     :     0.230705  d :     0.511220
      dxz     :     0.095688
      dyz     :     0.184593
      dx2y2   :     0.000235
      dxy     :     0.000000
      f0      :     0.070467  f :     0.201133
      f+1     :     0.046605
      f-1     :     0.083999
      f+2     :     0.000025
      f-2     :     0.000000
      f+3     :     0.000018
      f-3     :     0.000018
      g0      :     0.015058  g :     0.048365
      g+1     :     0.013022
      g-1     :     0.020280
      g+2     :     0.000002
      g-2     :     0.000000
      g+3     :     0.000001
      g-3     :     0.000001
      g+4     :     0.000000
      g-4     :     0.000000
      h0      :     0.003964  h :     0.010941
      h+1     :     0.002846
      h-1     :     0.004129
      h+2     :     0.000001
      h-2     :     0.000000
      h+3     :     0.000000
      h-3     :     0.000000
      h+4     :     0.000000
      h-4     :     0.000000
      h+5     :     0.000000
      h-5     :     0.000000
  1 O s       :     3.351504  s :     3.351504
      pz      :     1.513216  p :     3.989259
      px      :     1.099458
      py      :     1.376585
      dz2     :     0.197431  d :     0.408454
      dxz     :     0.047108
      dyz     :     0.163845
      dx2y2   :     0.000069
      dxy     :     0.000000
      f0      :     0.052616  f :     0.138301
      f+1     :     0.021222
      f-1     :     0.064415
      f+2     :     0.000022
      f-2     :     0.000000
      f+3     :     0.000012
      f-3     :     0.000013
      g0      :     0.012678  g :     0.032197
      g+1     :     0.005669
      g-1     :     0.013840
      g+2     :     0.000008
      g-2     :     0.000000
      g+3     :     0.000001
      g-3     :     0.000001
      g+4     :     0.000000
      g-4     :     0.000000
      h0      :     0.003409  h :     0.008423
      h+1     :     0.001550
      h-1     :     0.003458
      h+2     :     0.000004
      h-2     :     0.000000
      h+3     :     0.000000
      h-3     :     0.000000
      h+4     :     0.000000
      h-4     :     0.000000
      h+5     :     0.000000
      h-5     :     0.000000

SPIN
  0 N s       :     0.004101  s :     0.004101
      pz      :    -0.003688  p :     0.463386
      px      :     0.010084
      py      :     0.456990
      dz2     :     0.001323  d :     0.079235
      dxz     :    -0.002166
      dyz     :     0.080295
      dx2y2   :    -0.000217
      dxy     :    -0.000000
      f0      :     0.000049  f :     0.032458
      f+1     :    -0.001084
      f-1     :     0.033546
      f+2     :    -0.000019
      f-2     :    -0.000000
      f+3     :    -0.000018
      f-3     :    -0.000017
      g0      :     0.000025  g :     0.006842
      g+1     :    -0.000075
      g-1     :     0.006893
      g+2     :    -0.000001
      g-2     :    -0.000000
      g+3     :     0.000000
      g-3     :     0.000000
      g+4     :     0.000000
      g-4     :     0.000000
      h0      :    -0.000027  h :     0.001197
      h+1     :    -0.000006
      h-1     :     0.001230
      h+2     :    -0.000001
      h-2     :    -0.000000
      h+3     :    -0.000000
      h-3     :    -0.000000
      h+4     :     0.000000
      h-4     :     0.000000
      h+5     :     0.000000
      h-5     :     0.000000
  1 O s       :     0.001324  s :     0.001324
      pz      :    -0.004623  p :     0.230952
      px      :    -0.008254
      py      :     0.243829
      dz2     :     0.001829  d :     0.123122
      dxz     :     0.000718
      dyz     :     0.120639
      dx2y2   :    -0.000064
      dxy     :    -0.000000
      f0      :     0.000296  f :     0.046472
      f+1     :     0.000580
      f-1     :     0.045635
      f+2     :    -0.000018
      f-2     :    -0.000000
      f+3     :    -0.000011
      f-3     :    -0.000011
      g0      :    -0.000164  g :     0.008924
      g+1     :     0.000195
      g-1     :     0.008900
      g+2     :    -0.000006
      g-2     :    -0.000000
      g+3     :    -0.000000
      g-3     :    -0.000000
      g+4     :     0.000000
      g-4     :     0.000000
      h0      :    -0.000116  h :     0.001988
      h+1     :     0.000037
      h-1     :     0.002071
      h+2     :    -0.000004
      h-2     :    -0.000000
      h+3     :    -0.000000
      h-3     :    -0.000000
      h+4     :     0.000000
      h-4     :     0.000000
      h+5     :     0.000000
      h-5     :     0.000000


                      *****************************
                      * MAYER POPULATION ANALYSIS *
                      *****************************

  NA   - Mulliken gross atomic population
  ZA   - Total nuclear charge
  QA   - Mulliken gross atomic charge
  VA   - Mayer's total valence
  BVA  - Mayer's bonded valence
  FA   - Mayer's free valence

  ATOM       NA         ZA         QA         VA         BVA        FA
  0 N      6.9271     7.0000     0.0729     2.6516     2.1863     0.4652
  1 O      8.0729     8.0000    -0.0729     2.3141     2.1863     0.1277

  Mayer bond orders larger than 0.1
B(  0-N ,  1-O ) :   2.1863 

-------
TIMINGS
-------

Total SCF time: 0 days 0 hours 4 min 49 sec 

Total time                  ....     289.947 sec
Sum of individual times     ....     289.358 sec  ( 99.8%)

Fock matrix formation       ....     287.173 sec  ( 99.0%)
  XC integration            ....       6.261 sec  (  2.2% of F)
    Basis function eval.    ....       0.413 sec  (  6.6% of XC)
    Density eval.           ....       1.102 sec  ( 17.6% of XC)
    XC-Functional eval.     ....       0.083 sec  (  1.3% of XC)
    XC-Potential eval.      ....       4.246 sec  ( 67.8% of XC)
Diagonalization             ....       0.646 sec  (  0.2%)
Density matrix formation    ....       0.014 sec  (  0.0%)
Population analysis         ....       0.066 sec  (  0.0%)
Initial guess               ....       0.396 sec  (  0.1%)
Orbital Transformation      ....       0.000 sec  (  0.0%)
Orbital Orthonormalization  ....       0.000 sec  (  0.0%)
DIIS solution               ....       0.808 sec  (  0.3%)
Grid generation             ....       0.253 sec  (  0.1%)

-------------------------   --------------------
FINAL SINGLE POINT ENERGY      -129.825621208861
-------------------------   --------------------


                            ***************************************
                            *     ORCA property calculations      *
                            ***************************************

                                    ---------------------
                                    Active property flags
                                    ---------------------
   (+) Dipole Moment


------------------------------------------------------------------------------
                       ORCA ELECTRIC PROPERTIES CALCULATION
------------------------------------------------------------------------------

Dipole Moment Calculation                       ... on
Quadrupole Moment Calculation                   ... off
Polarizability Calculation                      ... off
GBWName                                         ... no_pbe_00.gbw
Electron density file                           ... no_pbe_00.scfp.tmp
The origin for moment calculation is the CENTER OF MASS  = ( 0.000000,  0.000000  1.162557)

-------------
DIPOLE MOMENT
-------------
                                X             Y             Z
Electronic contribution:      0.00000      -0.00000       0.08563
Nuclear contribution   :      0.00000       0.00000       0.00458
                        -----------------------------------------
Total Dipole Moment    :      0.00000      -0.00000       0.09021
                        -----------------------------------------
Magnitude (a.u.)       :      0.09021
Magnitude (Debye)      :      0.22929



--------------------
Rotational spectrum 
--------------------
 
Rotational constants in cm-1:     0.000000     1.695532     1.695532 
Rotational constants in MHz :     0.000000 50830.768128 50830.768128 

 Dipole components along the rotational axes: 
x,y,z [a.u.] :     0.090207    -0.000000     0.000000 
x,y,z [Debye]:     0.229289    -0.000000     0.000000 

 

Timings for individual modules:

Sum of individual times         ...      291.574 sec (=   4.860 min)
GTO integral calculation        ...        1.306 sec (=   0.022 min)   0.4 %
SCF iterations                  ...      290.268 sec (=   4.838 min)  99.6 %
                             ****ORCA TERMINATED NORMALLY****
TOTAL RUN TIME: 0 days 0 hours 4 minutes 52 seconds 311 msec
