
                                 *****************
                                 * O   R   C   A *
                                 *****************

           --- An Ab Initio, DFT and Semiempirical electronic structure package ---

                  #######################################################
                  #                        -***-                        #
                  #          Department of theory and spectroscopy      #
                  #               Directorship: Frank Neese             #
                  #        Max Planck Institute fuer Kohlenforschung    #
                  #                Kaiser Wilhelm Platz 1               #
                  #                 D-45470 Muelheim/Ruhr               #
                  #                      Germany                        #
                  #                                                     #
                  #                  All rights reserved                #
                  #                        -***-                        #
                  #######################################################


                         Program Version 4.1.1  - RELEASE  -


 With contributions from (in alphabetic order):
   Daniel Aravena         : Magnetic Properties
   Michael Atanasov       : Ab Initio Ligand Field Theory
   Alexander A. Auer      : GIAO ZORA
   Ute Becker             : Parallelization
   Giovanni Bistoni       : ED, Open-shell LED
   Martin Brehm           : Molecular dynamics
   Dmytro Bykov           : SCF Hessian
   Vijay G. Chilkuri      : MRCI spin determinant printing
   Dipayan Datta          : RHF DLPNO-CCSD density
   Achintya Kumar Dutta   : EOM-CC, STEOM-CC
   Dmitry Ganyushin       : Spin-Orbit,Spin-Spin,Magnetic field MRCI
   Miquel Garcia          : C-PCM Hessian
   Yang Guo               : DLPNO-NEVPT2, CIM, IAO-localization
   Andreas Hansen         : Spin unrestricted coupled pair/coupled cluster methods
   Benjamin Helmich-Paris : CASSCF linear response (MC-RPA)
   Lee Huntington         : MR-EOM, pCC
   Robert Izsak           : Overlap fitted RIJCOSX, COSX-SCS-MP3, EOM
   Christian Kollmar      : KDIIS, OOCD, Brueckner-CCSD(T), CCSD density
   Simone Kossmann        : Meta GGA functionals, TD-DFT gradient, OOMP2, MP2 Hessian
   Martin Krupicka        : AUTO-CI
   Lucas Lang             : DCDCAS
   Dagmar Lenk            : GEPOL surface, SMD
   Dimitrios Liakos       : Extrapolation schemes; parallel MDCI
   Dimitrios Manganas     : ROCIS; embedding schemes
   Dimitrios Pantazis     : SARC Basis sets
   Taras Petrenko         : DFT Hessian,TD-DFT gradient, ASA, ECA, R-Raman, ABS, FL, XAS/XES, NRVS
   Peter Pinski           : DLPNO-MP2, DLPNO-MP2 Gradient
   Christoph Reimann      : Effective Core Potentials
   Marius Retegan         : Local ZFS, SOC
   Christoph Riplinger    : Optimizer, TS searches, QM/MM, DLPNO-CCSD(T), (RO)-DLPNO pert. Triples
   Tobias Risthaus        : Range-separated hybrids, TD-DFT gradient, RPA, STAB
   Michael Roemelt        : Restricted open shell CIS
   Masaaki Saitow         : Open-shell DLPNO
   Barbara Sandhoefer     : DKH picture change effects
   Avijit Sen             : IP-ROCIS
   Kantharuban Sivalingam : CASSCF convergence, NEVPT2, FIC-MRCI
   Bernardo de Souza      : ESD, SOC TD-DFT
   Georgi Stoychev        : AutoAux, RI-MP2 NMR
   Willem Van den Heuvel  : Paramagnetic NMR
   Boris Wezisla          : Elementary symmetry handling
   Frank Wennmohs         : Technical directorship


 We gratefully acknowledge several colleagues who have allowed us to
 interface, adapt or use parts of their codes:
   Stefan Grimme, W. Hujo, H. Kruse,             : VdW corrections, initial TS optimization,
                  C. Bannwarth                     DFT functionals, gCP, sTDA/sTD-DF
   Ed Valeev                                     : LibInt (2-el integral package), F12 methods
   Garnet Chan, S. Sharma, J. Yang, R. Olivares  : DMRG
   Ulf Ekstrom                                   : XCFun DFT Library
   Mihaly Kallay                                 : mrcc  (arbitrary order and MRCC methods)
   Andreas Klamt, Michael Diedenhofen            : otool_cosmo (COSMO solvation model)
   Jiri Pittner, Ondrej Demel                    : Mk-CCSD
   Frank Weinhold                                : gennbo (NPA and NBO analysis)
   Christopher J. Cramer and Donald G. Truhlar   : smd solvation model
   Lars Goerigk                                  : TD-DFT with DH, B97 family of functionals
   V. Asgeirsson, H. Jonsson                     : NEB implementation
   FAccTs GmbH                                   : IRC, NEB, NEB-TS, Multilevel


 Your calculation uses the libint2 library for the computation of 2-el integrals
 For citations please refer to: http://libint.valeyev.net

 This ORCA versions uses:
   CBLAS   interface :  Fast vector & matrix operations
   LAPACKE interface :  Fast linear algebra routines
   SCALAPACK package :  Parallel linear algebra routines


----- Orbital basis set information -----
Your calculation utilizes the basis: aug-pc-4
   H, C-F              : F. Jensen, J. Chem. Phys. 115, 9113 (2001).
                         F. Jensen, J. Chem. Phys. 116, 7372 (2002).
                         F. Jensen, J. Chem. Phys. 117, 9234 (2002).
   Si-Cl               : F. Jensen, T. Helgaker, J. Chem. Phys. 121, 3463 (2004).
   He-B, Ne-Mg, Al, Ar : F. Jensen, J. Phys. Chem. A 111, 11198 (2007).
   K, Ca, Ga-Kr        : F. Jensen, J. Chem. Phys. 136, 094110 (2012).
   Sc-Zn               : F. Jensen, J. Chem. Phys. 138, 014107 (2013).

================================================================================
                                        WARNINGS
                       Please study these warnings very carefully!
================================================================================


INFO   : the flag for use of LIBINT has been found!

================================================================================
                                       INPUT FILE
================================================================================
NAME = no_pbe_+001_x.inp
|  1> ! uks pbe nori aug-pc-4 grid5 nofinalgrid verytightscf
|  2> 
|  3> %maxcore 1500
|  4> 
|  5> %pal nprocs 4 end
|  6> %scf
|  7>     efield 0.01, 0.0, 0.0
|  8>     maxiter 300
|  9> end
| 10> * xyz 0 2
| 11> N      0.0000  0.0000  0.0000
| 12> O      0.0000  0.0000  1.1538
| 13> *
| 14> 
| 15>                          ****END OF INPUT****
================================================================================

                       ****************************
                       * Single Point Calculation *
                       ****************************

---------------------------------
CARTESIAN COORDINATES (ANGSTROEM)
---------------------------------
  N      0.000000    0.000000    0.000000
  O      0.000000    0.000000    1.153800

----------------------------
CARTESIAN COORDINATES (A.U.)
----------------------------
  NO LB      ZA    FRAG     MASS         X           Y           Z
   0 N     7.0000    0    14.007    0.000000    0.000000    0.000000
   1 O     8.0000    0    15.999    0.000000    0.000000    2.180366

--------------------------------
INTERNAL COORDINATES (ANGSTROEM)
--------------------------------
 N      0   0   0     0.000000000000     0.00000000     0.00000000
 O      1   0   0     1.153800000000     0.00000000     0.00000000

---------------------------
INTERNAL COORDINATES (A.U.)
---------------------------
 N      0   0   0     0.000000000000     0.00000000     0.00000000
 O      1   0   0     2.180366013318     0.00000000     0.00000000

---------------------
BASIS SET INFORMATION
---------------------
There are 2 groups of distinct atoms

 Group   1 Type N   : 27s12p7d4f3g2h contracted to 9s8p7d4f3g2h pattern {1191111111/51111111/1111111/1111/111/11}
 Group   2 Type O   : 27s12p7d4f3g2h contracted to 9s8p7d4f3g2h pattern {1191111111/51111111/1111111/1111/111/11}

Atom   0N    basis set group =>   1
Atom   1O    basis set group =>   2


           ************************************************************
           *        Program running with 4 parallel MPI-processes     *
           *              working on a common directory               *
           ************************************************************
------------------------------------------------------------------------------
                           ORCA GTO INTEGRAL CALCULATION
------------------------------------------------------------------------------

                         BASIS SET STATISTICS AND STARTUP INFO

 # of primitive gaussian shells          ...  110
 # of primitive gaussian functions       ...  350
 # of contracted shells                  ...   66
 # of contracted basis functions         ...  290
 Highest angular momentum                ...    5
 Maximum contraction depth               ...   11
 Integral package used                   ... LIBINT
 Integral threshhold            Thresh   ...  1.000e-12
 Primitive cut-off              TCut     ...  1.000e-14


------------------------------ INTEGRAL EVALUATION ----------------------------


 * One electron integrals 
 Pre-screening matrix                    ... done
 Shell pair data                         ... done (   0.001 sec)


An Electric Field will be added: 1.000e-02 0.000e+00 0.000e+00 au

  ... done adding electric field perturbation



           ************************************************************
           *        Program running with 4 parallel MPI-processes     *
           *              working on a common directory               *
           ************************************************************
-------------------------------------------------------------------------------
                                 ORCA SCF
-------------------------------------------------------------------------------

------------
SCF SETTINGS
------------
Hamiltonian:
 Density Functional     Method          .... DFT(GTOs)
 Exchange Functional    Exchange        .... PBE
   PBE kappa parameter   XKappa         ....  0.804000
   PBE mue parameter    XMuePBE         ....  0.219520
 Correlation Functional Correlation     .... PBE
   PBE beta parameter  CBetaPBE         ....  0.066725
 LDA part of GGA corr.  LDAOpt          .... PW91-LDA
 Gradients option       PostSCFGGA      .... off
   Density functional embedding theory  .... OFF
   NL short-range parameter             ....  6.400000


General Settings:
 Integral files         IntName         .... no_pbe_+001_x
 Hartree-Fock type      HFTyp           .... UHF
 Total Charge           Charge          ....    0
 Multiplicity           Mult            ....    2
 Number of Electrons    NEL             ....   15
 Basis Dimension        Dim             ....  290
 Nuclear Repulsion      ENuc            ....     25.6837611933 Eh

Convergence Acceleration:
 DIIS                   CNVDIIS         .... on
   Start iteration      DIISMaxIt       ....    12
   Startup error        DIISStart       ....  0.200000
   # of expansion vecs  DIISMaxEq       ....     5
   Bias factor          DIISBfac        ....   1.050
   Max. coefficient     DIISMaxC        ....  10.000
 Newton-Raphson         CNVNR           .... off
 SOSCF                  CNVSOSCF        .... off
 Level Shifting         CNVShift        .... on
   Level shift para.    LevelShift      ....    0.2500
   Turn off err/grad.   ShiftErr        ....    0.0010
 Zerner damping         CNVZerner       .... off
 Static damping         CNVDamp         .... on
   Fraction old density DampFac         ....    0.7000
   Max. Damping (<1)    DampMax         ....    0.9800
   Min. Damping (>=0)   DampMin         ....    0.0000
   Turn off err/grad.   DampErr         ....    0.1000
 Fernandez-Rico         CNVRico         .... off

SCF Procedure:
 Maximum # iterations   MaxIter         ....   300
 SCF integral mode      SCFMode         .... Direct
   Integral package                     .... LIBINT
 Reset frequency        DirectResetFreq ....    20
 Integral Threshold     Thresh          ....  1.000e-12 Eh
 Primitive CutOff       TCut            ....  1.000e-14 Eh

Convergence Tolerance:
 Convergence Check Mode ConvCheckMode   .... Total+1el-Energy
 Convergence forced     ConvForced      .... 0
 Energy Change          TolE            ....  1.000e-09 Eh
 1-El. energy change                    ....  1.000e-06 Eh
 DIIS Error             TolErr          ....  1.000e-08


Diagonalization of the overlap matrix:
Smallest eigenvalue                        ... 2.019e-06
Time for diagonalization                   ...    0.016 sec
Threshold for overlap eigenvalues          ... 1.000e-08
Number of eigenvalues below threshold      ... 0
Time for construction of square roots      ...    0.012 sec
Total time needed                          ...    0.029 sec

-------------------
DFT GRID GENERATION
-------------------

General Integration Accuracy     IntAcc      ...  5.010
Radial Grid Type                 RadialGrid  ... Gauss-Chebyshev
Angular Grid (max. acc.)         AngularGrid ... Lebedev-434
Angular grid pruning method      GridPruning ... 3 (G Style)
Weight generation scheme         WeightScheme... Becke
Basis function cutoff            BFCut       ...    1.0000e-12
Integration weight cutoff        WCut        ...    1.0000e-14
Grids for H and He will be reduced by one unit

# of grid points (after initial pruning)     ...  21432 (   0.0 sec)
# of grid points (after weights+screening)   ...  21342 (   0.0 sec)
nearest neighbour list constructed           ...    0.0 sec
Grid point re-assignment to atoms done       ...    0.0 sec
Grid point division into batches done        ...    0.2 sec
Reduced shell lists constructed in    0.2 sec

Total number of grid points                  ...    21342
Total number of batches                      ...      334
Average number of points per batch           ...       63
Average number of grid points per atom       ...    10671
Average number of shells per batch           ...    40.49 (61.35%)
Average number of basis functions per batch  ...   187.39 (64.62%)
Average number of large shells per batch     ...    34.79 (85.91%)
Average number of large basis fcns per batch ...   162.46 (86.70%)
Maximum spatial batch extension              ...  16.29, 16.29, 13.64 au
Average spatial batch extension              ...   1.36,  1.35,  1.17 au

Time for grid setup =    0.254 sec

------------------------------
INITIAL GUESS: MODEL POTENTIAL
------------------------------
Loading Hartree-Fock densities                     ... done
Calculating cut-offs                               ... done
Setting up the integral package                    ... done
Initializing the effective Hamiltonian             ... done
Starting the Coulomb interaction                   ... done (   0.0 sec)
Reading the grid                                   ... done
Mapping shells                                     ... done
Starting the XC term evaluation                    ... done (   0.2 sec)
  promolecular density results
     # of electrons  =     15.000002805
     EX              =    -14.595347118
     EC              =     -0.490731592
     EX+EC           =    -15.086078709
Transforming the Hamiltonian                       ... done (   0.0 sec)
Diagonalizing the Hamiltonian                      ... done (   0.0 sec)
Back transforming the eigenvectors                 ... done (   0.0 sec)
Now organizing SCF variables                       ... done
                      ------------------
                      INITIAL GUESS DONE (   0.6 sec)
                      ------------------
--------------
SCF ITERATIONS
--------------
ITER       Energy         Delta-E        Max-DP      RMS-DP      [F,P]     Damp
               ***  Starting incremental Fock matrix formation  ***
  0   -129.8178477649   0.000000000000 0.00542375  0.00005821  0.0752864 0.7000
  1   -129.8213428038  -0.003495038891 0.00415872  0.00004185  0.0239739 0.7000
                               ***Turning on DIIS***
  2   -129.8227072017  -0.001364397939 0.00958181  0.00009412  0.0146974 0.0000
  3   -129.8258969720  -0.003189770329 0.00262015  0.00002424  0.0119760 0.0000
  4   -129.8261731668  -0.000276194782 0.00047662  0.00000707  0.0016701 0.0000
  5   -129.8261856315  -0.000012464703 0.00029688  0.00000436  0.0013540 0.0000
  6   -129.8261889618  -0.000003330255 0.00135744  0.00001646  0.0004500 0.0000
  7   -129.8261902211  -0.000001259282 0.00007252  0.00000115  0.0003575 0.0000
  8   -129.8261904765  -0.000000255412 0.00003819  0.00000062  0.0000290 0.0000
  9   -129.8261905103  -0.000000033782 0.00000724  0.00000009  0.0000089 0.0000
 10   -129.8261905150  -0.000000004726 0.00000403  0.00000004  0.0000086 0.0000
 11   -129.8261905161  -0.000000001130 0.00000228  0.00000003  0.0000017 0.0000
 12   -129.8261905164  -0.000000000317 0.00000084  0.00000001  0.0000004 0.0000
                 **** Energy Check signals convergence ****

               *****************************************************
               *                     SUCCESS                       *
               *           SCF CONVERGED AFTER  13 CYCLES          *
               *****************************************************


----------------
TOTAL SCF ENERGY
----------------

Total Energy       :         -129.82619052 Eh           -3532.75025 eV

Components:
Nuclear Repulsion  :           25.68376119 Eh             698.89067 eV
Electronic Energy  :         -155.50995171 Eh           -4231.64092 eV
One Electron Energy:         -227.77577214 Eh           -6198.09387 eV
Two Electron Energy:           72.26582044 Eh            1966.45295 eV

Virial components:
Potential Energy   :         -259.25060119 Eh           -7054.56751 eV
Kinetic Energy     :          129.42441068 Eh            3521.81726 eV
Virial Ratio       :            2.00310436


DFT components:
N(Alpha)           :        8.000000351205 electrons
N(Beta)            :        7.000000370277 electrons
N(Total)           :       15.000000721482 electrons
E(X)               :      -14.728073924275 Eh       
E(C)               :       -0.489533946769 Eh       
E(XC)              :      -15.217607871044 Eh       
DFET-embed. en.    :        0.000000000000 Eh       

---------------
SCF CONVERGENCE
---------------

  Last Energy change         ...   -4.3286e-11  Tolerance :   1.0000e-09
  Last MAX-Density change    ...    3.3354e-07  Tolerance :   1.0000e-08
  Last RMS-Density change    ...    4.5709e-09  Tolerance :   1.0000e-09
  Last DIIS Error            ...    1.4341e-07  Tolerance :   1.0000e-08

             **** THE GBW FILE WAS UPDATED (no_pbe_+001_x.gbw) ****
             **** DENSITY FILE WAS UPDATED (no_pbe_+001_x.scfp.tmp) ****
             **** ENERGY FILE WAS UPDATED (no_pbe_+001_x.en.tmp) ****
----------------------
UHF SPIN CONTAMINATION
----------------------

Warning: in a DFT calculation there is little theoretical justification to 
         calculate <S**2> as in Hartree-Fock theory. We will do it anyways
         but you should keep in mind that the values have only limited relevance

Expectation value of <S**2>     :     0.752016
Ideal value S*(S+1) for S=0.5   :     0.750000
Deviation                       :     0.002016

----------------
ORBITAL ENERGIES
----------------
                 SPIN UP ORBITALS
  NO   OCC          E(Eh)            E(eV) 
   0   1.0000     -18.890506      -514.0368 
   1   1.0000     -14.120103      -384.2275 
   2   1.0000      -1.155188       -31.4343 
   3   1.0000      -0.622855       -16.9488 
   4   1.0000      -0.475194       -12.9307 
   5   1.0000      -0.473282       -12.8787 
   6   1.0000      -0.432670       -11.7736 
   7   1.0000      -0.167873        -4.5681 
   8   0.0000      -0.157333        -4.2812 
   9   0.0000      -0.033172        -0.9027 
  10   0.0000      -0.004492        -0.1222 
  11   0.0000       0.020061         0.5459 
  12   0.0000       0.037131         1.0104 
  13   0.0000       0.050956         1.3866 
  14   0.0000       0.057058         1.5526 
  15   0.0000       0.068399         1.8612 
  16   0.0000       0.082760         2.2520 
  17   0.0000       0.098449         2.6789 
  18   0.0000       0.109306         2.9744 
  19   0.0000       0.131740         3.5848 
  20   0.0000       0.136406         3.7118 
  21   0.0000       0.145362         3.9555 
  22   0.0000       0.168737         4.5916 
  23   0.0000       0.178755         4.8642 
  24   0.0000       0.182715         4.9719 
  25   0.0000       0.187272         5.0959 
  26   0.0000       0.192738         5.2447 
  27   0.0000       0.193988         5.2787 
  28   0.0000       0.203215         5.5298 
  29   0.0000       0.204616         5.5679 
  30   0.0000       0.262514         7.1434 
  31   0.0000       0.286722         7.8021 
  32   0.0000       0.286926         7.8077 
  33   0.0000       0.299404         8.1472 
  34   0.0000       0.309432         8.4201 
  35   0.0000       0.328514         8.9393 
  36   0.0000       0.354300         9.6410 
  37   0.0000       0.355179         9.6649 
  38   0.0000       0.356538         9.7019 
  39   0.0000       0.363710         9.8970 
  40   0.0000       0.367939        10.0121 
  41   0.0000       0.379710        10.3324 
  42   0.0000       0.383260        10.4290 
  43   0.0000       0.383399        10.4328 
  44   0.0000       0.414083        11.2678 
  45   0.0000       0.415320        11.3014 
  46   0.0000       0.424961        11.5638 
  47   0.0000       0.426598        11.6083 
  48   0.0000       0.468416        12.7462 
  49   0.0000       0.479862        13.0577 
  50   0.0000       0.480566        13.0769 
  51   0.0000       0.491750        13.3812 
  52   0.0000       0.491824        13.3832 
  53   0.0000       0.492328        13.3969 
  54   0.0000       0.562581        15.3086 
  55   0.0000       0.563238        15.3265 
  56   0.0000       0.581321        15.8185 
  57   0.0000       0.586174        15.9506 
  58   0.0000       0.591589        16.0980 
  59   0.0000       0.622574        16.9411 
  60   0.0000       0.629816        17.1382 
  61   0.0000       0.631258        17.1774 
  62   0.0000       0.661981        18.0134 
  63   0.0000       0.662240        18.0205 
  64   0.0000       0.678596        18.4655 
  65   0.0000       0.678628        18.4664 
  66   0.0000       0.695451        18.9242 
  67   0.0000       0.702939        19.1279 
  68   0.0000       0.735787        20.0218 
  69   0.0000       0.742561        20.2061 
  70   0.0000       0.742768        20.2118 
  71   0.0000       0.775112        21.0919 
  72   0.0000       0.775769        21.1097 
  73   0.0000       0.784169        21.3383 
  74   0.0000       0.786525        21.4024 
  75   0.0000       0.805867        21.9288 
  76   0.0000       0.805889        21.9294 
  77   0.0000       0.835584        22.7374 
  78   0.0000       0.836797        22.7704 
  79   0.0000       0.837836        22.7987 
  80   0.0000       0.886431        24.1210 
  81   0.0000       0.893936        24.3252 
  82   0.0000       0.894469        24.3397 
  83   0.0000       0.900259        24.4973 
  84   0.0000       0.901811        24.5395 
  85   0.0000       0.903815        24.5941 
  86   0.0000       0.904086        24.6014 
  87   0.0000       0.914778        24.8924 
  88   0.0000       0.915829        24.9210 
  89   0.0000       0.938992        25.5513 
  90   0.0000       0.939088        25.5539 
  91   0.0000       0.946126        25.7454 
  92   0.0000       0.971669        26.4405 
  93   0.0000       0.971815        26.4444 
  94   0.0000       0.998743        27.1772 
  95   0.0000       0.998760        27.1777 
  96   0.0000       1.029851        28.0237 
  97   0.0000       1.030665        28.0458 
  98   0.0000       1.103996        30.0413 
  99   0.0000       1.104048        30.0427 
 100   0.0000       1.147520        31.2256 
 101   0.0000       1.148313        31.2472 
 102   0.0000       1.153766        31.3956 
 103   0.0000       1.175512        31.9873 
 104   0.0000       1.202390        32.7187 
 105   0.0000       1.202444        32.7202 
 106   0.0000       1.270623        34.5754 
 107   0.0000       1.329569        36.1794 
 108   0.0000       1.331265        36.2256 
 109   0.0000       1.450325        39.4654 
 110   0.0000       1.480460        40.2854 
 111   0.0000       1.482886        40.3514 
 112   0.0000       1.557249        42.3749 
 113   0.0000       1.559894        42.4469 
 114   0.0000       1.621885        44.1337 
 115   0.0000       1.664030        45.2806 
 116   0.0000       1.665374        45.3171 
 117   0.0000       1.808251        49.2050 
 118   0.0000       1.830166        49.8013 
 119   0.0000       1.831634        49.8413 
 120   0.0000       1.873152        50.9711 
 121   0.0000       1.873395        50.9777 
 122   0.0000       1.949431        53.0467 
 123   0.0000       1.950667        53.0803 
 124   0.0000       2.072215        56.3878 
 125   0.0000       2.110156        57.4203 
 126   0.0000       2.110352        57.4256 
 127   0.0000       2.138687        58.1966 
 128   0.0000       2.140703        58.2515 
 129   0.0000       2.307474        62.7896 
 130   0.0000       2.376700        64.6733 
 131   0.0000       2.377481        64.6946 
 132   0.0000       2.421831        65.9014 
 133   0.0000       2.422767        65.9268 
 134   0.0000       2.690599        73.2149 
 135   0.0000       2.886454        78.5444 
 136   0.0000       2.886965        78.5583 
 137   0.0000       2.890243        78.6475 
 138   0.0000       2.893619        78.7394 
 139   0.0000       2.926725        79.6402 
 140   0.0000       3.196877        86.9915 
 141   0.0000       3.199319        87.0579 
 142   0.0000       3.220872        87.6444 
 143   0.0000       3.403491        92.6137 
 144   0.0000       3.738438       101.7281 
 145   0.0000       3.745580       101.9224 
 146   0.0000       3.972354       108.0932 
 147   0.0000       4.030851       109.6850 
 148   0.0000       4.032422       109.7278 
 149   0.0000       4.103544       111.6631 
 150   0.0000       4.105757       111.7233 
 151   0.0000       4.244550       115.5001 
 152   0.0000       4.412440       120.0686 
 153   0.0000       4.412857       120.0799 
 154   0.0000       4.421174       120.3063 
 155   0.0000       4.423040       120.3570 
 156   0.0000       4.563770       124.1865 
 157   0.0000       4.564285       124.2005 
 158   0.0000       4.606023       125.3363 
 159   0.0000       4.883481       132.8863 
 160   0.0000       4.883861       132.8966 
 161   0.0000       4.912519       133.6765 
 162   0.0000       4.912641       133.6798 
 163   0.0000       4.950676       134.7148 
 164   0.0000       4.950792       134.7179 
 165   0.0000       5.199431       141.4837 
 166   0.0000       5.199567       141.4874 
 167   0.0000       5.258033       143.0783 
 168   0.0000       5.326541       144.9425 
 169   0.0000       5.328499       144.9958 
 170   0.0000       5.522793       150.2828 
 171   0.0000       5.867272       159.6566 
 172   0.0000       5.868843       159.6993 
 173   0.0000       5.894487       160.3971 
 174   0.0000       5.894508       160.3977 
 175   0.0000       6.086988       165.6354 
 176   0.0000       6.087404       165.6467 
 177   0.0000       6.467460       175.9885 
 178   0.0000       6.467596       175.9922 
 179   0.0000       6.546271       178.1331 
 180   0.0000       6.550822       178.2569 
 181   0.0000       6.668278       181.4531 
 182   0.0000       6.702561       182.3859 
 183   0.0000       6.709255       182.5681 
 184   0.0000       6.935625       188.7280 
 185   0.0000       7.149518       194.5483 
 186   0.0000       7.440852       202.4759 
 187   0.0000       7.442395       202.5179 
 188   0.0000       7.706905       209.7156 
 189   0.0000       7.708369       209.7554 
 190   0.0000       8.141009       221.5281 
 191   0.0000       8.369741       227.7522 
 192   0.0000       8.372419       227.8251 
 193   0.0000       8.910041       242.4546 
 194   0.0000       8.919646       242.7159 
 195   0.0000       9.026981       245.6366 
 196   0.0000       9.283529       252.6177 
 197   0.0000       9.285939       252.6832 
 198   0.0000       9.917123       269.8586 
 199   0.0000      10.155525       276.3459 
 200   0.0000      10.158603       276.4296 
 201   0.0000      10.503816       285.8234 
 202   0.0000      10.907190       296.7997 
 203   0.0000      10.911651       296.9211 
 204   0.0000      10.940276       297.7000 
 205   0.0000      10.940668       297.7107 
 206   0.0000      10.978156       298.7308 
 207   0.0000      10.980946       298.8067 
 208   0.0000      11.046200       300.5824 
 209   0.0000      11.046284       300.5847 
 210   0.0000      11.107217       302.2427 
 211   0.0000      11.108566       302.2794 
 212   0.0000      11.188398       304.4518 
 213   0.0000      11.189872       304.4919 
 214   0.0000      11.275358       306.8181 
 215   0.0000      11.275428       306.8200 
 216   0.0000      11.584994       315.2437 
 217   0.0000      11.656323       317.1847 
 218   0.0000      11.884255       323.3870 
 219   0.0000      11.887540       323.4764 
 220   0.0000      11.941877       324.9550 
 221   0.0000      11.941882       324.9551 
 222   0.0000      12.267527       333.8164 
 223   0.0000      12.267565       333.8174 
 224   0.0000      12.575816       342.2054 
 225   0.0000      12.576073       342.2123 
 226   0.0000      12.757888       347.1598 
 227   0.0000      12.759518       347.2041 
 228   0.0000      12.860189       349.9435 
 229   0.0000      13.121954       357.0665 
 230   0.0000      13.124806       357.1441 
 231   0.0000      13.157466       358.0328 
 232   0.0000      13.568100       369.2068 
 233   0.0000      13.568370       369.2141 
 234   0.0000      14.000455       380.9717 
 235   0.0000      14.005672       381.1137 
 236   0.0000      14.159304       385.2942 
 237   0.0000      14.159662       385.3040 
 238   0.0000      14.289980       388.8501 
 239   0.0000      14.290786       388.8721 
 240   0.0000      14.809942       402.9990 
 241   0.0000      14.813595       403.0984 
 242   0.0000      15.127379       411.6369 
 243   0.0000      15.462034       420.7433 
 244   0.0000      15.468313       420.9142 
 245   0.0000      15.905079       432.7992 
 246   0.0000      15.907235       432.8579 
 247   0.0000      15.989420       435.0942 
 248   0.0000      16.395028       446.1314 
 249   0.0000      16.413626       446.6375 
 250   0.0000      16.423577       446.9082 
 251   0.0000      16.687473       454.0892 
 252   0.0000      16.693657       454.2575 
 253   0.0000      16.871475       459.0962 
 254   0.0000      16.871482       459.0964 
 255   0.0000      17.135584       466.2830 
 256   0.0000      17.135750       466.2875 
 257   0.0000      17.887027       486.7307 
 258   0.0000      17.888418       486.7686 
 259   0.0000      18.614004       506.5128 
 260   0.0000      18.616576       506.5828 
 261   0.0000      18.647243       507.4173 
 262   0.0000      18.784903       511.1632 
 263   0.0000      18.791311       511.3376 
 264   0.0000      20.377029       554.4871 
 265   0.0000      22.881735       622.6437 
 266   0.0000      22.884307       622.7137 
 267   0.0000      23.786343       647.2593 
 268   0.0000      24.249937       659.8743 
 269   0.0000      24.259051       660.1223 
 270   0.0000      25.719945       699.8753 
 271   0.0000      26.091066       709.9740 
 272   0.0000      26.105933       710.3785 
 273   0.0000      28.650056       779.6077 
 274   0.0000      31.023646       844.1963 
 275   0.0000      31.774862       864.6379 
 276   0.0000      31.781030       864.8058 
 277   0.0000      34.189455       930.3424 
 278   0.0000      47.497915      1292.4840 
 279   0.0000      47.501438      1292.5798 
 280   0.0000      47.869357      1302.5914 
 281   0.0000      47.878936      1302.8521 
 282   0.0000      49.169535      1337.9711 
 283   0.0000      66.444918      1808.0582 
 284   0.0000      66.446296      1808.0956 
 285   0.0000      67.248279      1829.9187 
 286   0.0000      67.252919      1830.0450 
 287   0.0000      68.951685      1876.2707 
 288   0.0000     105.407123      2868.2736 
 289   0.0000     143.229044      3897.4604 

                 SPIN DOWN ORBITALS
  NO   OCC          E(Eh)            E(eV) 
   0   1.0000     -18.881616      -513.7949 
   1   1.0000     -14.106408      -383.8549 
   2   1.0000      -1.138663       -30.9846 
   3   1.0000      -0.595552       -16.2058 
   4   1.0000      -0.464317       -12.6347 
   5   1.0000      -0.427208       -11.6249 
   6   1.0000      -0.412355       -11.2207 
   7   0.0000      -0.142877        -3.8879 
   8   0.0000      -0.099079        -2.6961 
   9   0.0000      -0.024838        -0.6759 
  10   0.0000       0.003233         0.0880 
  11   0.0000       0.023668         0.6440 
  12   0.0000       0.042468         1.1556 
  13   0.0000       0.056190         1.5290 
  14   0.0000       0.060384         1.6431 
  15   0.0000       0.074090         2.0161 
  16   0.0000       0.091763         2.4970 
  17   0.0000       0.107210         2.9173 
  18   0.0000       0.114491         3.1155 
  19   0.0000       0.138199         3.7606 
  20   0.0000       0.142969         3.8904 
  21   0.0000       0.153268         4.1706 
  22   0.0000       0.173936         4.7330 
  23   0.0000       0.182917         4.9774 
  24   0.0000       0.189731         5.1628 
  25   0.0000       0.192553         5.2396 
  26   0.0000       0.197333         5.3697 
  27   0.0000       0.201542         5.4842 
  28   0.0000       0.208227         5.6662 
  29   0.0000       0.214704         5.8424 
  30   0.0000       0.270527         7.3614 
  31   0.0000       0.295217         8.0333 
  32   0.0000       0.295230         8.0336 
  33   0.0000       0.314491         8.5577 
  34   0.0000       0.315039         8.5727 
  35   0.0000       0.336381         9.1534 
  36   0.0000       0.361859         9.8467 
  37   0.0000       0.362085         9.8528 
  38   0.0000       0.365394         9.9429 
  39   0.0000       0.371942        10.1211 
  40   0.0000       0.373930        10.1751 
  41   0.0000       0.388448        10.5702 
  42   0.0000       0.389096        10.5878 
  43   0.0000       0.389370        10.5953 
  44   0.0000       0.424414        11.5489 
  45   0.0000       0.427113        11.6223 
  46   0.0000       0.430348        11.7104 
  47   0.0000       0.434045        11.8110 
  48   0.0000       0.475700        12.9444 
  49   0.0000       0.486201        13.2302 
  50   0.0000       0.486619        13.2416 
  51   0.0000       0.499278        13.5860 
  52   0.0000       0.500425        13.6173 
  53   0.0000       0.500426        13.6173 
  54   0.0000       0.565641        15.3919 
  55   0.0000       0.574739        15.6394 
  56   0.0000       0.589067        16.0293 
  57   0.0000       0.590963        16.0809 
  58   0.0000       0.599433        16.3114 
  59   0.0000       0.629180        17.1209 
  60   0.0000       0.638565        17.3762 
  61   0.0000       0.638936        17.3863 
  62   0.0000       0.670061        18.2333 
  63   0.0000       0.670067        18.2335 
  64   0.0000       0.683183        18.5904 
  65   0.0000       0.683183        18.5904 
  66   0.0000       0.708557        19.2808 
  67   0.0000       0.717986        19.5374 
  68   0.0000       0.742159        20.1952 
  69   0.0000       0.752074        20.4650 
  70   0.0000       0.752092        20.4655 
  71   0.0000       0.781235        21.2585 
  72   0.0000       0.781442        21.2641 
  73   0.0000       0.789755        21.4903 
  74   0.0000       0.796498        21.6738 
  75   0.0000       0.813284        22.1306 
  76   0.0000       0.813284        22.1306 
  77   0.0000       0.838920        22.8282 
  78   0.0000       0.846924        23.0460 
  79   0.0000       0.848745        23.0955 
  80   0.0000       0.892579        24.2883 
  81   0.0000       0.901694        24.5364 
  82   0.0000       0.904070        24.6010 
  83   0.0000       0.907700        24.6998 
  84   0.0000       0.910307        24.7707 
  85   0.0000       0.910362        24.7722 
  86   0.0000       0.911646        24.8071 
  87   0.0000       0.926304        25.2060 
  88   0.0000       0.926642        25.2152 
  89   0.0000       0.948171        25.8010 
  90   0.0000       0.948172        25.8011 
  91   0.0000       0.953651        25.9502 
  92   0.0000       0.978896        26.6371 
  93   0.0000       0.978904        26.6373 
  94   0.0000       1.004260        27.3273 
  95   0.0000       1.004260        27.3273 
  96   0.0000       1.038497        28.2589 
  97   0.0000       1.038521        28.2596 
  98   0.0000       1.112232        30.2654 
  99   0.0000       1.112232        30.2654 
 100   0.0000       1.150401        31.3040 
 101   0.0000       1.157201        31.4890 
 102   0.0000       1.160446        31.5773 
 103   0.0000       1.183008        32.1913 
 104   0.0000       1.204545        32.7773 
 105   0.0000       1.214611        33.0512 
 106   0.0000       1.277476        34.7619 
 107   0.0000       1.347143        36.6576 
 108   0.0000       1.347197        36.6591 
 109   0.0000       1.457191        39.6522 
 110   0.0000       1.486424        40.4477 
 111   0.0000       1.504224        40.9320 
 112   0.0000       1.566130        42.6166 
 113   0.0000       1.587857        43.2078 
 114   0.0000       1.634161        44.4678 
 115   0.0000       1.670226        45.4492 
 116   0.0000       1.690706        46.0064 
 117   0.0000       1.815152        49.3928 
 118   0.0000       1.844894        50.2021 
 119   0.0000       1.844990        50.2047 
 120   0.0000       1.891232        51.4630 
 121   0.0000       1.891241        51.4633 
 122   0.0000       1.965115        53.4735 
 123   0.0000       1.965522        53.4846 
 124   0.0000       2.086110        56.7659 
 125   0.0000       2.124914        57.8219 
 126   0.0000       2.125533        57.8387 
 127   0.0000       2.143131        58.3176 
 128   0.0000       2.163026        58.8589 
 129   0.0000       2.315050        62.9957 
 130   0.0000       2.379348        64.7453 
 131   0.0000       2.395319        65.1799 
 132   0.0000       2.434545        66.2473 
 133   0.0000       2.434779        66.2537 
 134   0.0000       2.704654        73.5974 
 135   0.0000       2.889260        78.6208 
 136   0.0000       2.908915        79.1556 
 137   0.0000       2.921383        79.4949 
 138   0.0000       2.929136        79.7058 
 139   0.0000       2.948233        80.2255 
 140   0.0000       3.203672        87.1763 
 141   0.0000       3.229462        87.8781 
 142   0.0000       3.236953        88.0820 
 143   0.0000       3.415624        92.9439 
 144   0.0000       3.757372       102.2433 
 145   0.0000       3.794914       103.2649 
 146   0.0000       3.986181       108.4695 
 147   0.0000       4.050923       110.2312 
 148   0.0000       4.051252       110.2402 
 149   0.0000       4.105649       111.7204 
 150   0.0000       4.127535       112.3159 
 151   0.0000       4.254641       115.7747 
 152   0.0000       4.418462       120.2325 
 153   0.0000       4.442277       120.8805 
 154   0.0000       4.442439       120.8849 
 155   0.0000       4.447593       121.0251 
 156   0.0000       4.600076       125.1744 
 157   0.0000       4.600138       125.1761 
 158   0.0000       4.620679       125.7351 
 159   0.0000       4.910884       133.6319 
 160   0.0000       4.910940       133.6335 
 161   0.0000       4.954457       134.8176 
 162   0.0000       4.955115       134.8355 
 163   0.0000       4.955119       134.8357 
 164   0.0000       4.982709       135.5864 
 165   0.0000       5.222167       142.1024 
 166   0.0000       5.222182       142.1028 
 167   0.0000       5.270721       143.4236 
 168   0.0000       5.350081       145.5831 
 169   0.0000       5.352763       145.6561 
 170   0.0000       5.536730       150.6621 
 171   0.0000       5.887534       160.2080 
 172   0.0000       5.887615       160.2102 
 173   0.0000       5.915010       160.9556 
 174   0.0000       5.915013       160.9557 
 175   0.0000       6.091009       165.7448 
 176   0.0000       6.119038       166.5075 
 177   0.0000       6.487025       176.5209 
 178   0.0000       6.487051       176.5216 
 179   0.0000       6.556889       178.4220 
 180   0.0000       6.591170       179.3549 
 181   0.0000       6.691586       182.0873 
 182   0.0000       6.765289       184.0929 
 183   0.0000       6.765664       184.1031 
 184   0.0000       6.951919       189.1713 
 185   0.0000       7.173881       195.2112 
 186   0.0000       7.445385       202.5992 
 187   0.0000       7.476486       203.4455 
 188   0.0000       7.726163       210.2396 
 189   0.0000       7.726269       210.2425 
 190   0.0000       8.153221       221.8604 
 191   0.0000       8.373058       227.8425 
 192   0.0000       8.399500       228.5620 
 193   0.0000       8.932913       243.0769 
 194   0.0000       8.979292       244.3390 
 195   0.0000       9.042209       246.0510 
 196   0.0000       9.318348       253.5651 
 197   0.0000       9.318489       253.5690 
 198   0.0000       9.940163       270.4856 
 199   0.0000      10.162781       276.5433 
 200   0.0000      10.193237       277.3721 
 201   0.0000      10.523308       286.3538 
 202   0.0000      10.915629       297.0294 
 203   0.0000      10.948666       297.9283 
 204   0.0000      10.964289       298.3535 
 205   0.0000      10.964367       298.3556 
 206   0.0000      11.007024       299.5164 
 207   0.0000      11.007535       299.5302 
 208   0.0000      11.081075       301.5314 
 209   0.0000      11.081079       301.5315 
 210   0.0000      11.114985       302.4541 
 211   0.0000      11.150266       303.4142 
 212   0.0000      11.260377       306.4104 
 213   0.0000      11.260567       306.4156 
 214   0.0000      11.337635       308.5127 
 215   0.0000      11.337637       308.5128 
 216   0.0000      11.601613       315.6959 
 217   0.0000      11.670566       317.5723 
 218   0.0000      11.917748       324.2984 
 219   0.0000      11.917960       324.3042 
 220   0.0000      11.969310       325.7015 
 221   0.0000      11.969310       325.7015 
 222   0.0000      12.292963       334.5085 
 223   0.0000      12.292964       334.5086 
 224   0.0000      12.611794       343.1844 
 225   0.0000      12.611829       343.1853 
 226   0.0000      12.781084       347.7910 
 227   0.0000      12.782709       347.8352 
 228   0.0000      12.882312       350.5455 
 229   0.0000      13.126881       357.2006 
 230   0.0000      13.155381       357.9761 
 231   0.0000      13.179509       358.6327 
 232   0.0000      13.593479       369.8974 
 233   0.0000      13.593503       369.8980 
 234   0.0000      14.010001       381.2315 
 235   0.0000      14.043826       382.1519 
 236   0.0000      14.234056       387.3284 
 237   0.0000      14.234099       387.3295 
 238   0.0000      14.340231       390.2175 
 239   0.0000      14.340325       390.2201 
 240   0.0000      14.845627       403.9700 
 241   0.0000      14.847979       404.0341 
 242   0.0000      15.153205       412.3397 
 243   0.0000      15.473363       421.0516 
 244   0.0000      15.512581       422.1188 
 245   0.0000      15.927801       433.4175 
 246   0.0000      15.931450       433.5168 
 247   0.0000      16.016719       435.8371 
 248   0.0000      16.413729       446.6403 
 249   0.0000      16.426921       446.9992 
 250   0.0000      16.463459       447.9935 
 251   0.0000      16.754050       455.9009 
 252   0.0000      16.754631       455.9167 
 253   0.0000      16.909986       460.1441 
 254   0.0000      16.910035       460.1454 
 255   0.0000      17.162969       467.0281 
 256   0.0000      17.162990       467.0287 
 257   0.0000      17.907671       487.2925 
 258   0.0000      17.908051       487.3029 
 259   0.0000      18.620725       506.6957 
 260   0.0000      18.652040       507.5478 
 261   0.0000      18.664544       507.8881 
 262   0.0000      18.794300       511.4189 
 263   0.0000      18.825541       512.2690 
 264   0.0000      20.390463       554.8527 
 265   0.0000      22.922637       623.7567 
 266   0.0000      22.922680       623.7578 
 267   0.0000      23.812414       647.9687 
 268   0.0000      24.261059       660.1770 
 269   0.0000      24.288638       660.9274 
 270   0.0000      25.731473       700.1890 
 271   0.0000      26.121513       710.8025 
 272   0.0000      26.160334       711.8589 
 273   0.0000      28.672146       780.2088 
 274   0.0000      31.038177       844.5917 
 275   0.0000      31.788636       865.0128 
 276   0.0000      31.817254       865.7915 
 277   0.0000      34.200869       930.6530 
 278   0.0000      47.546529      1293.8068 
 279   0.0000      47.546934      1293.8178 
 280   0.0000      47.884996      1303.0170 
 281   0.0000      47.914187      1303.8113 
 282   0.0000      49.189428      1338.5124 
 283   0.0000      66.472413      1808.8063 
 284   0.0000      66.472470      1808.8079 
 285   0.0000      67.254986      1830.1012 
 286   0.0000      67.275514      1830.6598 
 287   0.0000      68.962892      1876.5757 
 288   0.0000     105.422483      2868.6916 
 289   0.0000     143.238680      3897.7226 

                    ********************************
                    * MULLIKEN POPULATION ANALYSIS *
                    ********************************

--------------------------------------------
MULLIKEN ATOMIC CHARGES AND SPIN POPULATIONS
--------------------------------------------
   0 N :    0.067914    0.628953
   1 O :   -0.067914    0.371047
Sum of atomic charges         :   -0.0000000
Sum of atomic spin populations:    1.0000000

-----------------------------------------------------
MULLIKEN REDUCED ORBITAL CHARGES AND SPIN POPULATIONS
-----------------------------------------------------
CHARGE
  0 N s       :     3.880353  s :     3.880353
      pz      :     0.961260  p :     2.953328
      px      :     1.298851
      py      :     0.693217
      dz2     :     0.020188  d :     0.084698
      dxz     :     0.036943
      dyz     :     0.026996
      dx2y2   :     0.000538
      dxy     :     0.000034
      f0      :     0.002206  f :     0.012349
      f+1     :     0.006591
      f-1     :     0.003509
      f+2     :     0.000005
      f-2     :     0.000001
      f+3     :     0.000020
      f-3     :     0.000018
      g0      :     0.000464  g :     0.001235
      g+1     :     0.000272
      g-1     :     0.000493
      g+2     :     0.000003
      g-2     :    -0.000000
      g+3     :     0.000001
      g-3     :     0.000001
      g+4     :     0.000000
      g-4     :    -0.000000
      h0      :     0.000072  h :     0.000123
      h+1     :     0.000017
      h-1     :     0.000032
      h+2     :     0.000000
      h-2     :     0.000000
      h+3     :     0.000000
      h-3     :     0.000000
      h+4     :     0.000000
      h-4     :     0.000000
      h+5     :     0.000000
      h-5     :     0.000000
  1 O s       :     3.865038  s :     3.865038
      pz      :     1.252884  p :     4.119987
      px      :     1.614161
      py      :     1.252942
      dz2     :     0.015082  d :     0.071426
      dxz     :     0.036338
      dyz     :     0.019930
      dx2y2   :     0.000047
      dxy     :     0.000029
      f0      :     0.001979  f :     0.009993
      f+1     :     0.005531
      f-1     :     0.002502
      f+2     :    -0.000041
      f-2     :    -0.000001
      f+3     :     0.000012
      f-3     :     0.000012
      g0      :     0.000449  g :     0.001285
      g+1     :     0.000570
      g-1     :     0.000265
      g+2     :    -0.000002
      g-2     :    -0.000000
      g+3     :     0.000001
      g-3     :     0.000001
      g+4     :     0.000000
      g-4     :     0.000000
      h0      :     0.000057  h :     0.000185
      h+1     :     0.000109
      h-1     :     0.000018
      h+2     :     0.000001
      h-2     :    -0.000000
      h+3     :     0.000000
      h-3     :     0.000000
      h+4     :     0.000000
      h-4     :     0.000000
      h+5     :     0.000000
      h-5     :     0.000000

SPIN
  0 N s       :    -0.047462  s :    -0.047462
      pz      :    -0.007141  p :     0.668645
      px      :     0.661751
      py      :     0.014035
      dz2     :    -0.000132  d :     0.008615
      dxz     :     0.008970
      dyz     :    -0.000228
      dx2y2   :     0.000007
      dxy     :    -0.000001
      f0      :    -0.000664  f :    -0.000244
      f+1     :     0.001158
      f-1     :    -0.000674
      f+2     :    -0.000032
      f-2     :     0.000000
      f+3     :    -0.000014
      f-3     :    -0.000017
      g0      :    -0.000117  g :    -0.000567
      g+1     :    -0.000386
      g-1     :    -0.000065
      g+2     :     0.000001
      g-2     :    -0.000000
      g+3     :     0.000000
      g-3     :     0.000000
      g+4     :     0.000000
      g-4     :     0.000000
      h0      :    -0.000011  h :    -0.000035
      h+1     :    -0.000025
      h-1     :     0.000000
      h+2     :     0.000000
      h-2     :     0.000000
      h+3     :    -0.000000
      h-3     :    -0.000000
      h+4     :     0.000000
      h-4     :     0.000000
      h+5     :     0.000000
      h-5     :     0.000000
  1 O s       :     0.022519  s :     0.022519
      pz      :     0.030120  p :     0.327398
      px      :     0.309466
      py      :    -0.012188
      dz2     :     0.003930  d :     0.018341
      dxz     :     0.015276
      dyz     :    -0.000745
      dx2y2   :    -0.000118
      dxy     :    -0.000002
      f0      :    -0.000028  f :     0.002272
      f+1     :     0.002563
      f-1     :    -0.000178
      f+2     :    -0.000064
      f-2     :    -0.000000
      f+3     :    -0.000011
      f-3     :    -0.000010
      g0      :    -0.000078  g :     0.000415
      g+1     :     0.000436
      g-1     :     0.000065
      g+2     :    -0.000007
      g-2     :     0.000000
      g+3     :    -0.000001
      g-3     :    -0.000000
      g+4     :     0.000000
      g-4     :    -0.000000
      h0      :    -0.000010  h :     0.000102
      h+1     :     0.000105
      h-1     :     0.000009
      h+2     :    -0.000001
      h-2     :     0.000000
      h+3     :    -0.000001
      h-3     :    -0.000000
      h+4     :     0.000000
      h-4     :    -0.000000
      h+5     :     0.000000
      h-5     :     0.000000


                     *******************************
                     * LOEWDIN POPULATION ANALYSIS *
                     *******************************

-------------------------------------------
LOEWDIN ATOMIC CHARGES AND SPIN POPULATIONS
-------------------------------------------
   0 N :   -0.072060    0.587205
   1 O :    0.072060    0.412795

----------------------------------------------------
LOEWDIN REDUCED ORBITAL CHARGES AND SPIN POPULATIONS
----------------------------------------------------
CHARGE
  0 N s       :     3.274538  s :     3.274538
      pz      :     1.274265  p :     3.025476
      px      :     1.084371
      py      :     0.666840
      dz2     :     0.230753  d :     0.511613
      dxz     :     0.184835
      dyz     :     0.095675
      dx2y2   :     0.000322
      dxy     :     0.000028
      f0      :     0.070489  f :     0.201176
      f+1     :     0.083997
      f-1     :     0.046597
      f+2     :     0.000054
      f-2     :     0.000002
      f+3     :     0.000019
      f-3     :     0.000018
      g0      :     0.015058  g :     0.048325
      g+1     :     0.020238
      g-1     :     0.013021
      g+2     :     0.000005
      g-2     :     0.000001
      g+3     :     0.000001
      g-3     :     0.000001
      g+4     :     0.000000
      g-4     :     0.000000
      h0      :     0.003964  h :     0.010933
      h+1     :     0.004122
      h-1     :     0.002846
      h+2     :     0.000001
      h-2     :     0.000000
      h+3     :     0.000000
      h-3     :     0.000000
      h+4     :     0.000000
      h-4     :     0.000000
      h+5     :     0.000000
      h-5     :     0.000000
  1 O s       :     3.351572  s :     3.351572
      pz      :     1.513233  p :     3.988879
      px      :     1.376278
      py      :     1.099368
      dz2     :     0.197435  d :     0.408685
      dxz     :     0.164005
      dyz     :     0.047114
      dx2y2   :     0.000102
      dxy     :     0.000029
      f0      :     0.052638  f :     0.138235
      f+1     :     0.064295
      f-1     :     0.021224
      f+2     :     0.000052
      f-2     :     0.000001
      f+3     :     0.000013
      f-3     :     0.000012
      g0      :     0.012678  g :     0.032151
      g+1     :     0.013790
      g-1     :     0.005669
      g+2     :     0.000011
      g-2     :     0.000000
      g+3     :     0.000001
      g-3     :     0.000001
      g+4     :     0.000000
      g-4     :     0.000000
      h0      :     0.003409  h :     0.008417
      h+1     :     0.003451
      h-1     :     0.001550
      h+2     :     0.000005
      h-2     :     0.000000
      h+3     :     0.000000
      h-3     :     0.000000
      h+4     :     0.000000
      h-4     :     0.000000
      h+5     :     0.000000
      h-5     :     0.000000

SPIN
  0 N s       :     0.004282  s :     0.004282
      pz      :    -0.003517  p :     0.462876
      px      :     0.456298
      py      :     0.010095
      dz2     :     0.001351  d :     0.079510
      dxz     :     0.080486
      dyz     :    -0.002167
      dx2y2   :    -0.000159
      dxy     :    -0.000001
      f0      :     0.000065  f :     0.032532
      f+1     :     0.033577
      f-1     :    -0.001084
      f+2     :     0.000007
      f-2     :    -0.000000
      f+3     :    -0.000016
      f-3     :    -0.000017
      g0      :     0.000027  g :     0.006812
      g+1     :     0.006858
      g-1     :    -0.000075
      g+2     :     0.000001
      g-2     :    -0.000000
      g+3     :     0.000001
      g-3     :     0.000000
      g+4     :     0.000000
      g-4     :    -0.000000
      h0      :    -0.000026  h :     0.001193
      h+1     :     0.001225
      h-1     :    -0.000006
      h+2     :    -0.000000
      h-2     :     0.000000
      h+3     :    -0.000000
      h-3     :    -0.000000
      h+4     :     0.000000
      h-4     :     0.000000
      h+5     :     0.000000
      h-5     :     0.000000
  1 O s       :     0.001349  s :     0.001349
      pz      :    -0.004501  p :     0.230935
      px      :     0.243700
      py      :    -0.008264
      dz2     :     0.001831  d :     0.123230
      dxz     :     0.120747
      dyz     :     0.000720
      dx2y2   :    -0.000067
      dxy     :    -0.000001
      f0      :     0.000332  f :     0.046414
      f+1     :     0.045511
      f-1     :     0.000581
      f+2     :     0.000012
      f-2     :    -0.000000
      f+3     :    -0.000011
      f-3     :    -0.000011
      g0      :    -0.000156  g :     0.008883
      g+1     :     0.008848
      g-1     :     0.000195
      g+2     :    -0.000003
      g-2     :     0.000000
      g+3     :    -0.000000
      g-3     :    -0.000000
      g+4     :     0.000000
      g-4     :    -0.000000
      h0      :    -0.000114  h :     0.001984
      h+1     :     0.002064
      h-1     :     0.000037
      h+2     :    -0.000003
      h-2     :     0.000000
      h+3     :    -0.000000
      h-3     :    -0.000000
      h+4     :     0.000000
      h-4     :    -0.000000
      h+5     :     0.000000
      h-5     :     0.000000


                      *****************************
                      * MAYER POPULATION ANALYSIS *
                      *****************************

  NA   - Mulliken gross atomic population
  ZA   - Total nuclear charge
  QA   - Mulliken gross atomic charge
  VA   - Mayer's total valence
  BVA  - Mayer's bonded valence
  FA   - Mayer's free valence

  ATOM       NA         ZA         QA         VA         BVA        FA
  0 N      6.9321     7.0000     0.0679     2.6451     2.1769     0.4682
  1 O      8.0679     8.0000    -0.0679     2.3027     2.1769     0.1258

  Mayer bond orders larger than 0.1
B(  0-N ,  1-O ) :   2.1769 

-------
TIMINGS
-------

Total SCF time: 0 days 0 hours 5 min 26 sec 

Total time                  ....     326.988 sec
Sum of individual times     ....     326.310 sec  ( 99.8%)

Fock matrix formation       ....     324.229 sec  ( 99.2%)
  XC integration            ....       7.321 sec  (  2.3% of F)
    Basis function eval.    ....       0.485 sec  (  6.6% of XC)
    Density eval.           ....       1.306 sec  ( 17.8% of XC)
    XC-Functional eval.     ....       0.109 sec  (  1.5% of XC)
    XC-Potential eval.      ....       4.873 sec  ( 66.6% of XC)
Diagonalization             ....       0.767 sec  (  0.2%)
Density matrix formation    ....       0.017 sec  (  0.0%)
Population analysis         ....       0.262 sec  (  0.1%)
Initial guess               ....       0.388 sec  (  0.1%)
Orbital Transformation      ....       0.000 sec  (  0.0%)
Orbital Orthonormalization  ....       0.000 sec  (  0.0%)
DIIS solution               ....       0.394 sec  (  0.1%)
Grid generation             ....       0.254 sec  (  0.1%)

-------------------------   --------------------
FINAL SINGLE POINT ENERGY      -129.826190516474
-------------------------   --------------------


                            ***************************************
                            *     ORCA property calculations      *
                            ***************************************

                                    ---------------------
                                    Active property flags
                                    ---------------------
   (+) Dipole Moment


------------------------------------------------------------------------------
                       ORCA ELECTRIC PROPERTIES CALCULATION
------------------------------------------------------------------------------

Dipole Moment Calculation                       ... on
Quadrupole Moment Calculation                   ... off
Polarizability Calculation                      ... off
GBWName                                         ... no_pbe_+001_x.gbw
Electron density file                           ... no_pbe_+001_x.scfp.tmp
The origin for moment calculation is the CENTER OF MASS  = ( 0.000000,  0.000000  1.162557)

-------------
DIPOLE MOMENT
-------------
                                X             Y             Z
Electronic contribution:      0.11449      -0.00000       0.08812
Nuclear contribution   :      0.00000       0.00000       0.00458
                        -----------------------------------------
Total Dipole Moment    :      0.11449      -0.00000       0.09270
                        -----------------------------------------
Magnitude (a.u.)       :      0.14731
Magnitude (Debye)      :      0.37443



--------------------
Rotational spectrum 
--------------------
 
Rotational constants in cm-1:     0.000000     1.695532     1.695532 
Rotational constants in MHz :     0.000000 50830.768128 50830.768128 

 Dipole components along the rotational axes: 
x,y,z [a.u.] :     0.092697    -0.000000     0.114488 
x,y,z [Debye]:     0.235617    -0.000000     0.291004 

 

Timings for individual modules:

Sum of individual times         ...      328.617 sec (=   5.477 min)
GTO integral calculation        ...        1.312 sec (=   0.022 min)   0.4 %
SCF iterations                  ...      327.305 sec (=   5.455 min)  99.6 %
                             ****ORCA TERMINATED NORMALLY****
TOTAL RUN TIME: 0 days 0 hours 5 minutes 29 seconds 514 msec
