
                                 *****************
                                 * O   R   C   A *
                                 *****************

           --- An Ab Initio, DFT and Semiempirical electronic structure package ---

                  #######################################################
                  #                        -***-                        #
                  #          Department of theory and spectroscopy      #
                  #               Directorship: Frank Neese             #
                  #        Max Planck Institute fuer Kohlenforschung    #
                  #                Kaiser Wilhelm Platz 1               #
                  #                 D-45470 Muelheim/Ruhr               #
                  #                      Germany                        #
                  #                                                     #
                  #                  All rights reserved                #
                  #                        -***-                        #
                  #######################################################


                         Program Version 4.1.1  - RELEASE  -


 With contributions from (in alphabetic order):
   Daniel Aravena         : Magnetic Properties
   Michael Atanasov       : Ab Initio Ligand Field Theory
   Alexander A. Auer      : GIAO ZORA
   Ute Becker             : Parallelization
   Giovanni Bistoni       : ED, Open-shell LED
   Martin Brehm           : Molecular dynamics
   Dmytro Bykov           : SCF Hessian
   Vijay G. Chilkuri      : MRCI spin determinant printing
   Dipayan Datta          : RHF DLPNO-CCSD density
   Achintya Kumar Dutta   : EOM-CC, STEOM-CC
   Dmitry Ganyushin       : Spin-Orbit,Spin-Spin,Magnetic field MRCI
   Miquel Garcia          : C-PCM Hessian
   Yang Guo               : DLPNO-NEVPT2, CIM, IAO-localization
   Andreas Hansen         : Spin unrestricted coupled pair/coupled cluster methods
   Benjamin Helmich-Paris : CASSCF linear response (MC-RPA)
   Lee Huntington         : MR-EOM, pCC
   Robert Izsak           : Overlap fitted RIJCOSX, COSX-SCS-MP3, EOM
   Christian Kollmar      : KDIIS, OOCD, Brueckner-CCSD(T), CCSD density
   Simone Kossmann        : Meta GGA functionals, TD-DFT gradient, OOMP2, MP2 Hessian
   Martin Krupicka        : AUTO-CI
   Lucas Lang             : DCDCAS
   Dagmar Lenk            : GEPOL surface, SMD
   Dimitrios Liakos       : Extrapolation schemes; parallel MDCI
   Dimitrios Manganas     : ROCIS; embedding schemes
   Dimitrios Pantazis     : SARC Basis sets
   Taras Petrenko         : DFT Hessian,TD-DFT gradient, ASA, ECA, R-Raman, ABS, FL, XAS/XES, NRVS
   Peter Pinski           : DLPNO-MP2, DLPNO-MP2 Gradient
   Christoph Reimann      : Effective Core Potentials
   Marius Retegan         : Local ZFS, SOC
   Christoph Riplinger    : Optimizer, TS searches, QM/MM, DLPNO-CCSD(T), (RO)-DLPNO pert. Triples
   Tobias Risthaus        : Range-separated hybrids, TD-DFT gradient, RPA, STAB
   Michael Roemelt        : Restricted open shell CIS
   Masaaki Saitow         : Open-shell DLPNO
   Barbara Sandhoefer     : DKH picture change effects
   Avijit Sen             : IP-ROCIS
   Kantharuban Sivalingam : CASSCF convergence, NEVPT2, FIC-MRCI
   Bernardo de Souza      : ESD, SOC TD-DFT
   Georgi Stoychev        : AutoAux, RI-MP2 NMR
   Willem Van den Heuvel  : Paramagnetic NMR
   Boris Wezisla          : Elementary symmetry handling
   Frank Wennmohs         : Technical directorship


 We gratefully acknowledge several colleagues who have allowed us to
 interface, adapt or use parts of their codes:
   Stefan Grimme, W. Hujo, H. Kruse,             : VdW corrections, initial TS optimization,
                  C. Bannwarth                     DFT functionals, gCP, sTDA/sTD-DF
   Ed Valeev                                     : LibInt (2-el integral package), F12 methods
   Garnet Chan, S. Sharma, J. Yang, R. Olivares  : DMRG
   Ulf Ekstrom                                   : XCFun DFT Library
   Mihaly Kallay                                 : mrcc  (arbitrary order and MRCC methods)
   Andreas Klamt, Michael Diedenhofen            : otool_cosmo (COSMO solvation model)
   Jiri Pittner, Ondrej Demel                    : Mk-CCSD
   Frank Weinhold                                : gennbo (NPA and NBO analysis)
   Christopher J. Cramer and Donald G. Truhlar   : smd solvation model
   Lars Goerigk                                  : TD-DFT with DH, B97 family of functionals
   V. Asgeirsson, H. Jonsson                     : NEB implementation
   FAccTs GmbH                                   : IRC, NEB, NEB-TS, Multilevel


 Your calculation uses the libint2 library for the computation of 2-el integrals
 For citations please refer to: http://libint.valeyev.net

 This ORCA versions uses:
   CBLAS   interface :  Fast vector & matrix operations
   LAPACKE interface :  Fast linear algebra routines
   SCALAPACK package :  Parallel linear algebra routines


----- Orbital basis set information -----
Your calculation utilizes the basis: aug-pc-4
   H, C-F              : F. Jensen, J. Chem. Phys. 115, 9113 (2001).
                         F. Jensen, J. Chem. Phys. 116, 7372 (2002).
                         F. Jensen, J. Chem. Phys. 117, 9234 (2002).
   Si-Cl               : F. Jensen, T. Helgaker, J. Chem. Phys. 121, 3463 (2004).
   He-B, Ne-Mg, Al, Ar : F. Jensen, J. Phys. Chem. A 111, 11198 (2007).
   K, Ca, Ga-Kr        : F. Jensen, J. Chem. Phys. 136, 094110 (2012).
   Sc-Zn               : F. Jensen, J. Chem. Phys. 138, 014107 (2013).

================================================================================
                                        WARNINGS
                       Please study these warnings very carefully!
================================================================================


INFO   : the flag for use of LIBINT has been found!

================================================================================
                                       INPUT FILE
================================================================================
NAME = no_pbe_+001_z.inp
|  1> ! uks pbe nori aug-pc-4 grid5 nofinalgrid verytightscf
|  2> 
|  3> %maxcore 1500
|  4> 
|  5> %pal nprocs 4 end
|  6> %scf
|  7>     efield 0.0, 0.0, 0.01
|  8>     maxiter 300
|  9> end
| 10> * xyz 0 2
| 11> N      0.0000  0.0000  0.0000
| 12> O      0.0000  0.0000  1.1538
| 13> *
| 14> 
| 15>                          ****END OF INPUT****
================================================================================

                       ****************************
                       * Single Point Calculation *
                       ****************************

---------------------------------
CARTESIAN COORDINATES (ANGSTROEM)
---------------------------------
  N      0.000000    0.000000    0.000000
  O      0.000000    0.000000    1.153800

----------------------------
CARTESIAN COORDINATES (A.U.)
----------------------------
  NO LB      ZA    FRAG     MASS         X           Y           Z
   0 N     7.0000    0    14.007    0.000000    0.000000    0.000000
   1 O     8.0000    0    15.999    0.000000    0.000000    2.180366

--------------------------------
INTERNAL COORDINATES (ANGSTROEM)
--------------------------------
 N      0   0   0     0.000000000000     0.00000000     0.00000000
 O      1   0   0     1.153800000000     0.00000000     0.00000000

---------------------------
INTERNAL COORDINATES (A.U.)
---------------------------
 N      0   0   0     0.000000000000     0.00000000     0.00000000
 O      1   0   0     2.180366013318     0.00000000     0.00000000

---------------------
BASIS SET INFORMATION
---------------------
There are 2 groups of distinct atoms

 Group   1 Type N   : 27s12p7d4f3g2h contracted to 9s8p7d4f3g2h pattern {1191111111/51111111/1111111/1111/111/11}
 Group   2 Type O   : 27s12p7d4f3g2h contracted to 9s8p7d4f3g2h pattern {1191111111/51111111/1111111/1111/111/11}

Atom   0N    basis set group =>   1
Atom   1O    basis set group =>   2


           ************************************************************
           *        Program running with 4 parallel MPI-processes     *
           *              working on a common directory               *
           ************************************************************
------------------------------------------------------------------------------
                           ORCA GTO INTEGRAL CALCULATION
------------------------------------------------------------------------------

                         BASIS SET STATISTICS AND STARTUP INFO

 # of primitive gaussian shells          ...  110
 # of primitive gaussian functions       ...  350
 # of contracted shells                  ...   66
 # of contracted basis functions         ...  290
 Highest angular momentum                ...    5
 Maximum contraction depth               ...   11
 Integral package used                   ... LIBINT
 Integral threshhold            Thresh   ...  1.000e-12
 Primitive cut-off              TCut     ...  1.000e-14


------------------------------ INTEGRAL EVALUATION ----------------------------


 * One electron integrals 
 Pre-screening matrix                    ... done
 Shell pair data                         ... done (   0.001 sec)


An Electric Field will be added: 0.000e+00 0.000e+00 1.000e-02 au

  ... done adding electric field perturbation



           ************************************************************
           *        Program running with 4 parallel MPI-processes     *
           *              working on a common directory               *
           ************************************************************
-------------------------------------------------------------------------------
                                 ORCA SCF
-------------------------------------------------------------------------------

------------
SCF SETTINGS
------------
Hamiltonian:
 Density Functional     Method          .... DFT(GTOs)
 Exchange Functional    Exchange        .... PBE
   PBE kappa parameter   XKappa         ....  0.804000
   PBE mue parameter    XMuePBE         ....  0.219520
 Correlation Functional Correlation     .... PBE
   PBE beta parameter  CBetaPBE         ....  0.066725
 LDA part of GGA corr.  LDAOpt          .... PW91-LDA
 Gradients option       PostSCFGGA      .... off
   Density functional embedding theory  .... OFF
   NL short-range parameter             ....  6.400000


General Settings:
 Integral files         IntName         .... no_pbe_+001_z
 Hartree-Fock type      HFTyp           .... UHF
 Total Charge           Charge          ....    0
 Multiplicity           Mult            ....    2
 Number of Electrons    NEL             ....   15
 Basis Dimension        Dim             ....  290
 Nuclear Repulsion      ENuc            ....     25.6837611933 Eh

Convergence Acceleration:
 DIIS                   CNVDIIS         .... on
   Start iteration      DIISMaxIt       ....    12
   Startup error        DIISStart       ....  0.200000
   # of expansion vecs  DIISMaxEq       ....     5
   Bias factor          DIISBfac        ....   1.050
   Max. coefficient     DIISMaxC        ....  10.000
 Newton-Raphson         CNVNR           .... off
 SOSCF                  CNVSOSCF        .... off
 Level Shifting         CNVShift        .... on
   Level shift para.    LevelShift      ....    0.2500
   Turn off err/grad.   ShiftErr        ....    0.0010
 Zerner damping         CNVZerner       .... off
 Static damping         CNVDamp         .... on
   Fraction old density DampFac         ....    0.7000
   Max. Damping (<1)    DampMax         ....    0.9800
   Min. Damping (>=0)   DampMin         ....    0.0000
   Turn off err/grad.   DampErr         ....    0.1000
 Fernandez-Rico         CNVRico         .... off

SCF Procedure:
 Maximum # iterations   MaxIter         ....   300
 SCF integral mode      SCFMode         .... Direct
   Integral package                     .... LIBINT
 Reset frequency        DirectResetFreq ....    20
 Integral Threshold     Thresh          ....  1.000e-12 Eh
 Primitive CutOff       TCut            ....  1.000e-14 Eh

Convergence Tolerance:
 Convergence Check Mode ConvCheckMode   .... Total+1el-Energy
 Convergence forced     ConvForced      .... 0
 Energy Change          TolE            ....  1.000e-09 Eh
 1-El. energy change                    ....  1.000e-06 Eh
 DIIS Error             TolErr          ....  1.000e-08


Diagonalization of the overlap matrix:
Smallest eigenvalue                        ... 2.019e-06
Time for diagonalization                   ...    0.016 sec
Threshold for overlap eigenvalues          ... 1.000e-08
Number of eigenvalues below threshold      ... 0
Time for construction of square roots      ...    0.013 sec
Total time needed                          ...    0.029 sec

-------------------
DFT GRID GENERATION
-------------------

General Integration Accuracy     IntAcc      ...  5.010
Radial Grid Type                 RadialGrid  ... Gauss-Chebyshev
Angular Grid (max. acc.)         AngularGrid ... Lebedev-434
Angular grid pruning method      GridPruning ... 3 (G Style)
Weight generation scheme         WeightScheme... Becke
Basis function cutoff            BFCut       ...    1.0000e-12
Integration weight cutoff        WCut        ...    1.0000e-14
Grids for H and He will be reduced by one unit

# of grid points (after initial pruning)     ...  21432 (   0.0 sec)
# of grid points (after weights+screening)   ...  21342 (   0.0 sec)
nearest neighbour list constructed           ...    0.0 sec
Grid point re-assignment to atoms done       ...    0.0 sec
Grid point division into batches done        ...    0.2 sec
Reduced shell lists constructed in    0.2 sec

Total number of grid points                  ...    21342
Total number of batches                      ...      334
Average number of points per batch           ...       63
Average number of grid points per atom       ...    10671
Average number of shells per batch           ...    40.49 (61.35%)
Average number of basis functions per batch  ...   187.39 (64.62%)
Average number of large shells per batch     ...    34.79 (85.91%)
Average number of large basis fcns per batch ...   162.46 (86.70%)
Maximum spatial batch extension              ...  16.29, 16.29, 13.64 au
Average spatial batch extension              ...   1.36,  1.35,  1.17 au

Time for grid setup =    0.253 sec

------------------------------
INITIAL GUESS: MODEL POTENTIAL
------------------------------
Loading Hartree-Fock densities                     ... done
Calculating cut-offs                               ... done
Setting up the integral package                    ... done
Initializing the effective Hamiltonian             ... done
Starting the Coulomb interaction                   ... done (   0.0 sec)
Reading the grid                                   ... done
Mapping shells                                     ... done
Starting the XC term evaluation                    ... done (   0.2 sec)
  promolecular density results
     # of electrons  =     15.000002805
     EX              =    -14.595347118
     EC              =     -0.490731592
     EX+EC           =    -15.086078709
Transforming the Hamiltonian                       ... done (   0.0 sec)
Diagonalizing the Hamiltonian                      ... done (   0.0 sec)
Back transforming the eigenvectors                 ... done (   0.0 sec)
Now organizing SCF variables                       ... done
                      ------------------
                      INITIAL GUESS DONE (   0.7 sec)
                      ------------------
--------------
SCF ITERATIONS
--------------
ITER       Energy         Delta-E        Max-DP      RMS-DP      [F,P]     Damp
               ***  Starting incremental Fock matrix formation  ***
  0   -129.8212286745   0.000000000000 0.00665440  0.00004763  0.0391025 0.7000
  1   -129.8234639636  -0.002235289117 0.00395205  0.00003704  0.0249779 0.7000
                               ***Turning on DIIS***
  2   -129.8247274137  -0.001263450106 0.00665282  0.00008337  0.0151692 0.0000
  3   -129.8270830504  -0.002355636687 0.00194880  0.00002316  0.0101418 0.0000
  4   -129.8273189476  -0.000235897216 0.00082450  0.00000685  0.0022178 0.0000
  5   -129.8273309494  -0.000012001721 0.00029762  0.00000337  0.0020677 0.0000
  6   -129.8273359554  -0.000005006012 0.00040482  0.00000431  0.0004764 0.0000
  7   -129.8273374161  -0.000001460765 0.00007051  0.00000094  0.0002354 0.0000
  8   -129.8273376246  -0.000000208466 0.00001740  0.00000027  0.0000254 0.0000
  9   -129.8273376525  -0.000000027859 0.00000986  0.00000011  0.0000119 0.0000
 10   -129.8273376585  -0.000000006036 0.00000519  0.00000006  0.0000039 0.0000
 11   -129.8273376596  -0.000000001140 0.00000050  0.00000000  0.0000044 0.0000
                 **** Energy Check signals convergence ****

               *****************************************************
               *                     SUCCESS                       *
               *           SCF CONVERGED AFTER  12 CYCLES          *
               *****************************************************


----------------
TOTAL SCF ENERGY
----------------

Total Energy       :         -129.82733766 Eh           -3532.78146 eV

Components:
Nuclear Repulsion  :           25.68376119 Eh             698.89067 eV
Electronic Energy  :         -155.51109885 Eh           -4231.67213 eV
One Electron Energy:         -227.74396161 Eh           -6197.22826 eV
Two Electron Energy:           72.23286275 Eh            1965.55612 eV

Virial components:
Potential Energy   :         -259.23973248 Eh           -7054.27175 eV
Kinetic Energy     :          129.41239482 Eh            3521.49029 eV
Virial Ratio       :            2.00320636


DFT components:
N(Alpha)           :        8.000000351088 electrons
N(Beta)            :        7.000000370367 electrons
N(Total)           :       15.000000721455 electrons
E(X)               :      -14.724628973491 Eh       
E(C)               :       -0.489533866300 Eh       
E(XC)              :      -15.214162839791 Eh       
DFET-embed. en.    :        0.000000000000 Eh       

---------------
SCF CONVERGENCE
---------------

  Last Energy change         ...   -4.5645e-11  Tolerance :   1.0000e-09
  Last MAX-Density change    ...    1.3304e-06  Tolerance :   1.0000e-08
  Last RMS-Density change    ...    1.5031e-08  Tolerance :   1.0000e-09
  Last DIIS Error            ...    7.3339e-07  Tolerance :   1.0000e-08

             **** THE GBW FILE WAS UPDATED (no_pbe_+001_z.gbw) ****
             **** DENSITY FILE WAS UPDATED (no_pbe_+001_z.scfp.tmp) ****
             **** ENERGY FILE WAS UPDATED (no_pbe_+001_z.en.tmp) ****
----------------------
UHF SPIN CONTAMINATION
----------------------

Warning: in a DFT calculation there is little theoretical justification to 
         calculate <S**2> as in Hartree-Fock theory. We will do it anyways
         but you should keep in mind that the values have only limited relevance

Expectation value of <S**2>     :     0.751963
Ideal value S*(S+1) for S=0.5   :     0.750000
Deviation                       :     0.001963

----------------
ORBITAL ENERGIES
----------------
                 SPIN UP ORBITALS
  NO   OCC          E(Eh)            E(eV) 
   0   1.0000     -18.893590      -514.1207 
   1   1.0000     -14.122989      -384.3061 
   2   1.0000      -1.156974       -31.4829 
   3   1.0000      -0.623234       -16.9590 
   4   1.0000      -0.476742       -12.9728 
   5   1.0000      -0.474830       -12.9208 
   6   1.0000      -0.438142       -11.9225 
   7   1.0000      -0.171480        -4.6662 
   8   0.0000      -0.161227        -4.3872 
   9   0.0000      -0.049042        -1.3345 
  10   0.0000      -0.011691        -0.3181 
  11   0.0000      -0.007242        -0.1971 
  12   0.0000       0.006219         0.1692 
  13   0.0000       0.053912         1.4670 
  14   0.0000       0.063102         1.7171 
  15   0.0000       0.065187         1.7738 
  16   0.0000       0.091442         2.4883 
  17   0.0000       0.098898         2.6912 
  18   0.0000       0.103619         2.8196 
  19   0.0000       0.112402         3.0586 
  20   0.0000       0.114060         3.1037 
  21   0.0000       0.117681         3.2023 
  22   0.0000       0.181747         4.9456 
  23   0.0000       0.188750         5.1361 
  24   0.0000       0.193029         5.2526 
  25   0.0000       0.197846         5.3837 
  26   0.0000       0.198343         5.3972 
  27   0.0000       0.200242         5.4489 
  28   0.0000       0.202262         5.5038 
  29   0.0000       0.203207         5.5295 
  30   0.0000       0.244471         6.6524 
  31   0.0000       0.269854         7.3431 
  32   0.0000       0.270338         7.3563 
  33   0.0000       0.291888         7.9427 
  34   0.0000       0.297404         8.0928 
  35   0.0000       0.326499         8.8845 
  36   0.0000       0.346440         9.4271 
  37   0.0000       0.360103         9.7989 
  38   0.0000       0.361241         9.8299 
  39   0.0000       0.368848        10.0369 
  40   0.0000       0.370449        10.0804 
  41   0.0000       0.374424        10.1886 
  42   0.0000       0.395445        10.7606 
  43   0.0000       0.396114        10.7788 
  44   0.0000       0.396287        10.7835 
  45   0.0000       0.397037        10.8039 
  46   0.0000       0.425667        11.5830 
  47   0.0000       0.428702        11.6656 
  48   0.0000       0.472377        12.8540 
  49   0.0000       0.476081        12.9548 
  50   0.0000       0.476211        12.9584 
  51   0.0000       0.485339        13.2067 
  52   0.0000       0.486085        13.2270 
  53   0.0000       0.508110        13.8264 
  54   0.0000       0.564581        15.3630 
  55   0.0000       0.565115        15.3776 
  56   0.0000       0.570672        15.5288 
  57   0.0000       0.574035        15.6203 
  58   0.0000       0.581044        15.8110 
  59   0.0000       0.607433        16.5291 
  60   0.0000       0.619871        16.8676 
  61   0.0000       0.621334        16.9074 
  62   0.0000       0.647789        17.6272 
  63   0.0000       0.648160        17.6373 
  64   0.0000       0.681156        18.5352 
  65   0.0000       0.688076        18.7235 
  66   0.0000       0.691275        18.8105 
  67   0.0000       0.691311        18.8115 
  68   0.0000       0.735001        20.0004 
  69   0.0000       0.735226        20.0065 
  70   0.0000       0.747637        20.3442 
  71   0.0000       0.787067        21.4172 
  72   0.0000       0.787795        21.4370 
  73   0.0000       0.793150        21.5827 
  74   0.0000       0.793183        21.5836 
  75   0.0000       0.799998        21.7691 
  76   0.0000       0.802749        21.8439 
  77   0.0000       0.823924        22.4201 
  78   0.0000       0.839296        22.8384 
  79   0.0000       0.841043        22.8859 
  80   0.0000       0.877981        23.8911 
  81   0.0000       0.878662        23.9096 
  82   0.0000       0.880430        23.9577 
  83   0.0000       0.886419        24.1207 
  84   0.0000       0.889623        24.2079 
  85   0.0000       0.902038        24.5457 
  86   0.0000       0.902253        24.5516 
  87   0.0000       0.916812        24.9477 
  88   0.0000       0.917887        24.9770 
  89   0.0000       0.921367        25.0717 
  90   0.0000       0.921504        25.0754 
  91   0.0000       0.941640        25.6233 
  92   0.0000       0.988752        26.9053 
  93   0.0000       0.988881        26.9088 
  94   0.0000       1.005133        27.3511 
  95   0.0000       1.005155        27.3517 
  96   0.0000       1.038045        28.2466 
  97   0.0000       1.038863        28.2689 
  98   0.0000       1.102764        30.0077 
  99   0.0000       1.102825        30.0094 
 100   0.0000       1.145656        31.1749 
 101   0.0000       1.146329        31.1932 
 102   0.0000       1.163345        31.6562 
 103   0.0000       1.180547        32.1243 
 104   0.0000       1.202847        32.7311 
 105   0.0000       1.204418        32.7739 
 106   0.0000       1.274661        34.6853 
 107   0.0000       1.327834        36.1322 
 108   0.0000       1.329528        36.1783 
 109   0.0000       1.445430        39.3322 
 110   0.0000       1.473649        40.1000 
 111   0.0000       1.477641        40.2086 
 112   0.0000       1.553103        42.2621 
 113   0.0000       1.555858        42.3370 
 114   0.0000       1.623427        44.1757 
 115   0.0000       1.671803        45.4921 
 116   0.0000       1.674353        45.5615 
 117   0.0000       1.807846        49.1940 
 118   0.0000       1.829803        49.7915 
 119   0.0000       1.831316        49.8327 
 120   0.0000       1.868033        50.8318 
 121   0.0000       1.868279        50.8385 
 122   0.0000       1.948093        53.0103 
 123   0.0000       1.949353        53.0446 
 124   0.0000       2.069955        56.3263 
 125   0.0000       2.111829        57.4658 
 126   0.0000       2.112032        57.4713 
 127   0.0000       2.131896        58.0118 
 128   0.0000       2.133616        58.0586 
 129   0.0000       2.313357        62.9496 
 130   0.0000       2.375486        64.6403 
 131   0.0000       2.376342        64.6636 
 132   0.0000       2.423670        65.9514 
 133   0.0000       2.424596        65.9766 
 134   0.0000       2.682876        73.0048 
 135   0.0000       2.884931        78.5030 
 136   0.0000       2.886210        78.5378 
 137   0.0000       2.886675        78.5504 
 138   0.0000       2.888227        78.5927 
 139   0.0000       2.928698        79.6939 
 140   0.0000       3.193133        86.8896 
 141   0.0000       3.195595        86.9566 
 142   0.0000       3.214175        87.4621 
 143   0.0000       3.403983        92.6271 
 144   0.0000       3.733863       101.6036 
 145   0.0000       3.740736       101.7906 
 146   0.0000       3.966746       107.9406 
 147   0.0000       4.032234       109.7227 
 148   0.0000       4.033855       109.7668 
 149   0.0000       4.104842       111.6984 
 150   0.0000       4.107067       111.7590 
 151   0.0000       4.250053       115.6498 
 152   0.0000       4.411357       120.0391 
 153   0.0000       4.412105       120.0595 
 154   0.0000       4.417442       120.2047 
 155   0.0000       4.419290       120.2550 
 156   0.0000       4.559005       124.0568 
 157   0.0000       4.559490       124.0700 
 158   0.0000       4.606127       125.3391 
 159   0.0000       4.878096       132.7397 
 160   0.0000       4.878463       132.7497 
 161   0.0000       4.906971       133.5255 
 162   0.0000       4.907084       133.5285 
 163   0.0000       4.947926       134.6399 
 164   0.0000       4.947975       134.6412 
 165   0.0000       5.200687       141.5179 
 166   0.0000       5.200830       141.5218 
 167   0.0000       5.254793       142.9902 
 168   0.0000       5.322914       144.8439 
 169   0.0000       5.324843       144.8963 
 170   0.0000       5.522717       150.2808 
 171   0.0000       5.866785       159.6433 
 172   0.0000       5.868347       159.6858 
 173   0.0000       5.895900       160.4356 
 174   0.0000       5.895921       160.4362 
 175   0.0000       6.084306       165.5624 
 176   0.0000       6.084677       165.5725 
 177   0.0000       6.467935       176.0014 
 178   0.0000       6.468069       176.0051 
 179   0.0000       6.543316       178.0527 
 180   0.0000       6.547634       178.1702 
 181   0.0000       6.662723       181.3019 
 182   0.0000       6.698554       182.2769 
 183   0.0000       6.704934       182.4505 
 184   0.0000       6.932102       188.6321 
 185   0.0000       7.146014       194.4529 
 186   0.0000       7.438445       202.4104 
 187   0.0000       7.439839       202.4483 
 188   0.0000       7.706647       209.7085 
 189   0.0000       7.708096       209.7480 
 190   0.0000       8.139136       221.4772 
 191   0.0000       8.369334       227.7412 
 192   0.0000       8.371897       227.8109 
 193   0.0000       8.906122       242.3479 
 194   0.0000       8.915297       242.5976 
 195   0.0000       9.026883       245.6340 
 196   0.0000       9.282864       252.5996 
 197   0.0000       9.285400       252.6686 
 198   0.0000       9.912512       269.7332 
 199   0.0000      10.155331       276.3406 
 200   0.0000      10.158622       276.4302 
 201   0.0000      10.506111       285.8858 
 202   0.0000      10.904400       296.7238 
 203   0.0000      10.908660       296.8397 
 204   0.0000      10.937892       297.6352 
 205   0.0000      10.938261       297.6452 
 206   0.0000      10.974957       298.6438 
 207   0.0000      10.977632       298.7166 
 208   0.0000      11.042775       300.4892 
 209   0.0000      11.042853       300.4913 
 210   0.0000      11.105612       302.1991 
 211   0.0000      11.107309       302.2452 
 212   0.0000      11.184757       304.3527 
 213   0.0000      11.186133       304.3902 
 214   0.0000      11.271090       306.7019 
 215   0.0000      11.271152       306.7036 
 216   0.0000      11.582669       315.1804 
 217   0.0000      11.653601       317.1106 
 218   0.0000      11.882006       323.3258 
 219   0.0000      11.885167       323.4118 
 220   0.0000      11.941965       324.9574 
 221   0.0000      11.941970       324.9575 
 222   0.0000      12.266887       333.7990 
 223   0.0000      12.266922       333.7999 
 224   0.0000      12.574668       342.1741 
 225   0.0000      12.574947       342.1817 
 226   0.0000      12.757190       347.1408 
 227   0.0000      12.758881       347.1868 
 228   0.0000      12.858754       349.9045 
 229   0.0000      13.120475       357.0263 
 230   0.0000      13.123321       357.1037 
 231   0.0000      13.155376       357.9760 
 232   0.0000      13.566646       369.1672 
 233   0.0000      13.566907       369.1743 
 234   0.0000      13.998329       380.9139 
 235   0.0000      14.003582       381.0569 
 236   0.0000      14.155764       385.1979 
 237   0.0000      14.156091       385.2068 
 238   0.0000      14.285594       388.7308 
 239   0.0000      14.286348       388.7513 
 240   0.0000      14.804499       402.8509 
 241   0.0000      14.808014       402.9465 
 242   0.0000      15.122169       411.4951 
 243   0.0000      15.456588       420.5951 
 244   0.0000      15.462620       420.7593 
 245   0.0000      15.903053       432.7441 
 246   0.0000      15.905168       432.8016 
 247   0.0000      15.987608       435.0449 
 248   0.0000      16.392487       446.0622 
 249   0.0000      16.410796       446.5605 
 250   0.0000      16.420308       446.8193 
 251   0.0000      16.684556       454.0098 
 252   0.0000      16.690430       454.1697 
 253   0.0000      16.870007       459.0562 
 254   0.0000      16.870010       459.0563 
 255   0.0000      17.134808       466.2618 
 256   0.0000      17.134985       466.2666 
 257   0.0000      17.886979       486.7294 
 258   0.0000      17.888430       486.7689 
 259   0.0000      18.612392       506.4689 
 260   0.0000      18.615106       506.5428 
 261   0.0000      18.646660       507.4014 
 262   0.0000      18.783824       511.1338 
 263   0.0000      18.790069       511.3038 
 264   0.0000      20.374430       554.4164 
 265   0.0000      22.879302       622.5775 
 266   0.0000      22.882020       622.6514 
 267   0.0000      23.782803       647.1630 
 268   0.0000      24.247611       659.8110 
 269   0.0000      24.257173       660.0712 
 270   0.0000      25.717525       699.8094 
 271   0.0000      26.088262       709.8977 
 272   0.0000      26.102664       710.2896 
 273   0.0000      28.647892       779.5488 
 274   0.0000      31.021862       844.1478 
 275   0.0000      31.772215       864.5659 
 276   0.0000      31.778767       864.7442 
 277   0.0000      34.187178       930.2804 
 278   0.0000      47.495405      1292.4157 
 279   0.0000      47.498759      1292.5069 
 280   0.0000      47.866552      1302.5151 
 281   0.0000      47.875788      1302.7664 
 282   0.0000      49.166468      1337.8876 
 283   0.0000      66.441623      1807.9685 
 284   0.0000      66.443075      1808.0080 
 285   0.0000      67.245247      1829.8362 
 286   0.0000      67.250164      1829.9700 
 287   0.0000      68.948927      1876.1957 
 288   0.0000     105.403845      2868.1844 
 289   0.0000     143.226522      3897.3918 

                 SPIN DOWN ORBITALS
  NO   OCC          E(Eh)            E(eV) 
   0   1.0000     -18.884269      -513.8671 
   1   1.0000     -14.109774      -383.9465 
   2   1.0000      -1.140281       -31.0286 
   3   1.0000      -0.595461       -16.2033 
   4   1.0000      -0.465696       -12.6722 
   5   1.0000      -0.427823       -11.6417 
   6   1.0000      -0.418978       -11.4010 
   7   0.0000      -0.147086        -4.0024 
   8   0.0000      -0.103906        -2.8274 
   9   0.0000      -0.042724        -1.1626 
  10   0.0000      -0.002872        -0.0781 
  11   0.0000      -0.001016        -0.0277 
  12   0.0000       0.012641         0.3440 
  13   0.0000       0.060059         1.6343 
  14   0.0000       0.067554         1.8382 
  15   0.0000       0.070704         1.9240 
  16   0.0000       0.096856         2.6356 
  17   0.0000       0.108055         2.9403 
  18   0.0000       0.112200         3.0531 
  19   0.0000       0.120947         3.2911 
  20   0.0000       0.123549         3.3619 
  21   0.0000       0.125019         3.4019 
  22   0.0000       0.186882         5.0853 
  23   0.0000       0.196144         5.3374 
  24   0.0000       0.198211         5.3936 
  25   0.0000       0.202680         5.5152 
  26   0.0000       0.203216         5.5298 
  27   0.0000       0.207031         5.6336 
  28   0.0000       0.208273         5.6674 
  29   0.0000       0.208309         5.6684 
  30   0.0000       0.251849         6.8532 
  31   0.0000       0.280186         7.6243 
  32   0.0000       0.280191         7.6244 
  33   0.0000       0.302705         8.2370 
  34   0.0000       0.309548         8.4232 
  35   0.0000       0.335540         9.1305 
  36   0.0000       0.354337         9.6420 
  37   0.0000       0.367937        10.0121 
  38   0.0000       0.368163        10.0182 
  39   0.0000       0.376965        10.2577 
  40   0.0000       0.377574        10.2743 
  41   0.0000       0.381259        10.3746 
  42   0.0000       0.400895        10.9089 
  43   0.0000       0.400896        10.9089 
  44   0.0000       0.408030        11.1030 
  45   0.0000       0.408439        11.1142 
  46   0.0000       0.431157        11.7324 
  47   0.0000       0.435357        11.8467 
  48   0.0000       0.479597        13.0505 
  49   0.0000       0.486136        13.2284 
  50   0.0000       0.486136        13.2284 
  51   0.0000       0.491873        13.3845 
  52   0.0000       0.492064        13.3897 
  53   0.0000       0.514301        13.9949 
  54   0.0000       0.567408        15.4399 
  55   0.0000       0.576135        15.6774 
  56   0.0000       0.576918        15.6987 
  57   0.0000       0.582754        15.8575 
  58   0.0000       0.587763        15.9938 
  59   0.0000       0.614223        16.7139 
  60   0.0000       0.628600        17.1051 
  61   0.0000       0.628849        17.1119 
  62   0.0000       0.656928        17.8759 
  63   0.0000       0.656933        17.8761 
  64   0.0000       0.694099        18.8874 
  65   0.0000       0.695234        18.9183 
  66   0.0000       0.695234        18.9183 
  67   0.0000       0.705307        19.1924 
  68   0.0000       0.744190        20.2504 
  69   0.0000       0.744207        20.2509 
  70   0.0000       0.754155        20.5216 
  71   0.0000       0.793127        21.5821 
  72   0.0000       0.793274        21.5861 
  73   0.0000       0.801602        21.8127 
  74   0.0000       0.801603        21.8127 
  75   0.0000       0.805607        21.9217 
  76   0.0000       0.811486        22.0817 
  77   0.0000       0.833137        22.6708 
  78   0.0000       0.843155        22.9434 
  79   0.0000       0.852429        23.1958 
  80   0.0000       0.885291        24.0900 
  81   0.0000       0.889354        24.2006 
  82   0.0000       0.890245        24.2248 
  83   0.0000       0.892632        24.2897 
  84   0.0000       0.897873        24.4324 
  85   0.0000       0.908599        24.7242 
  86   0.0000       0.908657        24.7258 
  87   0.0000       0.927592        25.2411 
  88   0.0000       0.927595        25.2411 
  89   0.0000       0.931520        25.3479 
  90   0.0000       0.931525        25.3481 
  91   0.0000       0.948896        25.8208 
  92   0.0000       0.995302        27.0835 
  93   0.0000       0.995303        27.0836 
  94   0.0000       1.010002        27.4836 
  95   0.0000       1.010002        27.4836 
  96   0.0000       1.046659        28.4810 
  97   0.0000       1.046700        28.4822 
  98   0.0000       1.110779        30.2258 
  99   0.0000       1.110779        30.2258 
 100   0.0000       1.148372        31.2488 
 101   0.0000       1.156687        31.4750 
 102   0.0000       1.169493        31.8235 
 103   0.0000       1.187717        32.3194 
 104   0.0000       1.206582        32.8328 
 105   0.0000       1.214387        33.0452 
 106   0.0000       1.281699        34.8768 
 107   0.0000       1.344989        36.5990 
 108   0.0000       1.345072        36.6013 
 109   0.0000       1.451994        39.5108 
 110   0.0000       1.481527        40.3144 
 111   0.0000       1.498638        40.7800 
 112   0.0000       1.561908        42.5017 
 113   0.0000       1.583401        43.0865 
 114   0.0000       1.635148        44.4946 
 115   0.0000       1.678847        45.6838 
 116   0.0000       1.697682        46.1963 
 117   0.0000       1.814847        49.3845 
 118   0.0000       1.844468        50.1905 
 119   0.0000       1.844556        50.1929 
 120   0.0000       1.886214        51.3265 
 121   0.0000       1.886222        51.3267 
 122   0.0000       1.964118        53.4464 
 123   0.0000       1.964510        53.4570 
 124   0.0000       2.083498        56.6949 
 125   0.0000       2.125503        57.8379 
 126   0.0000       2.126827        57.8739 
 127   0.0000       2.137257        58.1577 
 128   0.0000       2.156537        58.6824 
 129   0.0000       2.320920        63.1555 
 130   0.0000       2.378202        64.7142 
 131   0.0000       2.394079        65.1462 
 132   0.0000       2.436263        66.2941 
 133   0.0000       2.436499        66.3005 
 134   0.0000       2.696667        73.3800 
 135   0.0000       2.888896        78.6109 
 136   0.0000       2.908333        79.1398 
 137   0.0000       2.917042        79.3767 
 138   0.0000       2.922716        79.5312 
 139   0.0000       2.948305        80.2275 
 140   0.0000       3.199898        87.0737 
 141   0.0000       3.225480        87.7698 
 142   0.0000       3.229776        87.8867 
 143   0.0000       3.415889        92.9511 
 144   0.0000       3.752084       102.0994 
 145   0.0000       3.788819       103.0990 
 146   0.0000       3.980625       108.3183 
 147   0.0000       4.053140       110.2915 
 148   0.0000       4.053490       110.3011 
 149   0.0000       4.107037       111.7582 
 150   0.0000       4.129124       112.3592 
 151   0.0000       4.260312       115.9290 
 152   0.0000       4.417958       120.2188 
 153   0.0000       4.438238       120.7706 
 154   0.0000       4.438582       120.7800 
 155   0.0000       4.447206       121.0146 
 156   0.0000       4.594161       125.0135 
 157   0.0000       4.594220       125.0151 
 158   0.0000       4.620919       125.7416 
 159   0.0000       4.904981       133.4713 
 160   0.0000       4.905028       133.4726 
 161   0.0000       4.948301       134.6501 
 162   0.0000       4.948302       134.6501 
 163   0.0000       4.951704       134.7427 
 164   0.0000       4.979956       135.5115 
 165   0.0000       5.224220       142.1582 
 166   0.0000       5.224235       142.1587 
 167   0.0000       5.267491       143.3357 
 168   0.0000       5.346277       145.4796 
 169   0.0000       5.348898       145.5509 
 170   0.0000       5.536591       150.6583 
 171   0.0000       5.887028       160.1942 
 172   0.0000       5.887098       160.1961 
 173   0.0000       5.917266       161.0170 
 174   0.0000       5.917270       161.0171 
 175   0.0000       6.088236       165.6693 
 176   0.0000       6.116147       166.4288 
 177   0.0000       6.487694       176.5391 
 178   0.0000       6.487718       176.5398 
 179   0.0000       6.553466       178.3289 
 180   0.0000       6.587220       179.2474 
 181   0.0000       6.685511       181.9220 
 182   0.0000       6.759216       183.9276 
 183   0.0000       6.759576       183.9374 
 184   0.0000       6.948195       189.0700 
 185   0.0000       7.169564       195.0938 
 186   0.0000       7.442705       202.5263 
 187   0.0000       7.473469       203.3634 
 188   0.0000       7.725915       210.2328 
 189   0.0000       7.725999       210.2351 
 190   0.0000       8.151399       221.8108 
 191   0.0000       8.372749       227.8341 
 192   0.0000       8.399349       228.5579 
 193   0.0000       8.928033       242.9441 
 194   0.0000       8.973349       244.1772 
 195   0.0000       9.042075       246.0474 
 196   0.0000       9.319291       253.5908 
 197   0.0000       9.319440       253.5949 
 198   0.0000       9.935140       270.3489 
 199   0.0000      10.162990       276.5490 
 200   0.0000      10.193849       277.3887 
 201   0.0000      10.526296       286.4351 
 202   0.0000      10.912432       296.9424 
 203   0.0000      10.944913       297.8262 
 204   0.0000      10.961516       298.2780 
 205   0.0000      10.961600       298.2803 
 206   0.0000      11.002858       299.4030 
 207   0.0000      11.003351       299.4164 
 208   0.0000      11.076814       301.4154 
 209   0.0000      11.076817       301.4155 
 210   0.0000      11.114208       302.4330 
 211   0.0000      11.150266       303.4142 
 212   0.0000      11.254309       306.2453 
 213   0.0000      11.254484       306.2501 
 214   0.0000      11.331316       308.3408 
 215   0.0000      11.331318       308.3408 
 216   0.0000      11.599172       315.6295 
 217   0.0000      11.668092       317.5049 
 218   0.0000      11.914697       324.2154 
 219   0.0000      11.914901       324.2209 
 220   0.0000      11.970682       325.7388 
 221   0.0000      11.970682       325.7388 
 222   0.0000      12.292605       334.4988 
 223   0.0000      12.292606       334.4988 
 224   0.0000      12.612390       343.2006 
 225   0.0000      12.612427       343.2016 
 226   0.0000      12.781239       347.7952 
 227   0.0000      12.783000       347.8431 
 228   0.0000      12.881183       350.5148 
 229   0.0000      13.125419       357.1608 
 230   0.0000      13.153910       357.9361 
 231   0.0000      13.177012       358.5647 
 232   0.0000      13.591960       369.8560 
 233   0.0000      13.591982       369.8566 
 234   0.0000      14.007968       381.1762 
 235   0.0000      14.041814       382.0972 
 236   0.0000      14.228032       387.1644 
 237   0.0000      14.228070       387.1655 
 238   0.0000      14.334220       390.0540 
 239   0.0000      14.334309       390.0564 
 240   0.0000      14.839131       403.7933 
 241   0.0000      14.841387       403.8547 
 242   0.0000      15.147483       412.1840 
 243   0.0000      15.467435       420.8903 
 244   0.0000      15.505971       421.9389 
 245   0.0000      15.925688       433.3600 
 246   0.0000      15.929241       433.4567 
 247   0.0000      16.014157       435.7674 
 248   0.0000      16.411085       446.5683 
 249   0.0000      16.423384       446.9030 
 250   0.0000      16.459113       447.8752 
 251   0.0000      16.748883       455.7603 
 252   0.0000      16.749434       455.7753 
 253   0.0000      16.910365       460.1544 
 254   0.0000      16.910414       460.1558 
 255   0.0000      17.163463       467.0416 
 256   0.0000      17.163485       467.0422 
 257   0.0000      17.908517       487.3155 
 258   0.0000      17.908920       487.3265 
 259   0.0000      18.619460       506.6613 
 260   0.0000      18.651136       507.5232 
 261   0.0000      18.664398       507.8841 
 262   0.0000      18.793054       511.3850 
 263   0.0000      18.824134       512.2307 
 264   0.0000      20.387803       554.7803 
 265   0.0000      22.922150       623.7434 
 266   0.0000      22.922191       623.7445 
 267   0.0000      23.808176       647.8534 
 268   0.0000      24.259432       660.1327 
 269   0.0000      24.287633       660.9001 
 270   0.0000      25.729329       700.1306 
 271   0.0000      26.117576       710.6954 
 272   0.0000      26.155386       711.7242 
 273   0.0000      28.670228       780.1566 
 274   0.0000      31.036396       844.5433 
 275   0.0000      31.786957       864.9671 
 276   0.0000      31.816434       865.7692 
 277   0.0000      34.199176       930.6069 
 278   0.0000      47.542302      1293.6918 
 279   0.0000      47.542685      1293.7022 
 280   0.0000      47.881511      1302.9222 
 281   0.0000      47.909889      1303.6944 
 282   0.0000      49.185645      1338.4095 
 283   0.0000      66.470440      1808.7526 
 284   0.0000      66.470507      1808.7544 
 285   0.0000      67.252515      1830.0340 
 286   0.0000      67.273669      1830.6096 
 287   0.0000      68.960707      1876.5162 
 288   0.0000     105.418704      2868.5888 
 289   0.0000     143.236616      3897.6665 

                    ********************************
                    * MULLIKEN POPULATION ANALYSIS *
                    ********************************

--------------------------------------------
MULLIKEN ATOMIC CHARGES AND SPIN POPULATIONS
--------------------------------------------
   0 N :    0.024312    0.621649
   1 O :   -0.024312    0.378351
Sum of atomic charges         :   -0.0000000
Sum of atomic spin populations:    1.0000000

-----------------------------------------------------
MULLIKEN REDUCED ORBITAL CHARGES AND SPIN POPULATIONS
-----------------------------------------------------
CHARGE
  0 N s       :     3.878105  s :     3.878105
      pz      :     0.968875  p :     2.988962
      px      :     1.307563
      py      :     0.712523
      dz2     :     0.020478  d :     0.094931
      dxz     :     0.049320
      dyz     :     0.024890
      dx2y2   :     0.000244
      dxy     :     0.000000
      f0      :     0.002103  f :     0.012559
      f+1     :     0.007051
      f-1     :     0.003347
      f+2     :     0.000021
      f-2     :     0.000000
      f+3     :     0.000018
      f-3     :     0.000018
      g0      :     0.000446  g :     0.001039
      g+1     :     0.000118
      g-1     :     0.000470
      g+2     :     0.000002
      g-2     :     0.000000
      g+3     :     0.000002
      g-3     :     0.000001
      g+4     :     0.000000
      g-4     :     0.000000
      h0      :     0.000074  h :     0.000092
      h+1     :    -0.000012
      h-1     :     0.000029
      h+2     :     0.000000
      h-2     :     0.000000
      h+3     :     0.000000
      h-3     :     0.000000
      h+4     :     0.000000
      h-4     :     0.000000
      h+5     :     0.000000
      h-5     :     0.000000
  1 O s       :     3.858728  s :     3.858728
      pz      :     1.252595  p :     4.088291
      px      :     1.601563
      py      :     1.234132
      dz2     :     0.015530  d :     0.068497
      dxz     :     0.031158
      dyz     :     0.021739
      dx2y2   :     0.000070
      dxy     :     0.000000
      f0      :     0.002175  f :     0.007877
      f+1     :     0.003115
      f-1     :     0.002546
      f+2     :     0.000016
      f-2     :     0.000000
      f+3     :     0.000013
      f-3     :     0.000012
      g0      :     0.000475  g :     0.000791
      g+1     :     0.000037
      g-1     :     0.000271
      g+2     :     0.000004
      g-2     :     0.000000
      g+3     :     0.000001
      g-3     :     0.000001
      g+4     :     0.000000
      g-4     :     0.000000
      h0      :     0.000057  h :     0.000129
      h+1     :     0.000051
      h-1     :     0.000019
      h+2     :     0.000001
      h-2     :     0.000000
      h+3     :     0.000000
      h-3     :     0.000000
      h+4     :     0.000000
      h-4     :     0.000000
      h+5     :    -0.000000
      h-5     :     0.000000

SPIN
  0 N s       :    -0.048204  s :    -0.048204
      pz      :    -0.008896  p :     0.647862
      px      :     0.644587
      py      :     0.012171
      dz2     :    -0.000560  d :     0.022269
      dxz     :     0.023412
      dyz     :    -0.000352
      dx2y2   :    -0.000231
      dxy     :    -0.000000
      f0      :    -0.000623  f :     0.000424
      f+1     :     0.001784
      f-1     :    -0.000689
      f+2     :    -0.000014
      f-2     :    -0.000000
      f+3     :    -0.000016
      f-3     :    -0.000017
      g0      :    -0.000103  g :    -0.000647
      g+1     :    -0.000487
      g-1     :    -0.000058
      g+2     :    -0.000000
      g-2     :    -0.000000
      g+3     :     0.000000
      g-3     :     0.000000
      g+4     :     0.000000
      g-4     :     0.000000
      h0      :    -0.000007  h :    -0.000055
      h+1     :    -0.000049
      h-1     :     0.000000
      h+2     :    -0.000000
      h-2     :    -0.000000
      h+3     :    -0.000000
      h-3     :    -0.000000
      h+4     :     0.000000
      h-4     :     0.000000
      h+5     :     0.000000
      h-5     :     0.000000
  1 O s       :     0.025079  s :     0.025079
      pz      :     0.029677  p :     0.341908
      px      :     0.322489
      py      :    -0.010259
      dz2     :     0.003955  d :     0.011454
      dxz     :     0.008253
      dyz     :    -0.000690
      dx2y2   :    -0.000064
      dxy     :    -0.000000
      f0      :     0.000057  f :    -0.000042
      f+1     :     0.000100
      f-1     :    -0.000169
      f+2     :    -0.000009
      f-2     :    -0.000000
      f+3     :    -0.000011
      f-3     :    -0.000011
      g0      :    -0.000050  g :    -0.000096
      g+1     :    -0.000107
      g-1     :     0.000064
      g+2     :    -0.000002
      g-2     :    -0.000000
      g+3     :    -0.000001
      g-3     :    -0.000001
      g+4     :     0.000000
      g-4     :     0.000000
      h0      :    -0.000007  h :     0.000047
      h+1     :     0.000046
      h-1     :     0.000009
      h+2     :    -0.000001
      h-2     :    -0.000000
      h+3     :    -0.000001
      h-3     :    -0.000000
      h+4     :     0.000000
      h-4     :     0.000000
      h+5     :    -0.000000
      h-5     :     0.000000


                     *******************************
                     * LOEWDIN POPULATION ANALYSIS *
                     *******************************

-------------------------------------------
LOEWDIN ATOMIC CHARGES AND SPIN POPULATIONS
-------------------------------------------
   0 N :   -0.084072    0.579085
   1 O :    0.084072    0.420915

----------------------------------------------------
LOEWDIN REDUCED ORBITAL CHARGES AND SPIN POPULATIONS
----------------------------------------------------
CHARGE
  0 N s       :     3.271951  s :     3.271951
      pz      :     1.275920  p :     3.049470
      px      :     1.092203
      py      :     0.681348
      dz2     :     0.229416  d :     0.506827
      dxz     :     0.185569
      dyz     :     0.091618
      dx2y2   :     0.000224
      dxy     :     0.000000
      f0      :     0.070117  f :     0.197527
      f+1     :     0.081859
      f-1     :     0.045490
      f+2     :     0.000026
      f-2     :     0.000000
      f+3     :     0.000018
      f-3     :     0.000018
      g0      :     0.014897  g :     0.047527
      g+1     :     0.019893
      g-1     :     0.012731
      g+2     :     0.000002
      g-2     :     0.000000
      g+3     :     0.000001
      g-3     :     0.000001
      g+4     :     0.000000
      g-4     :     0.000000
      h0      :     0.003928  h :     0.010770
      h+1     :     0.004060
      h-1     :     0.002780
      h+2     :     0.000001
      h-2     :     0.000000
      h+3     :     0.000000
      h-3     :     0.000000
      h+4     :     0.000000
      h-4     :     0.000000
      h+5     :     0.000000
      h-5     :     0.000000
  1 O s       :     3.352484  s :     3.352484
      pz      :     1.513111  p :     3.968716
      px      :     1.369711
      py      :     1.085895
      dz2     :     0.198361  d :     0.412009
      dxz     :     0.163074
      dyz     :     0.050503
      dx2y2   :     0.000071
      dxy     :     0.000000
      f0      :     0.053179  f :     0.141242
      f+1     :     0.065912
      f-1     :     0.022103
      f+2     :     0.000022
      f-2     :     0.000000
      f+3     :     0.000013
      f-3     :     0.000012
      g0      :     0.012841  g :     0.032912
      g+1     :     0.014167
      g-1     :     0.005894
      g+2     :     0.000008
      g-2     :     0.000000
      g+3     :     0.000001
      g-3     :     0.000001
      g+4     :     0.000000
      g-4     :     0.000000
      h0      :     0.003437  h :     0.008564
      h+1     :     0.003517
      h-1     :     0.001605
      h+2     :     0.000004
      h-2     :     0.000000
      h+3     :     0.000000
      h-3     :     0.000000
      h+4     :     0.000000
      h-4     :     0.000000
      h+5     :     0.000000
      h-5     :     0.000000

SPIN
  0 N s       :     0.003980  s :     0.003980
      pz      :    -0.003829  p :     0.449649
      px      :     0.444660
      py      :     0.008818
      dz2     :     0.001287  d :     0.085274
      dxz     :     0.086198
      dyz     :    -0.002003
      dx2y2   :    -0.000207
      dxy     :    -0.000000
      f0      :     0.000101  f :     0.032057
      f+1     :     0.032980
      f-1     :    -0.000971
      f+2     :    -0.000019
      f-2     :    -0.000000
      f+3     :    -0.000017
      f-3     :    -0.000018
      g0      :     0.000032  g :     0.006905
      g+1     :     0.006918
      g-1     :    -0.000045
      g+2     :    -0.000001
      g-2     :    -0.000000
      g+3     :     0.000000
      g-3     :     0.000000
      g+4     :     0.000000
      g-4     :     0.000000
      h0      :    -0.000025  h :     0.001220
      h+1     :     0.001247
      h-1     :    -0.000002
      h+2     :    -0.000001
      h-2     :    -0.000000
      h+3     :    -0.000000
      h-3     :    -0.000000
      h+4     :     0.000000
      h-4     :     0.000000
      h+5     :     0.000000
      h-5     :     0.000000
  1 O s       :     0.001494  s :     0.001494
      pz      :    -0.004416  p :     0.243797
      px      :     0.255271
      py      :    -0.007058
      dz2     :     0.001734  d :     0.117987
      dxz     :     0.115754
      dyz     :     0.000565
      dx2y2   :    -0.000066
      dxy     :    -0.000000
      f0      :     0.000250  f :     0.046708
      f+1     :     0.045988
      f-1     :     0.000510
      f+2     :    -0.000017
      f-2     :    -0.000000
      f+3     :    -0.000011
      f-3     :    -0.000011
      g0      :    -0.000169  g :     0.008954
      g+1     :     0.008948
      g-1     :     0.000181
      g+2     :    -0.000006
      g-2     :    -0.000000
      g+3     :    -0.000000
      g-3     :    -0.000000
      g+4     :     0.000000
      g-4     :     0.000000
      h0      :    -0.000118  h :     0.001975
      h+1     :     0.002064
      h-1     :     0.000034
      h+2     :    -0.000003
      h-2     :    -0.000000
      h+3     :    -0.000000
      h-3     :    -0.000000
      h+4     :     0.000000
      h-4     :     0.000000
      h+5     :     0.000000
      h-5     :     0.000000


                      *****************************
                      * MAYER POPULATION ANALYSIS *
                      *****************************

  NA   - Mulliken gross atomic population
  ZA   - Total nuclear charge
  QA   - Mulliken gross atomic charge
  VA   - Mayer's total valence
  BVA  - Mayer's bonded valence
  FA   - Mayer's free valence

  ATOM       NA         ZA         QA         VA         BVA        FA
  0 N      6.9757     7.0000     0.0243     2.6978     2.2347     0.4632
  1 O      8.0243     8.0000    -0.0243     2.3623     2.2347     0.1276

  Mayer bond orders larger than 0.1
B(  0-N ,  1-O ) :   2.2347 

-------
TIMINGS
-------

Total SCF time: 0 days 0 hours 5 min 6 sec 

Total time                  ....     306.693 sec
Sum of individual times     ....     306.131 sec  ( 99.8%)

Fock matrix formation       ....     304.355 sec  ( 99.2%)
  XC integration            ....       6.845 sec  (  2.2% of F)
    Basis function eval.    ....       0.449 sec  (  6.6% of XC)
    Density eval.           ....       1.191 sec  ( 17.4% of XC)
    XC-Functional eval.     ....       0.189 sec  (  2.8% of XC)
    XC-Potential eval.      ....       4.541 sec  ( 66.3% of XC)
Diagonalization             ....       0.688 sec  (  0.2%)
Density matrix formation    ....       0.015 sec  (  0.0%)
Population analysis         ....       0.064 sec  (  0.0%)
Initial guess               ....       0.398 sec  (  0.1%)
Orbital Transformation      ....       0.000 sec  (  0.0%)
Orbital Orthonormalization  ....       0.000 sec  (  0.0%)
DIIS solution               ....       0.358 sec  (  0.1%)
Grid generation             ....       0.253 sec  (  0.1%)

-------------------------   --------------------
FINAL SINGLE POINT ENERGY      -129.827337659677
-------------------------   --------------------


                            ***************************************
                            *     ORCA property calculations      *
                            ***************************************

                                    ---------------------
                                    Active property flags
                                    ---------------------
   (+) Dipole Moment


------------------------------------------------------------------------------
                       ORCA ELECTRIC PROPERTIES CALCULATION
------------------------------------------------------------------------------

Dipole Moment Calculation                       ... on
Quadrupole Moment Calculation                   ... off
Polarizability Calculation                      ... off
GBWName                                         ... no_pbe_+001_z.gbw
Electron density file                           ... no_pbe_+001_z.scfp.tmp
The origin for moment calculation is the CENTER OF MASS  = ( 0.000000,  0.000000  1.162557)

-------------
DIPOLE MOMENT
-------------
                                X             Y             Z
Electronic contribution:      0.00000       0.00000       0.24937
Nuclear contribution   :      0.00000       0.00000       0.00458
                        -----------------------------------------
Total Dipole Moment    :      0.00000       0.00000       0.25395
                        -----------------------------------------
Magnitude (a.u.)       :      0.25395
Magnitude (Debye)      :      0.64548



--------------------
Rotational spectrum 
--------------------
 
Rotational constants in cm-1:     0.000000     1.695532     1.695532 
Rotational constants in MHz :     0.000000 50830.768128 50830.768128 

 Dipole components along the rotational axes: 
x,y,z [a.u.] :     0.253947     0.000000     0.000000 
x,y,z [Debye]:     0.645481     0.000000     0.000000 

 

Timings for individual modules:

Sum of individual times         ...      308.290 sec (=   5.138 min)
GTO integral calculation        ...        1.278 sec (=   0.021 min)   0.4 %
SCF iterations                  ...      307.012 sec (=   5.117 min)  99.6 %
                             ****ORCA TERMINATED NORMALLY****
TOTAL RUN TIME: 0 days 0 hours 5 minutes 9 seconds 176 msec
