
                                 *****************
                                 * O   R   C   A *
                                 *****************

           --- An Ab Initio, DFT and Semiempirical electronic structure package ---

                  #######################################################
                  #                        -***-                        #
                  #          Department of theory and spectroscopy      #
                  #               Directorship: Frank Neese             #
                  #        Max Planck Institute fuer Kohlenforschung    #
                  #                Kaiser Wilhelm Platz 1               #
                  #                 D-45470 Muelheim/Ruhr               #
                  #                      Germany                        #
                  #                                                     #
                  #                  All rights reserved                #
                  #                        -***-                        #
                  #######################################################


                         Program Version 4.1.1  - RELEASE  -


 With contributions from (in alphabetic order):
   Daniel Aravena         : Magnetic Properties
   Michael Atanasov       : Ab Initio Ligand Field Theory
   Alexander A. Auer      : GIAO ZORA
   Ute Becker             : Parallelization
   Giovanni Bistoni       : ED, Open-shell LED
   Martin Brehm           : Molecular dynamics
   Dmytro Bykov           : SCF Hessian
   Vijay G. Chilkuri      : MRCI spin determinant printing
   Dipayan Datta          : RHF DLPNO-CCSD density
   Achintya Kumar Dutta   : EOM-CC, STEOM-CC
   Dmitry Ganyushin       : Spin-Orbit,Spin-Spin,Magnetic field MRCI
   Miquel Garcia          : C-PCM Hessian
   Yang Guo               : DLPNO-NEVPT2, CIM, IAO-localization
   Andreas Hansen         : Spin unrestricted coupled pair/coupled cluster methods
   Benjamin Helmich-Paris : CASSCF linear response (MC-RPA)
   Lee Huntington         : MR-EOM, pCC
   Robert Izsak           : Overlap fitted RIJCOSX, COSX-SCS-MP3, EOM
   Christian Kollmar      : KDIIS, OOCD, Brueckner-CCSD(T), CCSD density
   Simone Kossmann        : Meta GGA functionals, TD-DFT gradient, OOMP2, MP2 Hessian
   Martin Krupicka        : AUTO-CI
   Lucas Lang             : DCDCAS
   Dagmar Lenk            : GEPOL surface, SMD
   Dimitrios Liakos       : Extrapolation schemes; parallel MDCI
   Dimitrios Manganas     : ROCIS; embedding schemes
   Dimitrios Pantazis     : SARC Basis sets
   Taras Petrenko         : DFT Hessian,TD-DFT gradient, ASA, ECA, R-Raman, ABS, FL, XAS/XES, NRVS
   Peter Pinski           : DLPNO-MP2, DLPNO-MP2 Gradient
   Christoph Reimann      : Effective Core Potentials
   Marius Retegan         : Local ZFS, SOC
   Christoph Riplinger    : Optimizer, TS searches, QM/MM, DLPNO-CCSD(T), (RO)-DLPNO pert. Triples
   Tobias Risthaus        : Range-separated hybrids, TD-DFT gradient, RPA, STAB
   Michael Roemelt        : Restricted open shell CIS
   Masaaki Saitow         : Open-shell DLPNO
   Barbara Sandhoefer     : DKH picture change effects
   Avijit Sen             : IP-ROCIS
   Kantharuban Sivalingam : CASSCF convergence, NEVPT2, FIC-MRCI
   Bernardo de Souza      : ESD, SOC TD-DFT
   Georgi Stoychev        : AutoAux, RI-MP2 NMR
   Willem Van den Heuvel  : Paramagnetic NMR
   Boris Wezisla          : Elementary symmetry handling
   Frank Wennmohs         : Technical directorship


 We gratefully acknowledge several colleagues who have allowed us to
 interface, adapt or use parts of their codes:
   Stefan Grimme, W. Hujo, H. Kruse,             : VdW corrections, initial TS optimization,
                  C. Bannwarth                     DFT functionals, gCP, sTDA/sTD-DF
   Ed Valeev                                     : LibInt (2-el integral package), F12 methods
   Garnet Chan, S. Sharma, J. Yang, R. Olivares  : DMRG
   Ulf Ekstrom                                   : XCFun DFT Library
   Mihaly Kallay                                 : mrcc  (arbitrary order and MRCC methods)
   Andreas Klamt, Michael Diedenhofen            : otool_cosmo (COSMO solvation model)
   Jiri Pittner, Ondrej Demel                    : Mk-CCSD
   Frank Weinhold                                : gennbo (NPA and NBO analysis)
   Christopher J. Cramer and Donald G. Truhlar   : smd solvation model
   Lars Goerigk                                  : TD-DFT with DH, B97 family of functionals
   V. Asgeirsson, H. Jonsson                     : NEB implementation
   FAccTs GmbH                                   : IRC, NEB, NEB-TS, Multilevel


 Your calculation uses the libint2 library for the computation of 2-el integrals
 For citations please refer to: http://libint.valeyev.net

 This ORCA versions uses:
   CBLAS   interface :  Fast vector & matrix operations
   LAPACKE interface :  Fast linear algebra routines
   SCALAPACK package :  Parallel linear algebra routines


----- Orbital basis set information -----
Your calculation utilizes the basis: aug-pc-4
   H, C-F              : F. Jensen, J. Chem. Phys. 115, 9113 (2001).
                         F. Jensen, J. Chem. Phys. 116, 7372 (2002).
                         F. Jensen, J. Chem. Phys. 117, 9234 (2002).
   Si-Cl               : F. Jensen, T. Helgaker, J. Chem. Phys. 121, 3463 (2004).
   He-B, Ne-Mg, Al, Ar : F. Jensen, J. Phys. Chem. A 111, 11198 (2007).
   K, Ca, Ga-Kr        : F. Jensen, J. Chem. Phys. 136, 094110 (2012).
   Sc-Zn               : F. Jensen, J. Chem. Phys. 138, 014107 (2013).

================================================================================
                                        WARNINGS
                       Please study these warnings very carefully!
================================================================================


INFO   : the flag for use of LIBINT has been found!

================================================================================
                                       INPUT FILE
================================================================================
NAME = oh_pbe_-001_z.inp
|  1> ! uks pbe nori aug-pc-4 grid5 nofinalgrid verytightscf
|  2> 
|  3> %maxcore 1500
|  4> 
|  5> %pal nprocs 4 end
|  6> %scf
|  7>     efield 0.0, 0.0, -0.01
|  8>     maxiter 300
|  9> end
| 10> * xyz 0 2
| 11> H 0 0 0
| 12> O 0 0 0.9697
| 13> *
| 14> 
| 15>                          ****END OF INPUT****
================================================================================

                       ****************************
                       * Single Point Calculation *
                       ****************************

---------------------------------
CARTESIAN COORDINATES (ANGSTROEM)
---------------------------------
  H      0.000000    0.000000    0.000000
  O      0.000000    0.000000    0.969700

----------------------------
CARTESIAN COORDINATES (A.U.)
----------------------------
  NO LB      ZA    FRAG     MASS         X           Y           Z
   0 H     1.0000    0     1.008    0.000000    0.000000    0.000000
   1 O     8.0000    0    15.999    0.000000    0.000000    1.832467

--------------------------------
INTERNAL COORDINATES (ANGSTROEM)
--------------------------------
 H      0   0   0     0.000000000000     0.00000000     0.00000000
 O      1   0   0     0.969700000000     0.00000000     0.00000000

---------------------------
INTERNAL COORDINATES (A.U.)
---------------------------
 H      0   0   0     0.000000000000     0.00000000     0.00000000
 O      1   0   0     1.832467432063     0.00000000     0.00000000

---------------------
BASIS SET INFORMATION
---------------------
There are 2 groups of distinct atoms

 Group   1 Type H   : 12s7p4d3f2g contracted to 8s7p4d3f2g pattern {51111111/1111111/1111/111/11}
 Group   2 Type O   : 27s12p7d4f3g2h contracted to 9s8p7d4f3g2h pattern {1191111111/51111111/1111111/1111/111/11}

Atom   0H    basis set group =>   1
Atom   1O    basis set group =>   2


           ************************************************************
           *        Program running with 4 parallel MPI-processes     *
           *              working on a common directory               *
           ************************************************************
------------------------------------------------------------------------------
                           ORCA GTO INTEGRAL CALCULATION
------------------------------------------------------------------------------

                         BASIS SET STATISTICS AND STARTUP INFO

 # of primitive gaussian shells          ...   83
 # of primitive gaussian functions       ...  267
 # of contracted shells                  ...   57
 # of contracted basis functions         ...  233
 Highest angular momentum                ...    5
 Maximum contraction depth               ...   11
 Integral package used                   ... LIBINT
 Integral threshhold            Thresh   ...  1.000e-12
 Primitive cut-off              TCut     ...  1.000e-14


------------------------------ INTEGRAL EVALUATION ----------------------------


 * One electron integrals 
 Pre-screening matrix                    ... done
 Shell pair data                         ... done (   0.000 sec)


An Electric Field will be added: 0.000e+00 0.000e+00 -1.000e-02 au

  ... done adding electric field perturbation



           ************************************************************
           *        Program running with 4 parallel MPI-processes     *
           *              working on a common directory               *
           ************************************************************
-------------------------------------------------------------------------------
                                 ORCA SCF
-------------------------------------------------------------------------------

------------
SCF SETTINGS
------------
Hamiltonian:
 Density Functional     Method          .... DFT(GTOs)
 Exchange Functional    Exchange        .... PBE
   PBE kappa parameter   XKappa         ....  0.804000
   PBE mue parameter    XMuePBE         ....  0.219520
 Correlation Functional Correlation     .... PBE
   PBE beta parameter  CBetaPBE         ....  0.066725
 LDA part of GGA corr.  LDAOpt          .... PW91-LDA
 Gradients option       PostSCFGGA      .... off
   Density functional embedding theory  .... OFF
   NL short-range parameter             ....  6.400000


General Settings:
 Integral files         IntName         .... oh_pbe_-001_z
 Hartree-Fock type      HFTyp           .... UHF
 Total Charge           Charge          ....    0
 Multiplicity           Mult            ....    2
 Number of Electrons    NEL             ....    9
 Basis Dimension        Dim             ....  233
 Nuclear Repulsion      ENuc            ....      4.3656983257 Eh

Convergence Acceleration:
 DIIS                   CNVDIIS         .... on
   Start iteration      DIISMaxIt       ....    12
   Startup error        DIISStart       ....  0.200000
   # of expansion vecs  DIISMaxEq       ....     5
   Bias factor          DIISBfac        ....   1.050
   Max. coefficient     DIISMaxC        ....  10.000
 Newton-Raphson         CNVNR           .... off
 SOSCF                  CNVSOSCF        .... off
 Level Shifting         CNVShift        .... on
   Level shift para.    LevelShift      ....    0.2500
   Turn off err/grad.   ShiftErr        ....    0.0010
 Zerner damping         CNVZerner       .... off
 Static damping         CNVDamp         .... on
   Fraction old density DampFac         ....    0.7000
   Max. Damping (<1)    DampMax         ....    0.9800
   Min. Damping (>=0)   DampMin         ....    0.0000
   Turn off err/grad.   DampErr         ....    0.1000
 Fernandez-Rico         CNVRico         .... off

SCF Procedure:
 Maximum # iterations   MaxIter         ....   300
 SCF integral mode      SCFMode         .... Direct
   Integral package                     .... LIBINT
 Reset frequency        DirectResetFreq ....    20
 Integral Threshold     Thresh          ....  1.000e-12 Eh
 Primitive CutOff       TCut            ....  1.000e-14 Eh

Convergence Tolerance:
 Convergence Check Mode ConvCheckMode   .... Total+1el-Energy
 Convergence forced     ConvForced      .... 0
 Energy Change          TolE            ....  1.000e-09 Eh
 1-El. energy change                    ....  1.000e-06 Eh
 DIIS Error             TolErr          ....  1.000e-08


Diagonalization of the overlap matrix:
Smallest eigenvalue                        ... 2.891e-06
Time for diagonalization                   ...    0.009 sec
Threshold for overlap eigenvalues          ... 1.000e-08
Number of eigenvalues below threshold      ... 0
Time for construction of square roots      ...    0.010 sec
Total time needed                          ...    0.019 sec

-------------------
DFT GRID GENERATION
-------------------

General Integration Accuracy     IntAcc      ...  5.010
Radial Grid Type                 RadialGrid  ... Gauss-Chebyshev
Angular Grid (max. acc.)         AngularGrid ... Lebedev-434
Angular grid pruning method      GridPruning ... 3 (G Style)
Weight generation scheme         WeightScheme... Becke
Basis function cutoff            BFCut       ...    1.0000e-12
Integration weight cutoff        WCut        ...    1.0000e-14
Grids for H and He will be reduced by one unit

# of grid points (after initial pruning)     ...  17534 (   0.0 sec)
# of grid points (after weights+screening)   ...  17493 (   0.0 sec)
nearest neighbour list constructed           ...    0.0 sec
Grid point re-assignment to atoms done       ...    0.0 sec
Grid point division into batches done        ...    0.1 sec
Reduced shell lists constructed in    0.1 sec

Total number of grid points                  ...    17493
Total number of batches                      ...      274
Average number of points per batch           ...       63
Average number of grid points per atom       ...     8746
Average number of shells per batch           ...    38.29 (67.17%)
Average number of basis functions per batch  ...   160.57 (68.91%)
Average number of large shells per batch     ...    34.01 (88.84%)
Average number of large basis fcns per batch ...   144.93 (90.26%)
Maximum spatial batch extension              ...  16.29, 16.29, 13.24 au
Average spatial batch extension              ...   1.36,  1.36,  1.16 au

Time for grid setup =    0.162 sec

------------------------------
INITIAL GUESS: MODEL POTENTIAL
------------------------------
Loading Hartree-Fock densities                     ... done
Calculating cut-offs                               ... done
Setting up the integral package                    ... done
Initializing the effective Hamiltonian             ... done
Starting the Coulomb interaction                   ... done (   0.0 sec)
Reading the grid                                   ... done
Mapping shells                                     ... done
Starting the XC term evaluation                    ... done (   0.1 sec)
  promolecular density results
     # of electrons  =      8.999510835
     EX              =     -8.368263018
     EC              =     -0.280196006
     EX+EC           =     -8.648459024
Transforming the Hamiltonian                       ... done (   0.0 sec)
Diagonalizing the Hamiltonian                      ... done (   0.0 sec)
Back transforming the eigenvectors                 ... done (   0.0 sec)
Now organizing SCF variables                       ... done
                      ------------------
                      INITIAL GUESS DONE (   0.4 sec)
                      ------------------
--------------
SCF ITERATIONS
--------------
ITER       Energy         Delta-E        Max-DP      RMS-DP      [F,P]     Damp
               ***  Starting incremental Fock matrix formation  ***
  0    -75.6718049775   0.000000000000 0.00964853  0.00013561  0.1581792 0.7000
  1    -75.6837764608  -0.011971483324 0.00593482  0.00010488  0.0676767 0.7000
                               ***Turning on DIIS***
  2    -75.6878828402  -0.004106379370 0.00949156  0.00017365  0.0178501 0.0000
  3    -75.6954850721  -0.007602231854 0.00377542  0.00006478  0.0386843 0.0000
  4    -75.6969043968  -0.001419324766 0.00162915  0.00002629  0.0042665 0.0000
  5    -75.6969504374  -0.000046040523 0.00041904  0.00000712  0.0006175 0.0000
  6    -75.6969547058  -0.000004268401 0.00015120  0.00000201  0.0003879 0.0000
  7    -75.6969549802  -0.000000274481 0.00001712  0.00000028  0.0000518 0.0000
  8    -75.6969549966  -0.000000016337 0.00000506  0.00000010  0.0000042 0.0000
  9    -75.6969549981  -0.000000001566 0.00000128  0.00000003  0.0000011 0.0000
 10    -75.6969549982  -0.000000000096 0.00000021  0.00000000  0.0000005 0.0000
                 **** Energy Check signals convergence ****

               *****************************************************
               *                     SUCCESS                       *
               *           SCF CONVERGED AFTER  11 CYCLES          *
               *****************************************************


----------------
TOTAL SCF ENERGY
----------------

Total Energy       :          -75.69695500 Eh           -2059.81886 eV

Components:
Nuclear Repulsion  :            4.36569833 Eh             118.79669 eV
Electronic Energy  :          -80.06265332 Eh           -2178.61556 eV
One Electron Energy:         -112.63464976 Eh           -3064.94464 eV
Two Electron Energy:           32.57199644 Eh             886.32908 eV

Virial components:
Potential Energy   :         -151.16727393 Eh           -4113.47065 eV
Kinetic Energy     :           75.47031893 Eh            2053.65178 eV
Virial Ratio       :            2.00300298


DFT components:
N(Alpha)           :        5.000000088879 electrons
N(Beta)            :        4.000000097755 electrons
N(Total)           :        9.000000186634 electrons
E(X)               :       -8.519071264259 Eh       
E(C)               :       -0.279161446464 Eh       
E(XC)              :       -8.798232710723 Eh       
DFET-embed. en.    :        0.000000000000 Eh       

---------------
SCF CONVERGENCE
---------------

  Last Energy change         ...   -2.4016e-12  Tolerance :   1.0000e-09
  Last MAX-Density change    ...    2.6240e-07  Tolerance :   1.0000e-08
  Last RMS-Density change    ...    2.7572e-09  Tolerance :   1.0000e-09
  Last DIIS Error            ...    6.4140e-08  Tolerance :   1.0000e-08

             **** THE GBW FILE WAS UPDATED (oh_pbe_-001_z.gbw) ****
             **** DENSITY FILE WAS UPDATED (oh_pbe_-001_z.scfp.tmp) ****
             **** ENERGY FILE WAS UPDATED (oh_pbe_-001_z.en.tmp) ****
----------------------
UHF SPIN CONTAMINATION
----------------------

Warning: in a DFT calculation there is little theoretical justification to 
         calculate <S**2> as in Hartree-Fock theory. We will do it anyways
         but you should keep in mind that the values have only limited relevance

Expectation value of <S**2>     :     0.752323
Ideal value S*(S+1) for S=0.5   :     0.750000
Deviation                       :     0.002323

----------------
ORBITAL ENERGIES
----------------
                 SPIN UP ORBITALS
  NO   OCC          E(Eh)            E(eV) 
   0   1.0000     -18.825845      -512.2773 
   1   1.0000      -0.932856       -25.3843 
   2   1.0000      -0.429202       -11.6792 
   3   1.0000      -0.366525        -9.9736 
   4   1.0000      -0.293390        -7.9836 
   5   0.0000      -0.030799        -0.8381 
   6   0.0000       0.006904         0.1879 
   7   0.0000       0.019283         0.5247 
   8   0.0000       0.020775         0.5653 
   9   0.0000       0.072205         1.9648 
  10   0.0000       0.092059         2.5050 
  11   0.0000       0.098423         2.6782 
  12   0.0000       0.101699         2.7674 
  13   0.0000       0.121174         3.2973 
  14   0.0000       0.146157         3.9771 
  15   0.0000       0.150656         4.0995 
  16   0.0000       0.157004         4.2723 
  17   0.0000       0.157262         4.2793 
  18   0.0000       0.177678         4.8349 
  19   0.0000       0.212183         5.7738 
  20   0.0000       0.215557         5.8656 
  21   0.0000       0.215766         5.8713 
  22   0.0000       0.219303         5.9675 
  23   0.0000       0.220557         6.0016 
  24   0.0000       0.263010         7.1569 
  25   0.0000       0.268751         7.3131 
  26   0.0000       0.272583         7.4174 
  27   0.0000       0.291474         7.9314 
  28   0.0000       0.291488         7.9318 
  29   0.0000       0.336165         9.1475 
  30   0.0000       0.365857         9.9555 
  31   0.0000       0.378866        10.3095 
  32   0.0000       0.381210        10.3732 
  33   0.0000       0.396499        10.7893 
  34   0.0000       0.396686        10.7944 
  35   0.0000       0.422527        11.4975 
  36   0.0000       0.459908        12.5147 
  37   0.0000       0.459912        12.5149 
  38   0.0000       0.467746        12.7280 
  39   0.0000       0.471738        12.8366 
  40   0.0000       0.472683        12.8624 
  41   0.0000       0.472911        12.8686 
  42   0.0000       0.482666        13.1340 
  43   0.0000       0.484954        13.1963 
  44   0.0000       0.484958        13.1964 
  45   0.0000       0.553531        15.0623 
  46   0.0000       0.560747        15.2587 
  47   0.0000       0.567976        15.4554 
  48   0.0000       0.568396        15.4669 
  49   0.0000       0.570111        15.5135 
  50   0.0000       0.583307        15.8726 
  51   0.0000       0.583344        15.8736 
  52   0.0000       0.629451        17.1282 
  53   0.0000       0.629462        17.1285 
  54   0.0000       0.632285        17.2053 
  55   0.0000       0.640503        17.4290 
  56   0.0000       0.643407        17.5080 
  57   0.0000       0.670164        18.2361 
  58   0.0000       0.670363        18.2415 
  59   0.0000       0.699152        19.0249 
  60   0.0000       0.722678        19.6651 
  61   0.0000       0.722680        19.6651 
  62   0.0000       0.742443        20.2029 
  63   0.0000       0.742447        20.2030 
  64   0.0000       0.805998        21.9323 
  65   0.0000       0.822564        22.3831 
  66   0.0000       0.830926        22.6106 
  67   0.0000       0.863086        23.4858 
  68   0.0000       0.863295        23.4915 
  69   0.0000       0.895976        24.3807 
  70   0.0000       0.895976        24.3807 
  71   0.0000       0.907955        24.7067 
  72   0.0000       0.957648        26.0589 
  73   0.0000       0.962893        26.2017 
  74   0.0000       0.974996        26.5310 
  75   0.0000       1.001666        27.2567 
  76   0.0000       1.002161        27.2702 
  77   0.0000       1.002532        27.2803 
  78   0.0000       1.012191        27.5431 
  79   0.0000       1.037935        28.2436 
  80   0.0000       1.037958        28.2443 
  81   0.0000       1.047101        28.4931 
  82   0.0000       1.047105        28.4932 
  83   0.0000       1.150464        31.3057 
  84   0.0000       1.224900        33.3312 
  85   0.0000       1.225388        33.3445 
  86   0.0000       1.256732        34.1974 
  87   0.0000       1.307417        35.5766 
  88   0.0000       1.318050        35.8660 
  89   0.0000       1.393363        37.9153 
  90   0.0000       1.527176        41.5566 
  91   0.0000       1.548362        42.1331 
  92   0.0000       1.702339        46.3230 
  93   0.0000       1.703397        46.3518 
  94   0.0000       1.744686        47.4753 
  95   0.0000       1.769681        48.1555 
  96   0.0000       1.772298        48.2267 
  97   0.0000       1.796536        48.8862 
  98   0.0000       1.836173        49.9648 
  99   0.0000       1.836372        49.9702 
 100   0.0000       2.105149        57.2840 
 101   0.0000       2.133208        58.0475 
 102   0.0000       2.212708        60.2108 
 103   0.0000       2.228249        60.6337 
 104   0.0000       2.234737        60.8103 
 105   0.0000       2.478733        67.4498 
 106   0.0000       2.645528        71.9885 
 107   0.0000       2.665418        72.5297 
 108   0.0000       2.915469        79.3340 
 109   0.0000       3.045261        82.8658 
 110   0.0000       3.045427        82.8703 
 111   0.0000       3.262914        88.7884 
 112   0.0000       3.279101        89.2289 
 113   0.0000       3.279930        89.2514 
 114   0.0000       3.470587        94.4395 
 115   0.0000       3.486738        94.8790 
 116   0.0000       3.647017        99.2404 
 117   0.0000       3.690525       100.4243 
 118   0.0000       3.690542       100.4248 
 119   0.0000       3.935663       107.0948 
 120   0.0000       3.936630       107.1211 
 121   0.0000       3.957443       107.6875 
 122   0.0000       4.091717       111.3413 
 123   0.0000       4.137710       112.5928 
 124   0.0000       4.300466       117.0216 
 125   0.0000       4.300581       117.0248 
 126   0.0000       4.438349       120.7736 
 127   0.0000       4.447536       121.0236 
 128   0.0000       4.498389       122.4074 
 129   0.0000       4.896105       133.2298 
 130   0.0000       5.040565       137.1608 
 131   0.0000       5.040600       137.1617 
 132   0.0000       5.305136       144.3601 
 133   0.0000       5.334013       145.1459 
 134   0.0000       5.396926       146.8578 
 135   0.0000       5.410026       147.2143 
 136   0.0000       5.444587       148.1548 
 137   0.0000       5.895933       160.4365 
 138   0.0000       5.895974       160.4376 
 139   0.0000       6.030805       164.1065 
 140   0.0000       6.180381       168.1767 
 141   0.0000       6.181215       168.1994 
 142   0.0000       6.214295       169.0996 
 143   0.0000       6.245731       169.9550 
 144   0.0000       6.748452       183.6347 
 145   0.0000       7.134753       194.1465 
 146   0.0000       7.138019       194.2354 
 147   0.0000       7.311247       198.9492 
 148   0.0000       7.361406       200.3140 
 149   0.0000       7.396812       201.2775 
 150   0.0000       8.286377       225.4838 
 151   0.0000       8.300464       225.8671 
 152   0.0000       8.727249       237.4805 
 153   0.0000       8.727256       237.4807 
 154   0.0000       9.175504       249.6782 
 155   0.0000       9.186846       249.9868 
 156   0.0000       9.188528       250.0326 
 157   0.0000       9.221568       250.9316 
 158   0.0000       9.611334       261.5377 
 159   0.0000       9.836409       267.6623 
 160   0.0000      10.350206       281.6434 
 161   0.0000      10.391724       282.7732 
 162   0.0000      10.616188       288.8812 
 163   0.0000      10.995720       299.2087 
 164   0.0000      11.068627       301.1926 
 165   0.0000      11.268553       306.6329 
 166   0.0000      11.651916       317.0647 
 167   0.0000      11.652149       317.0711 
 168   0.0000      11.715723       318.8010 
 169   0.0000      11.715749       318.8017 
 170   0.0000      11.952258       325.2375 
 171   0.0000      11.952271       325.2378 
 172   0.0000      11.975770       325.8773 
 173   0.0000      11.975777       325.8775 
 174   0.0000      11.976916       325.9085 
 175   0.0000      12.395959       337.3112 
 176   0.0000      12.475484       339.4752 
 177   0.0000      12.475863       339.4855 
 178   0.0000      12.558420       341.7320 
 179   0.0000      12.594533       342.7147 
 180   0.0000      12.606202       343.0322 
 181   0.0000      12.606304       343.0350 
 182   0.0000      12.734486       346.5230 
 183   0.0000      12.737643       346.6089 
 184   0.0000      13.697222       372.7204 
 185   0.0000      13.740524       373.8987 
 186   0.0000      13.741154       373.9158 
 187   0.0000      14.322490       389.7348 
 188   0.0000      14.323156       389.7529 
 189   0.0000      15.395426       418.9308 
 190   0.0000      16.679416       453.8700 
 191   0.0000      16.679426       453.8703 
 192   0.0000      16.942075       461.0173 
 193   0.0000      16.942101       461.0180 
 194   0.0000      16.949704       461.2249 
 195   0.0000      16.949862       461.2292 
 196   0.0000      16.966145       461.6723 
 197   0.0000      17.004184       462.7074 
 198   0.0000      17.041403       463.7201 
 199   0.0000      17.374956       472.7966 
 200   0.0000      17.418913       473.9927 
 201   0.0000      17.618539       479.4248 
 202   0.0000      17.618897       479.4346 
 203   0.0000      17.657303       480.4796 
 204   0.0000      17.657348       480.4809 
 205   0.0000      18.875203       513.6204 
 206   0.0000      19.673561       535.3448 
 207   0.0000      19.673629       535.3466 
 208   0.0000      20.561122       559.4966 
 209   0.0000      20.866640       567.8101 
 210   0.0000      20.897896       568.6607 
 211   0.0000      22.777600       619.8100 
 212   0.0000      22.778013       619.8213 
 213   0.0000      23.433526       637.6587 
 214   0.0000      23.457727       638.3172 
 215   0.0000      23.614325       642.5784 
 216   0.0000      23.654953       643.6840 
 217   0.0000      26.568737       722.9721 
 218   0.0000      26.967613       733.8261 
 219   0.0000      30.356044       826.0300 
 220   0.0000      31.764944       864.3681 
 221   0.0000      31.825438       866.0142 
 222   0.0000      33.948688       923.7908 
 223   0.0000      41.020522      1116.2251 
 224   0.0000      66.405507      1806.9857 
 225   0.0000      66.405823      1806.9943 
 226   0.0000      66.808807      1817.9601 
 227   0.0000      66.851560      1819.1234 
 228   0.0000      68.565869      1865.7721 
 229   0.0000      90.893754      2473.3448 
 230   0.0000      90.895817      2473.4009 
 231   0.0000      93.391070      2541.3002 
 232   0.0000     142.834520      3886.7249 

                 SPIN DOWN ORBITALS
  NO   OCC          E(Eh)            E(eV) 
   0   1.0000     -18.802222      -511.6345 
   1   1.0000      -0.875012       -23.8103 
   2   1.0000      -0.406421       -11.0593 
   3   1.0000      -0.270711        -7.3664 
   4   0.0000      -0.236436        -6.4338 
   5   0.0000      -0.028449        -0.7741 
   6   0.0000       0.011542         0.3141 
   7   0.0000       0.020459         0.5567 
   8   0.0000       0.024344         0.6624 
   9   0.0000       0.073599         2.0027 
  10   0.0000       0.095848         2.6082 
  11   0.0000       0.101818         2.7706 
  12   0.0000       0.107522         2.9258 
  13   0.0000       0.122499         3.3334 
  14   0.0000       0.151121         4.1122 
  15   0.0000       0.156872         4.2687 
  16   0.0000       0.161722         4.4007 
  17   0.0000       0.165029         4.4907 
  18   0.0000       0.180750         4.9185 
  19   0.0000       0.212872         5.7925 
  20   0.0000       0.216731         5.8976 
  21   0.0000       0.218934         5.9575 
  22   0.0000       0.219838         5.9821 
  23   0.0000       0.224076         6.0974 
  24   0.0000       0.269342         7.3292 
  25   0.0000       0.273940         7.4543 
  26   0.0000       0.276539         7.5250 
  27   0.0000       0.295528         8.0417 
  28   0.0000       0.296815         8.0767 
  29   0.0000       0.339664         9.2427 
  30   0.0000       0.369361        10.0508 
  31   0.0000       0.380856        10.3636 
  32   0.0000       0.385772        10.4974 
  33   0.0000       0.399353        10.8669 
  34   0.0000       0.401554        10.9268 
  35   0.0000       0.426384        11.6025 
  36   0.0000       0.465546        12.6682 
  37   0.0000       0.466439        12.6925 
  38   0.0000       0.471362        12.8264 
  39   0.0000       0.475954        12.9514 
  40   0.0000       0.478284        13.0148 
  41   0.0000       0.480586        13.0774 
  42   0.0000       0.487978        13.2785 
  43   0.0000       0.488934        13.3046 
  44   0.0000       0.489651        13.3241 
  45   0.0000       0.560496        15.2519 
  46   0.0000       0.564501        15.3608 
  47   0.0000       0.574837        15.6421 
  48   0.0000       0.577279        15.7086 
  49   0.0000       0.585919        15.9437 
  50   0.0000       0.587760        15.9938 
  51   0.0000       0.594084        16.1658 
  52   0.0000       0.630622        17.1601 
  53   0.0000       0.630883        17.1672 
  54   0.0000       0.633934        17.2502 
  55   0.0000       0.643320        17.5056 
  56   0.0000       0.649250        17.6670 
  57   0.0000       0.674244        18.3471 
  58   0.0000       0.676553        18.4099 
  59   0.0000       0.703589        19.1456 
  60   0.0000       0.729759        19.8578 
  61   0.0000       0.730385        19.8748 
  62   0.0000       0.749408        20.3924 
  63   0.0000       0.750670        20.4268 
  64   0.0000       0.811397        22.0792 
  65   0.0000       0.831898        22.6371 
  66   0.0000       0.837690        22.7947 
  67   0.0000       0.872989        23.7552 
  68   0.0000       0.875718        23.8295 
  69   0.0000       0.905298        24.6344 
  70   0.0000       0.905772        24.6473 
  71   0.0000       0.912006        24.8170 
  72   0.0000       0.962471        26.1902 
  73   0.0000       0.967405        26.3244 
  74   0.0000       0.978958        26.6388 
  75   0.0000       1.006126        27.3781 
  76   0.0000       1.009167        27.4608 
  77   0.0000       1.013493        27.5786 
  78   0.0000       1.019173        27.7331 
  79   0.0000       1.042534        28.3688 
  80   0.0000       1.043621        28.3984 
  81   0.0000       1.055050        28.7094 
  82   0.0000       1.055838        28.7308 
  83   0.0000       1.158566        31.5262 
  84   0.0000       1.233269        33.5590 
  85   0.0000       1.235005        33.6062 
  86   0.0000       1.275886        34.7186 
  87   0.0000       1.316984        35.8370 
  88   0.0000       1.320210        35.9247 
  89   0.0000       1.396776        38.0082 
  90   0.0000       1.552854        42.2553 
  91   0.0000       1.563743        42.5516 
  92   0.0000       1.741327        47.3839 
  93   0.0000       1.749316        47.6013 
  94   0.0000       1.779235        48.4155 
  95   0.0000       1.780961        48.4624 
  96   0.0000       1.790920        48.7334 
  97   0.0000       1.807432        49.1827 
  98   0.0000       1.868525        50.8452 
  99   0.0000       1.869729        50.8779 
 100   0.0000       2.138317        58.1866 
 101   0.0000       2.148487        58.4633 
 102   0.0000       2.234909        60.8150 
 103   0.0000       2.249106        61.2013 
 104   0.0000       2.253031        61.3081 
 105   0.0000       2.485433        67.6321 
 106   0.0000       2.667132        72.5763 
 107   0.0000       2.672924        72.7339 
 108   0.0000       2.935483        79.8786 
 109   0.0000       3.051877        83.0458 
 110   0.0000       3.053225        83.0825 
 111   0.0000       3.277115        89.1748 
 112   0.0000       3.279785        89.2475 
 113   0.0000       3.289596        89.5145 
 114   0.0000       3.486794        94.8805 
 115   0.0000       3.491528        95.0093 
 116   0.0000       3.663443        99.6874 
 117   0.0000       3.698904       100.6523 
 118   0.0000       3.698985       100.6545 
 119   0.0000       3.984141       108.4140 
 120   0.0000       3.998116       108.7943 
 121   0.0000       4.013331       109.2083 
 122   0.0000       4.146989       112.8453 
 123   0.0000       4.161689       113.2453 
 124   0.0000       4.312936       117.3610 
 125   0.0000       4.315439       117.4291 
 126   0.0000       4.455649       121.2444 
 127   0.0000       4.514072       122.8341 
 128   0.0000       4.538411       123.4964 
 129   0.0000       4.913778       133.7107 
 130   0.0000       5.110973       139.0767 
 131   0.0000       5.114684       139.1776 
 132   0.0000       5.336753       145.2204 
 133   0.0000       5.344558       145.4328 
 134   0.0000       5.451710       148.3486 
 135   0.0000       5.452783       148.3778 
 136   0.0000       5.464324       148.6918 
 137   0.0000       5.967391       162.3810 
 138   0.0000       5.968514       162.4115 
 139   0.0000       6.047447       164.5594 
 140   0.0000       6.231528       169.5685 
 141   0.0000       6.232228       169.5876 
 142   0.0000       6.247905       170.0141 
 143   0.0000       6.256084       170.2367 
 144   0.0000       6.758218       183.9005 
 145   0.0000       7.171803       195.1547 
 146   0.0000       7.177921       195.3212 
 147   0.0000       7.335571       199.6110 
 148   0.0000       7.400479       201.3773 
 149   0.0000       7.408181       201.5868 
 150   0.0000       8.294882       225.7152 
 151   0.0000       8.296001       225.7457 
 152   0.0000       8.728913       237.5258 
 153   0.0000       8.730183       237.5603 
 154   0.0000       9.228916       251.1316 
 155   0.0000       9.248184       251.6559 
 156   0.0000       9.280282       252.5293 
 157   0.0000       9.301593       253.1092 
 158   0.0000       9.643940       262.4250 
 159   0.0000       9.852169       268.0911 
 160   0.0000      10.397528       282.9311 
 161   0.0000      10.411763       283.3185 
 162   0.0000      10.664571       290.1977 
 163   0.0000      11.091213       301.8073 
 164   0.0000      11.124678       302.7179 
 165   0.0000      11.288527       307.1764 
 166   0.0000      11.670887       317.5810 
 167   0.0000      11.675055       317.6944 
 168   0.0000      11.748555       319.6944 
 169   0.0000      11.749935       319.7320 
 170   0.0000      11.989682       326.2558 
 171   0.0000      12.021812       327.1301 
 172   0.0000      12.022623       327.1522 
 173   0.0000      12.067615       328.3765 
 174   0.0000      12.068520       328.4011 
 175   0.0000      12.435488       338.3868 
 176   0.0000      12.546134       341.3977 
 177   0.0000      12.548135       341.4521 
 178   0.0000      12.595494       342.7408 
 179   0.0000      12.606181       343.0316 
 180   0.0000      12.664253       344.6118 
 181   0.0000      12.670952       344.7941 
 182   0.0000      12.799249       348.2853 
 183   0.0000      12.811940       348.6306 
 184   0.0000      13.745376       374.0307 
 185   0.0000      13.764261       374.5446 
 186   0.0000      13.766140       374.5957 
 187   0.0000      14.343900       390.3174 
 188   0.0000      14.349265       390.4634 
 189   0.0000      15.413970       419.4354 
 190   0.0000      16.692102       454.2152 
 191   0.0000      16.692479       454.2255 
 192   0.0000      16.993902       462.4276 
 193   0.0000      17.023522       463.2336 
 194   0.0000      17.025788       463.2953 
 195   0.0000      17.044484       463.8040 
 196   0.0000      17.044604       463.8073 
 197   0.0000      17.047842       463.8954 
 198   0.0000      17.055403       464.1011 
 199   0.0000      17.422563       474.0920 
 200   0.0000      17.437611       474.5015 
 201   0.0000      17.669972       480.8244 
 202   0.0000      17.670880       480.8491 
 203   0.0000      17.675839       480.9840 
 204   0.0000      17.688252       481.3218 
 205   0.0000      18.905786       514.4526 
 206   0.0000      19.680176       535.5248 
 207   0.0000      19.682508       535.5883 
 208   0.0000      20.579867       560.0067 
 209   0.0000      20.897023       568.6369 
 210   0.0000      20.906786       568.9026 
 211   0.0000      22.879575       622.5849 
 212   0.0000      22.893304       622.9585 
 213   0.0000      23.453190       638.1937 
 214   0.0000      23.459820       638.3741 
 215   0.0000      23.660314       643.8299 
 216   0.0000      23.686974       644.5553 
 217   0.0000      26.588690       723.5150 
 218   0.0000      26.990563       734.4505 
 219   0.0000      30.393571       827.0511 
 220   0.0000      31.847809       866.6230 
 221   0.0000      31.886638       867.6795 
 222   0.0000      33.980068       924.6447 
 223   0.0000      41.013435      1116.0323 
 224   0.0000      66.475783      1808.8980 
 225   0.0000      66.486232      1809.1824 
 226   0.0000      66.861808      1819.4023 
 227   0.0000      66.883257      1819.9860 
 228   0.0000      68.600571      1866.7164 
 229   0.0000      90.883234      2473.0585 
 230   0.0000      90.883864      2473.0757 
 231   0.0000      93.380337      2541.0082 
 232   0.0000     142.859810      3887.4131 

                    ********************************
                    * MULLIKEN POPULATION ANALYSIS *
                    ********************************

--------------------------------------------
MULLIKEN ATOMIC CHARGES AND SPIN POPULATIONS
--------------------------------------------
   0 H :    0.227515    0.004526
   1 O :   -0.227515    0.995474
Sum of atomic charges         :    0.0000000
Sum of atomic spin populations:    1.0000000

-----------------------------------------------------
MULLIKEN REDUCED ORBITAL CHARGES AND SPIN POPULATIONS
-----------------------------------------------------
CHARGE
  0 H s       :     0.674292  s :     0.674292
      pz      :     0.021458  p :     0.083384
      px      :     0.046435
      py      :     0.015490
      dz2     :     0.003168  d :     0.012401
      dxz     :     0.006645
      dyz     :     0.002584
      dx2y2   :     0.000005
      dxy     :     0.000000
      f0      :     0.000212  f :     0.002172
      f+1     :     0.001442
      f-1     :     0.000522
      f+2     :     0.000004
      f-2     :     0.000000
      f+3     :    -0.000005
      f-3     :    -0.000003
      g0      :    -0.000018  g :     0.000237
      g+1     :     0.000191
      g-1     :     0.000065
      g+2     :     0.000001
      g-2     :     0.000000
      g+3     :    -0.000001
      g-3     :    -0.000001
      g+4     :    -0.000000
      g-4     :    -0.000000
  1 O s       :     3.916143  s :     3.916143
      pz      :     1.378059  p :     4.301854
      px      :     1.943442
      py      :     0.980353
      dz2     :     0.005907  d :     0.008883
      dxz     :     0.001674
      dyz     :     0.000926
      dx2y2   :     0.000377
      dxy     :     0.000000
      f0      :     0.000305  f :     0.000593
      f+1     :     0.000081
      f-1     :    -0.000021
      f+2     :     0.000043
      f-2     :     0.000000
      f+3     :     0.000100
      f-3     :     0.000085
      g0      :     0.000042  g :     0.000041
      g+1     :    -0.000004
      g-1     :     0.000000
      g+2     :     0.000000
      g-2     :     0.000000
      g+3     :     0.000000
      g-3     :     0.000000
      g+4     :     0.000001
      g-4     :     0.000000
      h0      :     0.000001  h :     0.000001
      h+1     :    -0.000001
      h-1     :    -0.000000
      h+2     :     0.000000
      h-2     :     0.000000
      h+3     :     0.000000
      h-3     :     0.000000
      h+4     :     0.000000
      h-4     :     0.000000
      h+5     :     0.000000
      h-5     :     0.000000

SPIN
  0 H s       :    -0.008074  s :    -0.008074
      pz      :    -0.001623  p :     0.010398
      px      :    -0.003470
      py      :     0.015490
      dz2     :    -0.000369  d :     0.001718
      dxz     :    -0.000503
      dyz     :     0.002584
      dx2y2   :     0.000006
      dxy     :     0.000000
      f0      :    -0.000034  f :     0.000424
      f+1     :    -0.000059
      f-1     :     0.000522
      f+2     :     0.000003
      f-2     :     0.000000
      f+3     :    -0.000005
      f-3     :    -0.000003
      g0      :    -0.000002  g :     0.000061
      g+1     :    -0.000001
      g-1     :     0.000065
      g+2     :     0.000000
      g-2     :     0.000000
      g+3     :    -0.000001
      g-3     :    -0.000001
      g+4     :     0.000000
      g-4     :     0.000000
  1 O s       :    -0.003036  s :    -0.003036
      pz      :     0.012746  p :     0.996968
      px      :     0.003869
      py      :     0.980353
      dz2     :     0.000436  d :     0.001755
      dxz     :     0.000118
      dyz     :     0.000926
      dx2y2   :     0.000276
      dxy     :     0.000000
      f0      :    -0.000367  f :    -0.000214
      f+1     :    -0.000040
      f-1     :    -0.000021
      f+2     :     0.000037
      f-2     :     0.000000
      f+3     :     0.000092
      f-3     :     0.000085
      g0      :    -0.000001  g :    -0.000002
      g+1     :     0.000000
      g-1     :     0.000000
      g+2     :    -0.000000
      g-2     :    -0.000000
      g+3     :     0.000000
      g-3     :     0.000000
      g+4     :    -0.000001
      g-4     :    -0.000000
      h0      :     0.000003  h :     0.000002
      h+1     :     0.000000
      h-1     :    -0.000000
      h+2     :    -0.000000
      h-2     :    -0.000000
      h+3     :    -0.000000
      h-3     :     0.000000
      h+4     :    -0.000000
      h-4     :    -0.000000
      h+5     :    -0.000000
      h-5     :     0.000000


                     *******************************
                     * LOEWDIN POPULATION ANALYSIS *
                     *******************************

-------------------------------------------
LOEWDIN ATOMIC CHARGES AND SPIN POPULATIONS
-------------------------------------------
   0 H :   -0.865514    0.179801
   1 O :    0.865514    0.820199

----------------------------------------------------
LOEWDIN REDUCED ORBITAL CHARGES AND SPIN POPULATIONS
----------------------------------------------------
CHARGE
  0 H s       :     0.712445  s :     0.712445
      pz      :     0.344208  p :     0.639335
      px      :     0.206537
      py      :     0.088590
      dz2     :     0.162438  d :     0.404772
      dxz     :     0.161548
      dyz     :     0.080769
      dx2y2   :     0.000017
      dxy     :     0.000000
      f0      :     0.026956  f :     0.100096
      f+1     :     0.047776
      f-1     :     0.025347
      f+2     :     0.000014
      f-2     :     0.000000
      f+3     :     0.000002
      f-3     :     0.000002
      g0      :     0.003626  g :     0.008867
      g+1     :     0.003513
      g-1     :     0.001723
      g+2     :     0.000002
      g-2     :     0.000000
      g+3     :     0.000002
      g-3     :     0.000001
      g+4     :     0.000000
      g-4     :     0.000000
  1 O s       :     3.287644  s :     3.287644
      pz      :     1.432021  p :     3.810023
      px      :     1.576698
      py      :     0.801303
      dz2     :     0.025058  d :     0.029621
      dxz     :     0.002782
      dyz     :     0.001426
      dx2y2   :     0.000355
      dxy     :     0.000000
      f0      :     0.004270  f :     0.005661
      f+1     :     0.000643
      f-1     :     0.000538
      f+2     :     0.000041
      f-2     :     0.000000
      f+3     :     0.000090
      f-3     :     0.000078
      g0      :     0.000570  g :     0.000940
      g+1     :     0.000235
      g-1     :     0.000132
      g+2     :     0.000001
      g-2     :     0.000000
      g+3     :     0.000000
      g-3     :     0.000000
      g+4     :     0.000001
      g-4     :     0.000000
      h0      :     0.000333  h :     0.000598
      h+1     :     0.000174
      h-1     :     0.000090
      h+2     :     0.000000
      h-2     :     0.000000
      h+3     :     0.000000
      h-3     :     0.000000
      h+4     :     0.000000
      h-4     :     0.000000
      h+5     :     0.000000
      h-5     :     0.000000

SPIN
  0 H s       :    -0.015313  s :    -0.015313
      pz      :     0.001008  p :     0.084224
      px      :    -0.005375
      py      :     0.088590
      dz2     :     0.002239  d :     0.083173
      dxz     :     0.000151
      dyz     :     0.080769
      dx2y2   :     0.000014
      dxy     :     0.000000
      f0      :     0.000218  f :     0.026081
      f+1     :     0.000502
      f-1     :     0.025347
      f+2     :     0.000010
      f-2     :     0.000000
      f+3     :     0.000002
      f-3     :     0.000002
      g0      :    -0.000069  g :     0.001636
      g+1     :    -0.000022
      g-1     :     0.001723
      g+2     :     0.000002
      g-2     :     0.000000
      g+3     :     0.000001
      g-3     :     0.000001
      g+4     :    -0.000000
      g-4     :    -0.000000
  1 O s       :     0.004649  s :     0.004649
      pz      :     0.008382  p :     0.814275
      px      :     0.004590
      py      :     0.801303
      dz2     :    -0.000795  d :     0.000876
      dxz     :    -0.000015
      dyz     :     0.001426
      dx2y2   :     0.000260
      dxy     :     0.000000
      f0      :    -0.000621  f :     0.000192
      f+1     :     0.000078
      f-1     :     0.000538
      f+2     :     0.000037
      f-2     :     0.000000
      f+3     :     0.000082
      f-3     :     0.000078
      g0      :    -0.000022  g :     0.000114
      g+1     :     0.000005
      g-1     :     0.000132
      g+2     :    -0.000000
      g-2     :    -0.000000
      g+3     :     0.000000
      g-3     :     0.000000
      g+4     :    -0.000001
      g-4     :    -0.000000
      h0      :     0.000003  h :     0.000094
      h+1     :     0.000001
      h-1     :     0.000090
      h+2     :    -0.000000
      h-2     :    -0.000000
      h+3     :     0.000000
      h-3     :     0.000000
      h+4     :    -0.000000
      h-4     :    -0.000000
      h+5     :    -0.000000
      h-5     :     0.000000


                      *****************************
                      * MAYER POPULATION ANALYSIS *
                      *****************************

  NA   - Mulliken gross atomic population
  ZA   - Total nuclear charge
  QA   - Mulliken gross atomic charge
  VA   - Mayer's total valence
  BVA  - Mayer's bonded valence
  FA   - Mayer's free valence

  ATOM       NA         ZA         QA         VA         BVA        FA
  0 H      0.7725     1.0000     0.2275     1.0070     1.0066     0.0004
  1 O      8.2275     8.0000    -0.2275     1.9736     1.0066     0.9670

  Mayer bond orders larger than 0.1
B(  0-H ,  1-O ) :   1.0066 

-------
TIMINGS
-------

Total SCF time: 0 days 0 hours 1 min 21 sec 

Total time                  ....      81.599 sec
Sum of individual times     ....      81.155 sec  ( 99.5%)

Fock matrix formation       ....      80.168 sec  ( 98.2%)
  XC integration            ....       3.455 sec  (  4.3% of F)
    Basis function eval.    ....       0.264 sec  (  7.6% of XC)
    Density eval.           ....       0.605 sec  ( 17.5% of XC)
    XC-Functional eval.     ....       0.064 sec  (  1.8% of XC)
    XC-Potential eval.      ....       2.070 sec  ( 59.9% of XC)
Diagonalization             ....       0.327 sec  (  0.4%)
Density matrix formation    ....       0.007 sec  (  0.0%)
Population analysis         ....       0.058 sec  (  0.1%)
Initial guess               ....       0.241 sec  (  0.3%)
Orbital Transformation      ....       0.000 sec  (  0.0%)
Orbital Orthonormalization  ....       0.000 sec  (  0.0%)
DIIS solution               ....       0.191 sec  (  0.2%)
Grid generation             ....       0.162 sec  (  0.2%)

-------------------------   --------------------
FINAL SINGLE POINT ENERGY       -75.696954998237
-------------------------   --------------------


                            ***************************************
                            *     ORCA property calculations      *
                            ***************************************

                                    ---------------------
                                    Active property flags
                                    ---------------------
   (+) Dipole Moment


------------------------------------------------------------------------------
                       ORCA ELECTRIC PROPERTIES CALCULATION
------------------------------------------------------------------------------

Dipole Moment Calculation                       ... on
Quadrupole Moment Calculation                   ... off
Polarizability Calculation                      ... off
GBWName                                         ... oh_pbe_-001_z.gbw
Electron density file                           ... oh_pbe_-001_z.scfp.tmp
The origin for moment calculation is the CENTER OF MASS  = ( 0.000000,  0.000000  1.723858)

-------------
DIPOLE MOMENT
-------------
                                X             Y             Z
Electronic contribution:     -0.00000       0.00000       0.13552
Nuclear contribution   :      0.00000       0.00000      -0.85498
                        -----------------------------------------
Total Dipole Moment    :     -0.00000       0.00000      -0.71946
                        -----------------------------------------
Magnitude (a.u.)       :      0.71946
Magnitude (Debye)      :      1.82872



--------------------
Rotational spectrum 
--------------------
 
Rotational constants in cm-1:     0.000000    18.905861    18.905861 
Rotational constants in MHz :     0.000000 566783.441526 566783.441526 

 Dipole components along the rotational axes: 
x,y,z [a.u.] :    -0.719461     0.000000    -0.000000 
x,y,z [Debye]:    -1.828724     0.000000    -0.000000 

 

Timings for individual modules:

Sum of individual times         ...       82.795 sec (=   1.380 min)
GTO integral calculation        ...        0.827 sec (=   0.014 min)   1.0 %
SCF iterations                  ...       81.968 sec (=   1.366 min)  99.0 %
                             ****ORCA TERMINATED NORMALLY****
TOTAL RUN TIME: 0 days 0 hours 1 minutes 23 seconds 574 msec
