
                                 *****************
                                 * O   R   C   A *
                                 *****************

           --- An Ab Initio, DFT and Semiempirical electronic structure package ---

                  #######################################################
                  #                        -***-                        #
                  #          Department of theory and spectroscopy      #
                  #               Directorship: Frank Neese             #
                  #        Max Planck Institute fuer Kohlenforschung    #
                  #                Kaiser Wilhelm Platz 1               #
                  #                 D-45470 Muelheim/Ruhr               #
                  #                      Germany                        #
                  #                                                     #
                  #                  All rights reserved                #
                  #                        -***-                        #
                  #######################################################


                         Program Version 4.1.1  - RELEASE  -


 With contributions from (in alphabetic order):
   Daniel Aravena         : Magnetic Properties
   Michael Atanasov       : Ab Initio Ligand Field Theory
   Alexander A. Auer      : GIAO ZORA
   Ute Becker             : Parallelization
   Giovanni Bistoni       : ED, Open-shell LED
   Martin Brehm           : Molecular dynamics
   Dmytro Bykov           : SCF Hessian
   Vijay G. Chilkuri      : MRCI spin determinant printing
   Dipayan Datta          : RHF DLPNO-CCSD density
   Achintya Kumar Dutta   : EOM-CC, STEOM-CC
   Dmitry Ganyushin       : Spin-Orbit,Spin-Spin,Magnetic field MRCI
   Miquel Garcia          : C-PCM Hessian
   Yang Guo               : DLPNO-NEVPT2, CIM, IAO-localization
   Andreas Hansen         : Spin unrestricted coupled pair/coupled cluster methods
   Benjamin Helmich-Paris : CASSCF linear response (MC-RPA)
   Lee Huntington         : MR-EOM, pCC
   Robert Izsak           : Overlap fitted RIJCOSX, COSX-SCS-MP3, EOM
   Christian Kollmar      : KDIIS, OOCD, Brueckner-CCSD(T), CCSD density
   Simone Kossmann        : Meta GGA functionals, TD-DFT gradient, OOMP2, MP2 Hessian
   Martin Krupicka        : AUTO-CI
   Lucas Lang             : DCDCAS
   Dagmar Lenk            : GEPOL surface, SMD
   Dimitrios Liakos       : Extrapolation schemes; parallel MDCI
   Dimitrios Manganas     : ROCIS; embedding schemes
   Dimitrios Pantazis     : SARC Basis sets
   Taras Petrenko         : DFT Hessian,TD-DFT gradient, ASA, ECA, R-Raman, ABS, FL, XAS/XES, NRVS
   Peter Pinski           : DLPNO-MP2, DLPNO-MP2 Gradient
   Christoph Reimann      : Effective Core Potentials
   Marius Retegan         : Local ZFS, SOC
   Christoph Riplinger    : Optimizer, TS searches, QM/MM, DLPNO-CCSD(T), (RO)-DLPNO pert. Triples
   Tobias Risthaus        : Range-separated hybrids, TD-DFT gradient, RPA, STAB
   Michael Roemelt        : Restricted open shell CIS
   Masaaki Saitow         : Open-shell DLPNO
   Barbara Sandhoefer     : DKH picture change effects
   Avijit Sen             : IP-ROCIS
   Kantharuban Sivalingam : CASSCF convergence, NEVPT2, FIC-MRCI
   Bernardo de Souza      : ESD, SOC TD-DFT
   Georgi Stoychev        : AutoAux, RI-MP2 NMR
   Willem Van den Heuvel  : Paramagnetic NMR
   Boris Wezisla          : Elementary symmetry handling
   Frank Wennmohs         : Technical directorship


 We gratefully acknowledge several colleagues who have allowed us to
 interface, adapt or use parts of their codes:
   Stefan Grimme, W. Hujo, H. Kruse,             : VdW corrections, initial TS optimization,
                  C. Bannwarth                     DFT functionals, gCP, sTDA/sTD-DF
   Ed Valeev                                     : LibInt (2-el integral package), F12 methods
   Garnet Chan, S. Sharma, J. Yang, R. Olivares  : DMRG
   Ulf Ekstrom                                   : XCFun DFT Library
   Mihaly Kallay                                 : mrcc  (arbitrary order and MRCC methods)
   Andreas Klamt, Michael Diedenhofen            : otool_cosmo (COSMO solvation model)
   Jiri Pittner, Ondrej Demel                    : Mk-CCSD
   Frank Weinhold                                : gennbo (NPA and NBO analysis)
   Christopher J. Cramer and Donald G. Truhlar   : smd solvation model
   Lars Goerigk                                  : TD-DFT with DH, B97 family of functionals
   V. Asgeirsson, H. Jonsson                     : NEB implementation
   FAccTs GmbH                                   : IRC, NEB, NEB-TS, Multilevel


 Your calculation uses the libint2 library for the computation of 2-el integrals
 For citations please refer to: http://libint.valeyev.net

 This ORCA versions uses:
   CBLAS   interface :  Fast vector & matrix operations
   LAPACKE interface :  Fast linear algebra routines
   SCALAPACK package :  Parallel linear algebra routines


----- Orbital basis set information -----
Your calculation utilizes the basis: aug-pc-4
   H, C-F              : F. Jensen, J. Chem. Phys. 115, 9113 (2001).
                         F. Jensen, J. Chem. Phys. 116, 7372 (2002).
                         F. Jensen, J. Chem. Phys. 117, 9234 (2002).
   Si-Cl               : F. Jensen, T. Helgaker, J. Chem. Phys. 121, 3463 (2004).
   He-B, Ne-Mg, Al, Ar : F. Jensen, J. Phys. Chem. A 111, 11198 (2007).
   K, Ca, Ga-Kr        : F. Jensen, J. Chem. Phys. 136, 094110 (2012).
   Sc-Zn               : F. Jensen, J. Chem. Phys. 138, 014107 (2013).

================================================================================
                                        WARNINGS
                       Please study these warnings very carefully!
================================================================================


INFO   : the flag for use of LIBINT has been found!

================================================================================
                                       INPUT FILE
================================================================================
NAME = oh_pbe_+001_z.inp
|  1> ! uks pbe nori aug-pc-4 grid5 nofinalgrid verytightscf
|  2> 
|  3> %maxcore 1500
|  4> 
|  5> %pal nprocs 4 end
|  6> %scf
|  7>     efield 0.0, 0.0, 0.01
|  8>     maxiter 300
|  9> end
| 10> * xyz 0 2
| 11> H 0 0 0
| 12> O 0 0 0.9697
| 13> *
| 14> 
| 15>                          ****END OF INPUT****
================================================================================

                       ****************************
                       * Single Point Calculation *
                       ****************************

---------------------------------
CARTESIAN COORDINATES (ANGSTROEM)
---------------------------------
  H      0.000000    0.000000    0.000000
  O      0.000000    0.000000    0.969700

----------------------------
CARTESIAN COORDINATES (A.U.)
----------------------------
  NO LB      ZA    FRAG     MASS         X           Y           Z
   0 H     1.0000    0     1.008    0.000000    0.000000    0.000000
   1 O     8.0000    0    15.999    0.000000    0.000000    1.832467

--------------------------------
INTERNAL COORDINATES (ANGSTROEM)
--------------------------------
 H      0   0   0     0.000000000000     0.00000000     0.00000000
 O      1   0   0     0.969700000000     0.00000000     0.00000000

---------------------------
INTERNAL COORDINATES (A.U.)
---------------------------
 H      0   0   0     0.000000000000     0.00000000     0.00000000
 O      1   0   0     1.832467432063     0.00000000     0.00000000

---------------------
BASIS SET INFORMATION
---------------------
There are 2 groups of distinct atoms

 Group   1 Type H   : 12s7p4d3f2g contracted to 8s7p4d3f2g pattern {51111111/1111111/1111/111/11}
 Group   2 Type O   : 27s12p7d4f3g2h contracted to 9s8p7d4f3g2h pattern {1191111111/51111111/1111111/1111/111/11}

Atom   0H    basis set group =>   1
Atom   1O    basis set group =>   2


           ************************************************************
           *        Program running with 4 parallel MPI-processes     *
           *              working on a common directory               *
           ************************************************************
------------------------------------------------------------------------------
                           ORCA GTO INTEGRAL CALCULATION
------------------------------------------------------------------------------

                         BASIS SET STATISTICS AND STARTUP INFO

 # of primitive gaussian shells          ...   83
 # of primitive gaussian functions       ...  267
 # of contracted shells                  ...   57
 # of contracted basis functions         ...  233
 Highest angular momentum                ...    5
 Maximum contraction depth               ...   11
 Integral package used                   ... LIBINT
 Integral threshhold            Thresh   ...  1.000e-12
 Primitive cut-off              TCut     ...  1.000e-14


------------------------------ INTEGRAL EVALUATION ----------------------------


 * One electron integrals 
 Pre-screening matrix                    ... done
 Shell pair data                         ... done (   0.000 sec)


An Electric Field will be added: 0.000e+00 0.000e+00 1.000e-02 au

  ... done adding electric field perturbation



           ************************************************************
           *        Program running with 4 parallel MPI-processes     *
           *              working on a common directory               *
           ************************************************************
-------------------------------------------------------------------------------
                                 ORCA SCF
-------------------------------------------------------------------------------

------------
SCF SETTINGS
------------
Hamiltonian:
 Density Functional     Method          .... DFT(GTOs)
 Exchange Functional    Exchange        .... PBE
   PBE kappa parameter   XKappa         ....  0.804000
   PBE mue parameter    XMuePBE         ....  0.219520
 Correlation Functional Correlation     .... PBE
   PBE beta parameter  CBetaPBE         ....  0.066725
 LDA part of GGA corr.  LDAOpt          .... PW91-LDA
 Gradients option       PostSCFGGA      .... off
   Density functional embedding theory  .... OFF
   NL short-range parameter             ....  6.400000


General Settings:
 Integral files         IntName         .... oh_pbe_+001_z
 Hartree-Fock type      HFTyp           .... UHF
 Total Charge           Charge          ....    0
 Multiplicity           Mult            ....    2
 Number of Electrons    NEL             ....    9
 Basis Dimension        Dim             ....  233
 Nuclear Repulsion      ENuc            ....      4.3656983257 Eh

Convergence Acceleration:
 DIIS                   CNVDIIS         .... on
   Start iteration      DIISMaxIt       ....    12
   Startup error        DIISStart       ....  0.200000
   # of expansion vecs  DIISMaxEq       ....     5
   Bias factor          DIISBfac        ....   1.050
   Max. coefficient     DIISMaxC        ....  10.000
 Newton-Raphson         CNVNR           .... off
 SOSCF                  CNVSOSCF        .... off
 Level Shifting         CNVShift        .... on
   Level shift para.    LevelShift      ....    0.2500
   Turn off err/grad.   ShiftErr        ....    0.0010
 Zerner damping         CNVZerner       .... off
 Static damping         CNVDamp         .... on
   Fraction old density DampFac         ....    0.7000
   Max. Damping (<1)    DampMax         ....    0.9800
   Min. Damping (>=0)   DampMin         ....    0.0000
   Turn off err/grad.   DampErr         ....    0.1000
 Fernandez-Rico         CNVRico         .... off

SCF Procedure:
 Maximum # iterations   MaxIter         ....   300
 SCF integral mode      SCFMode         .... Direct
   Integral package                     .... LIBINT
 Reset frequency        DirectResetFreq ....    20
 Integral Threshold     Thresh          ....  1.000e-12 Eh
 Primitive CutOff       TCut            ....  1.000e-14 Eh

Convergence Tolerance:
 Convergence Check Mode ConvCheckMode   .... Total+1el-Energy
 Convergence forced     ConvForced      .... 0
 Energy Change          TolE            ....  1.000e-09 Eh
 1-El. energy change                    ....  1.000e-06 Eh
 DIIS Error             TolErr          ....  1.000e-08


Diagonalization of the overlap matrix:
Smallest eigenvalue                        ... 2.891e-06
Time for diagonalization                   ...    0.010 sec
Threshold for overlap eigenvalues          ... 1.000e-08
Number of eigenvalues below threshold      ... 0
Time for construction of square roots      ...    0.010 sec
Total time needed                          ...    0.020 sec

-------------------
DFT GRID GENERATION
-------------------

General Integration Accuracy     IntAcc      ...  5.010
Radial Grid Type                 RadialGrid  ... Gauss-Chebyshev
Angular Grid (max. acc.)         AngularGrid ... Lebedev-434
Angular grid pruning method      GridPruning ... 3 (G Style)
Weight generation scheme         WeightScheme... Becke
Basis function cutoff            BFCut       ...    1.0000e-12
Integration weight cutoff        WCut        ...    1.0000e-14
Grids for H and He will be reduced by one unit

# of grid points (after initial pruning)     ...  17534 (   0.0 sec)
# of grid points (after weights+screening)   ...  17493 (   0.0 sec)
nearest neighbour list constructed           ...    0.0 sec
Grid point re-assignment to atoms done       ...    0.0 sec
Grid point division into batches done        ...    0.1 sec
Reduced shell lists constructed in    0.2 sec

Total number of grid points                  ...    17493
Total number of batches                      ...      274
Average number of points per batch           ...       63
Average number of grid points per atom       ...     8746
Average number of shells per batch           ...    38.29 (67.17%)
Average number of basis functions per batch  ...   160.57 (68.91%)
Average number of large shells per batch     ...    34.01 (88.84%)
Average number of large basis fcns per batch ...   144.93 (90.26%)
Maximum spatial batch extension              ...  16.29, 16.29, 13.24 au
Average spatial batch extension              ...   1.36,  1.36,  1.16 au

Time for grid setup =    0.174 sec

------------------------------
INITIAL GUESS: MODEL POTENTIAL
------------------------------
Loading Hartree-Fock densities                     ... done
Calculating cut-offs                               ... done
Setting up the integral package                    ... done
Initializing the effective Hamiltonian             ... done
Starting the Coulomb interaction                   ... done (   0.0 sec)
Reading the grid                                   ... done
Mapping shells                                     ... done
Starting the XC term evaluation                    ... done (   0.1 sec)
  promolecular density results
     # of electrons  =      8.999510835
     EX              =     -8.368263018
     EC              =     -0.280196006
     EX+EC           =     -8.648459024
Transforming the Hamiltonian                       ... done (   0.0 sec)
Diagonalizing the Hamiltonian                      ... done (   0.0 sec)
Back transforming the eigenvectors                 ... done (   0.0 sec)
Now organizing SCF variables                       ... done
                      ------------------
                      INITIAL GUESS DONE (   0.5 sec)
                      ------------------
--------------
SCF ITERATIONS
--------------
ITER       Energy         Delta-E        Max-DP      RMS-DP      [F,P]     Damp
               ***  Starting incremental Fock matrix formation  ***
  0    -75.6639353519   0.000000000000 0.00904955  0.00011358  0.1393874 0.7000
  1    -75.6736446517  -0.009709299781 0.00560450  0.00008473  0.0572484 0.7000
                               ***Turning on DIIS***
  2    -75.6769606756  -0.003316023897 0.00875479  0.00013905  0.0178435 0.0000
  3    -75.6832217037  -0.006261028120 0.00295350  0.00005241  0.0347514 0.0000
  4    -75.6843728793  -0.001151175605 0.00144207  0.00002229  0.0030911 0.0000
  5    -75.6844104476  -0.000037568346 0.00043411  0.00000611  0.0005816 0.0000
  6    -75.6844146538  -0.000004206141 0.00012022  0.00000158  0.0003726 0.0000
  7    -75.6844149169  -0.000000263075 0.00002397  0.00000032  0.0000510 0.0000
  8    -75.6844149367  -0.000000019848 0.00000568  0.00000011  0.0000052 0.0000
  9    -75.6844149389  -0.000000002147 0.00000155  0.00000003  0.0000015 0.0000
 10    -75.6844149390  -0.000000000157 0.00000051  0.00000001  0.0000009 0.0000
                 **** Energy Check signals convergence ****

               *****************************************************
               *                     SUCCESS                       *
               *           SCF CONVERGED AFTER  11 CYCLES          *
               *****************************************************


----------------
TOTAL SCF ENERGY
----------------

Total Energy       :          -75.68441494 Eh           -2059.47763 eV

Components:
Nuclear Repulsion  :            4.36569833 Eh             118.79669 eV
Electronic Energy  :          -80.05011326 Eh           -2178.27432 eV
One Electron Energy:         -112.57599009 Eh           -3063.34843 eV
Two Electron Energy:           32.52587682 Eh             885.07410 eV

Virial components:
Potential Energy   :         -151.16406517 Eh           -4113.38333 eV
Kinetic Energy     :           75.47965023 Eh            2053.90570 eV
Virial Ratio       :            2.00271285


DFT components:
N(Alpha)           :        5.000000091166 electrons
N(Beta)            :        4.000000100075 electrons
N(Total)           :        9.000000191240 electrons
E(X)               :       -8.516455407887 Eh       
E(C)               :       -0.278975292848 Eh       
E(XC)              :       -8.795430700735 Eh       
DFET-embed. en.    :        0.000000000000 Eh       

---------------
SCF CONVERGENCE
---------------

  Last Energy change         ...   -9.8623e-12  Tolerance :   1.0000e-09
  Last MAX-Density change    ...    8.9442e-08  Tolerance :   1.0000e-08
  Last RMS-Density change    ...    1.5728e-09  Tolerance :   1.0000e-09
  Last DIIS Error            ...    7.4976e-08  Tolerance :   1.0000e-08

             **** THE GBW FILE WAS UPDATED (oh_pbe_+001_z.gbw) ****
             **** DENSITY FILE WAS UPDATED (oh_pbe_+001_z.scfp.tmp) ****
             **** ENERGY FILE WAS UPDATED (oh_pbe_+001_z.en.tmp) ****
----------------------
UHF SPIN CONTAMINATION
----------------------

Warning: in a DFT calculation there is little theoretical justification to 
         calculate <S**2> as in Hartree-Fock theory. We will do it anyways
         but you should keep in mind that the values have only limited relevance

Expectation value of <S**2>     :     0.752346
Ideal value S*(S+1) for S=0.5   :     0.750000
Deviation                       :     0.002346

----------------
ORBITAL ENERGIES
----------------
                 SPIN UP ORBITALS
  NO   OCC          E(Eh)            E(eV) 
   0   1.0000     -18.831366      -512.4275 
   1   1.0000      -0.938808       -25.5463 
   2   1.0000      -0.431904       -11.7527 
   3   1.0000      -0.368925       -10.0390 
   4   1.0000      -0.295758        -8.0480 
   5   0.0000      -0.062765        -1.7079 
   6   0.0000      -0.007349        -0.2000 
   7   0.0000       0.018921         0.5149 
   8   0.0000       0.021105         0.5743 
   9   0.0000       0.038172         1.0387 
  10   0.0000       0.090522         2.4632 
  11   0.0000       0.091013         2.4766 
  12   0.0000       0.101435         2.7602 
  13   0.0000       0.110609         3.0098 
  14   0.0000       0.125073         3.4034 
  15   0.0000       0.125203         3.4070 
  16   0.0000       0.154985         4.2173 
  17   0.0000       0.155711         4.2371 
  18   0.0000       0.163893         4.4597 
  19   0.0000       0.200558         5.4575 
  20   0.0000       0.202406         5.5078 
  21   0.0000       0.202983         5.5234 
  22   0.0000       0.227692         6.1958 
  23   0.0000       0.227944         6.2027 
  24   0.0000       0.233989         6.3672 
  25   0.0000       0.237293         6.4571 
  26   0.0000       0.254832         6.9343 
  27   0.0000       0.254852         6.9349 
  28   0.0000       0.261354         7.1118 
  29   0.0000       0.293855         7.9962 
  30   0.0000       0.352457         9.5908 
  31   0.0000       0.366545         9.9742 
  32   0.0000       0.366685         9.9780 
  33   0.0000       0.366793         9.9809 
  34   0.0000       0.368771        10.0348 
  35   0.0000       0.437743        11.9116 
  36   0.0000       0.439269        11.9531 
  37   0.0000       0.441730        12.0201 
  38   0.0000       0.443220        12.0606 
  39   0.0000       0.443249        12.0614 
  40   0.0000       0.458341        12.4721 
  41   0.0000       0.461430        12.5561 
  42   0.0000       0.461437        12.5563 
  43   0.0000       0.477392        12.9905 
  44   0.0000       0.481341        13.0980 
  45   0.0000       0.525111        14.2890 
  46   0.0000       0.530435        14.4339 
  47   0.0000       0.534028        14.5316 
  48   0.0000       0.539246        14.6736 
  49   0.0000       0.552343        15.0300 
  50   0.0000       0.552667        15.0388 
  51   0.0000       0.575300        15.6547 
  52   0.0000       0.575308        15.6549 
  53   0.0000       0.583993        15.8913 
  54   0.0000       0.592664        16.1272 
  55   0.0000       0.617173        16.7941 
  56   0.0000       0.623098        16.9554 
  57   0.0000       0.656822        17.8730 
  58   0.0000       0.671124        18.2622 
  59   0.0000       0.671493        18.2723 
  60   0.0000       0.726837        19.7782 
  61   0.0000       0.726838        19.7783 
  62   0.0000       0.730654        19.8821 
  63   0.0000       0.730659        19.8822 
  64   0.0000       0.800879        21.7930 
  65   0.0000       0.827918        22.5288 
  66   0.0000       0.836837        22.7715 
  67   0.0000       0.851628        23.1740 
  68   0.0000       0.851854        23.1801 
  69   0.0000       0.899812        24.4851 
  70   0.0000       0.899812        24.4851 
  71   0.0000       0.900113        24.4933 
  72   0.0000       0.960815        26.1451 
  73   0.0000       0.969462        26.3804 
  74   0.0000       0.986387        26.8410 
  75   0.0000       0.998714        27.1764 
  76   0.0000       1.006747        27.3950 
  77   0.0000       1.008876        27.4529 
  78   0.0000       1.009305        27.4646 
  79   0.0000       1.040401        28.3108 
  80   0.0000       1.040405        28.3109 
  81   0.0000       1.040754        28.3204 
  82   0.0000       1.040768        28.3207 
  83   0.0000       1.146293        31.1922 
  84   0.0000       1.198674        32.6176 
  85   0.0000       1.199613        32.6431 
  86   0.0000       1.260708        34.3056 
  87   0.0000       1.281578        34.8735 
  88   0.0000       1.291277        35.1374 
  89   0.0000       1.351418        36.7740 
  90   0.0000       1.509888        41.0861 
  91   0.0000       1.529966        41.6325 
  92   0.0000       1.699515        46.2461 
  93   0.0000       1.700514        46.2733 
  94   0.0000       1.747756        47.5588 
  95   0.0000       1.756881        47.8072 
  96   0.0000       1.776386        48.3379 
  97   0.0000       1.790438        48.7203 
  98   0.0000       1.837248        49.9941 
  99   0.0000       1.837505        50.0011 
 100   0.0000       2.091840        56.9219 
 101   0.0000       2.120392        57.6988 
 102   0.0000       2.198128        59.8141 
 103   0.0000       2.227325        60.6086 
 104   0.0000       2.230743        60.7016 
 105   0.0000       2.464508        67.0627 
 106   0.0000       2.642874        71.9163 
 107   0.0000       2.662665        72.4548 
 108   0.0000       2.910893        79.2094 
 109   0.0000       3.021486        82.2188 
 110   0.0000       3.021680        82.2241 
 111   0.0000       3.244306        88.2821 
 112   0.0000       3.259975        88.7084 
 113   0.0000       3.266908        88.8971 
 114   0.0000       3.448523        93.8391 
 115   0.0000       3.465130        94.2910 
 116   0.0000       3.629011        98.7504 
 117   0.0000       3.666718        99.7765 
 118   0.0000       3.666736        99.7770 
 119   0.0000       3.932820       107.0175 
 120   0.0000       3.933460       107.0349 
 121   0.0000       3.939798       107.2074 
 122   0.0000       4.091282       111.3294 
 123   0.0000       4.136755       112.5668 
 124   0.0000       4.277545       116.3979 
 125   0.0000       4.277720       116.4027 
 126   0.0000       4.434404       120.6663 
 127   0.0000       4.435728       120.7023 
 128   0.0000       4.486967       122.0966 
 129   0.0000       4.881566       132.8342 
 130   0.0000       5.039782       137.1394 
 131   0.0000       5.039815       137.1403 
 132   0.0000       5.290081       143.9504 
 133   0.0000       5.319198       144.7427 
 134   0.0000       5.390527       146.6837 
 135   0.0000       5.408475       147.1721 
 136   0.0000       5.433236       147.8459 
 137   0.0000       5.895590       160.4272 
 138   0.0000       5.895630       160.4282 
 139   0.0000       6.018530       163.7725 
 140   0.0000       6.178423       168.1234 
 141   0.0000       6.179655       168.1570 
 142   0.0000       6.205668       168.8648 
 143   0.0000       6.236832       169.7128 
 144   0.0000       6.730521       183.1468 
 145   0.0000       7.130679       194.0357 
 146   0.0000       7.133974       194.1253 
 147   0.0000       7.305605       198.7956 
 148   0.0000       7.354541       200.1272 
 149   0.0000       7.389967       201.0912 
 150   0.0000       8.268117       224.9869 
 151   0.0000       8.282388       225.3752 
 152   0.0000       8.708938       236.9823 
 153   0.0000       8.708950       236.9826 
 154   0.0000       9.166421       249.4310 
 155   0.0000       9.183935       249.9076 
 156   0.0000       9.185648       249.9542 
 157   0.0000       9.212450       250.6835 
 158   0.0000       9.600536       261.2439 
 159   0.0000       9.824556       267.3397 
 160   0.0000      10.340724       281.3854 
 161   0.0000      10.382358       282.5183 
 162   0.0000      10.616226       288.8822 
 163   0.0000      10.990995       299.0802 
 164   0.0000      11.064044       301.0680 
 165   0.0000      11.252350       306.1920 
 166   0.0000      11.639232       316.7196 
 167   0.0000      11.639466       316.7260 
 168   0.0000      11.707330       318.5727 
 169   0.0000      11.707355       318.5733 
 170   0.0000      11.950736       325.1961 
 171   0.0000      11.950746       325.1963 
 172   0.0000      11.962082       325.5048 
 173   0.0000      11.974545       325.8439 
 174   0.0000      11.974553       325.8441 
 175   0.0000      12.388175       337.0994 
 176   0.0000      12.470066       339.3278 
 177   0.0000      12.470486       339.3392 
 178   0.0000      12.548324       341.4573 
 179   0.0000      12.584479       342.4411 
 180   0.0000      12.594566       342.7156 
 181   0.0000      12.594634       342.7174 
 182   0.0000      12.730728       346.4207 
 183   0.0000      12.733846       346.5056 
 184   0.0000      13.686627       372.4321 
 185   0.0000      13.728036       373.5588 
 186   0.0000      13.730125       373.6157 
 187   0.0000      14.308741       389.3606 
 188   0.0000      14.309418       389.3791 
 189   0.0000      15.383476       418.6057 
 190   0.0000      16.662729       453.4159 
 191   0.0000      16.662740       453.4162 
 192   0.0000      16.936889       460.8762 
 193   0.0000      16.936916       460.8769 
 194   0.0000      16.944521       461.0839 
 195   0.0000      16.944712       461.0890 
 196   0.0000      16.960194       461.5103 
 197   0.0000      16.993663       462.4211 
 198   0.0000      17.030943       463.4355 
 199   0.0000      17.367798       472.6018 
 200   0.0000      17.411842       473.8003 
 201   0.0000      17.615500       479.3421 
 202   0.0000      17.615875       479.3523 
 203   0.0000      17.640553       480.0239 
 204   0.0000      17.640605       480.0253 
 205   0.0000      18.864995       513.3426 
 206   0.0000      19.656197       534.8723 
 207   0.0000      19.656264       534.8741 
 208   0.0000      20.548034       559.1404 
 209   0.0000      20.852428       567.4234 
 210   0.0000      20.883944       568.2810 
 211   0.0000      22.773591       619.7009 
 212   0.0000      22.774002       619.7121 
 213   0.0000      23.422172       637.3497 
 214   0.0000      23.445464       637.9835 
 215   0.0000      23.604876       642.3213 
 216   0.0000      23.646691       643.4592 
 217   0.0000      26.559536       722.7217 
 218   0.0000      26.956247       733.5168 
 219   0.0000      30.350957       825.8915 
 220   0.0000      31.760425       864.2451 
 221   0.0000      31.820967       865.8925 
 222   0.0000      33.942855       923.6320 
 223   0.0000      41.006751      1115.8504 
 224   0.0000      66.400453      1806.8482 
 225   0.0000      66.400772      1806.8569 
 226   0.0000      66.803093      1817.8046 
 227   0.0000      66.845914      1818.9698 
 228   0.0000      68.559970      1865.6116 
 229   0.0000      90.881522      2473.0120 
 230   0.0000      90.883650      2473.0699 
 231   0.0000      93.378046      2540.9458 
 232   0.0000     142.829689      3886.5934 

                 SPIN DOWN ORBITALS
  NO   OCC          E(Eh)            E(eV) 
   0   1.0000     -18.807703      -511.7836 
   1   1.0000      -0.881209       -23.9789 
   2   1.0000      -0.408768       -11.1231 
   3   1.0000      -0.273092        -7.4312 
   4   0.0000      -0.238780        -6.4975 
   5   0.0000      -0.060551        -1.6477 
   6   0.0000      -0.004563        -0.1242 
   7   0.0000       0.020854         0.5675 
   8   0.0000       0.026265         0.7147 
   9   0.0000       0.040784         1.1098 
  10   0.0000       0.090139         2.4528 
  11   0.0000       0.092492         2.5168 
  12   0.0000       0.102332         2.7846 
  13   0.0000       0.113367         3.0849 
  14   0.0000       0.127558         3.4710 
  15   0.0000       0.130201         3.5430 
  16   0.0000       0.159805         4.3485 
  17   0.0000       0.165937         4.5154 
  18   0.0000       0.174794         4.7564 
  19   0.0000       0.201737         5.4895 
  20   0.0000       0.201985         5.4963 
  21   0.0000       0.205722         5.5980 
  22   0.0000       0.231350         6.2954 
  23   0.0000       0.234085         6.3698 
  24   0.0000       0.236681         6.4404 
  25   0.0000       0.239733         6.5235 
  26   0.0000       0.258023         7.0212 
  27   0.0000       0.259202         7.0532 
  28   0.0000       0.263990         7.1835 
  29   0.0000       0.297402         8.0927 
  30   0.0000       0.353781         9.6269 
  31   0.0000       0.367296         9.9946 
  32   0.0000       0.368253        10.0207 
  33   0.0000       0.369133        10.0446 
  34   0.0000       0.373286        10.1576 
  35   0.0000       0.444595        12.0980 
  36   0.0000       0.444660        12.0998 
  37   0.0000       0.446466        12.1490 
  38   0.0000       0.446999        12.1635 
  39   0.0000       0.447958        12.1896 
  40   0.0000       0.464183        12.6311 
  41   0.0000       0.467541        12.7224 
  42   0.0000       0.468668        12.7531 
  43   0.0000       0.480841        13.0844 
  44   0.0000       0.484883        13.1943 
  45   0.0000       0.533416        14.5150 
  46   0.0000       0.537006        14.6127 
  47   0.0000       0.541117        14.7246 
  48   0.0000       0.549280        14.9467 
  49   0.0000       0.558298        15.1920 
  50   0.0000       0.560704        15.2575 
  51   0.0000       0.576815        15.6959 
  52   0.0000       0.577346        15.7104 
  53   0.0000       0.585971        15.9451 
  54   0.0000       0.597010        16.2455 
  55   0.0000       0.623906        16.9773 
  56   0.0000       0.631402        17.1813 
  57   0.0000       0.661895        18.0111 
  58   0.0000       0.677983        18.4489 
  59   0.0000       0.680836        18.5265 
  60   0.0000       0.734678        19.9916 
  61   0.0000       0.735386        20.0109 
  62   0.0000       0.737308        20.0632 
  63   0.0000       0.738494        20.0954 
  64   0.0000       0.805850        21.9283 
  65   0.0000       0.838111        22.8061 
  66   0.0000       0.844097        22.9690 
  67   0.0000       0.860629        23.4189 
  68   0.0000       0.863335        23.4925 
  69   0.0000       0.904750        24.6195 
  70   0.0000       0.909152        24.7393 
  71   0.0000       0.909627        24.7522 
  72   0.0000       0.969596        26.3840 
  73   0.0000       0.974776        26.5250 
  74   0.0000       0.989982        26.9388 
  75   0.0000       1.007597        27.4181 
  76   0.0000       1.013003        27.5652 
  77   0.0000       1.013068        27.5670 
  78   0.0000       1.016057        27.6483 
  79   0.0000       1.045381        28.4463 
  80   0.0000       1.046473        28.4760 
  81   0.0000       1.048093        28.5201 
  82   0.0000       1.048888        28.5417 
  83   0.0000       1.153999        31.4019 
  84   0.0000       1.206561        32.8322 
  85   0.0000       1.208290        32.8793 
  86   0.0000       1.280549        34.8455 
  87   0.0000       1.289841        35.0983 
  88   0.0000       1.293026        35.1850 
  89   0.0000       1.354305        36.8525 
  90   0.0000       1.533898        41.7395 
  91   0.0000       1.544220        42.0204 
  92   0.0000       1.738899        47.3178 
  93   0.0000       1.746975        47.5376 
  94   0.0000       1.768605        48.1262 
  95   0.0000       1.783938        48.5434 
  96   0.0000       1.796211        48.8774 
  97   0.0000       1.801344        49.0171 
  98   0.0000       1.869448        50.8703 
  99   0.0000       1.870652        50.9030 
 100   0.0000       2.125657        57.8421 
 101   0.0000       2.136142        58.1274 
 102   0.0000       2.217016        60.3281 
 103   0.0000       2.248135        61.1749 
 104   0.0000       2.251807        61.2748 
 105   0.0000       2.471551        67.2543 
 106   0.0000       2.664404        72.5021 
 107   0.0000       2.670156        72.6586 
 108   0.0000       2.931029        79.7573 
 109   0.0000       3.028093        82.3986 
 110   0.0000       3.029453        82.4356 
 111   0.0000       3.257716        88.6469 
 112   0.0000       3.260504        88.7228 
 113   0.0000       3.276339        89.1537 
 114   0.0000       3.465148        94.2915 
 115   0.0000       3.470196        94.4288 
 116   0.0000       3.645034        99.1864 
 117   0.0000       3.675391       100.0125 
 118   0.0000       3.675469       100.0146 
 119   0.0000       3.966502       107.9340 
 120   0.0000       3.994938       108.7078 
 121   0.0000       4.009666       109.1086 
 122   0.0000       4.145815       112.8134 
 123   0.0000       4.160234       113.2057 
 124   0.0000       4.290353       116.7464 
 125   0.0000       4.292979       116.8179 
 126   0.0000       4.452181       121.1500 
 127   0.0000       4.502738       122.5257 
 128   0.0000       4.527433       123.1977 
 129   0.0000       4.899283       133.3163 
 130   0.0000       5.110085       139.0525 
 131   0.0000       5.113758       139.1524 
 132   0.0000       5.321869       144.8154 
 133   0.0000       5.329951       145.0353 
 134   0.0000       5.440014       148.0303 
 135   0.0000       5.450299       148.3102 
 136   0.0000       5.459558       148.5621 
 137   0.0000       5.966829       162.3657 
 138   0.0000       5.967940       162.3959 
 139   0.0000       6.035426       164.2323 
 140   0.0000       6.230086       169.5293 
 141   0.0000       6.230542       169.5417 
 142   0.0000       6.238958       169.7707 
 143   0.0000       6.247659       170.0074 
 144   0.0000       6.740325       183.4136 
 145   0.0000       7.167865       195.0475 
 146   0.0000       7.173965       195.2135 
 147   0.0000       7.329912       199.4570 
 148   0.0000       7.393641       201.1912 
 149   0.0000       7.401457       201.4039 
 150   0.0000       8.276803       225.2233 
 151   0.0000       8.278063       225.2575 
 152   0.0000       8.710697       237.0301 
 153   0.0000       8.711977       237.0650 
 154   0.0000       9.219766       250.8826 
 155   0.0000       9.239214       251.4118 
 156   0.0000       9.277296       252.4481 
 157   0.0000       9.298570       253.0269 
 158   0.0000       9.632769       262.1210 
 159   0.0000       9.840534       267.7745 
 160   0.0000      10.388149       282.6759 
 161   0.0000      10.402570       283.0683 
 162   0.0000      10.664592       290.1983 
 163   0.0000      11.086626       301.6824 
 164   0.0000      11.120061       302.5922 
 165   0.0000      11.272399       306.7376 
 166   0.0000      11.658269       317.2376 
 167   0.0000      11.662461       317.3517 
 168   0.0000      11.739887       319.4586 
 169   0.0000      11.741238       319.4953 
 170   0.0000      11.974979       325.8557 
 171   0.0000      12.020405       327.0918 
 172   0.0000      12.021233       327.1144 
 173   0.0000      12.066066       328.3343 
 174   0.0000      12.066957       328.3586 
 175   0.0000      12.427946       338.1816 
 176   0.0000      12.536550       341.1369 
 177   0.0000      12.538308       341.1847 
 178   0.0000      12.585328       342.4642 
 179   0.0000      12.596074       342.7566 
 180   0.0000      12.657180       344.4194 
 181   0.0000      12.664172       344.6096 
 182   0.0000      12.795621       348.1865 
 183   0.0000      12.808436       348.5353 
 184   0.0000      13.734952       373.7470 
 185   0.0000      13.753146       374.2421 
 186   0.0000      13.753959       374.2642 
 187   0.0000      14.330365       389.9491 
 188   0.0000      14.335793       390.0968 
 189   0.0000      15.402077       419.1118 
 190   0.0000      16.674196       453.7280 
 191   0.0000      16.674548       453.7375 
 192   0.0000      16.987914       462.2646 
 193   0.0000      17.017953       463.0820 
 194   0.0000      17.020086       463.1401 
 195   0.0000      17.034273       463.5261 
 196   0.0000      17.040295       463.6900 
 197   0.0000      17.043658       463.7815 
 198   0.0000      17.045396       463.8288 
 199   0.0000      17.415487       473.8995 
 200   0.0000      17.430539       474.3091 
 201   0.0000      17.653788       480.3840 
 202   0.0000      17.654740       480.4099 
 203   0.0000      17.672866       480.9031 
 204   0.0000      17.685226       481.2395 
 205   0.0000      18.895653       514.1769 
 206   0.0000      19.663002       535.0575 
 207   0.0000      19.665373       535.1220 
 208   0.0000      20.566848       559.6524 
 209   0.0000      20.883096       568.2579 
 210   0.0000      20.893031       568.5283 
 211   0.0000      22.875557       622.4756 
 212   0.0000      22.889318       622.8500 
 213   0.0000      23.440658       637.8527 
 214   0.0000      23.446868       638.0217 
 215   0.0000      23.652493       643.6170 
 216   0.0000      23.679931       644.3637 
 217   0.0000      26.579198       723.2568 
 218   0.0000      26.979655       734.1537 
 219   0.0000      30.388579       826.9153 
 220   0.0000      31.843315       866.5007 
 221   0.0000      31.882149       867.5574 
 222   0.0000      33.974512       924.4935 
 223   0.0000      40.999801      1115.6613 
 224   0.0000      66.470741      1808.7608 
 225   0.0000      66.481198      1809.0454 
 226   0.0000      66.856243      1819.2509 
 227   0.0000      66.877917      1819.8407 
 228   0.0000      68.594734      1866.5576 
 229   0.0000      90.871174      2472.7303 
 230   0.0000      90.871841      2472.7485 
 231   0.0000      93.367432      2540.6570 
 232   0.0000     142.855013      3887.2825 

                    ********************************
                    * MULLIKEN POPULATION ANALYSIS *
                    ********************************

--------------------------------------------
MULLIKEN ATOMIC CHARGES AND SPIN POPULATIONS
--------------------------------------------
   0 H :    0.179933    0.003592
   1 O :   -0.179933    0.996408
Sum of atomic charges         :   -0.0000000
Sum of atomic spin populations:    1.0000000

-----------------------------------------------------
MULLIKEN REDUCED ORBITAL CHARGES AND SPIN POPULATIONS
-----------------------------------------------------
CHARGE
  0 H s       :     0.694553  s :     0.694553
      pz      :     0.030349  p :     0.111705
      px      :     0.062321
      py      :     0.019035
      dz2     :     0.002162  d :     0.011606
      dxz     :     0.007156
      dyz     :     0.002282
      dx2y2   :     0.000005
      dxy     :     0.000000
      f0      :    -0.000010  f :     0.001969
      f+1     :     0.001571
      f-1     :     0.000414
      f+2     :     0.000003
      f-2     :     0.000000
      f+3     :    -0.000005
      f-3     :    -0.000003
      g0      :    -0.000033  g :     0.000234
      g+1     :     0.000212
      g-1     :     0.000057
      g+2     :     0.000000
      g-2     :     0.000000
      g+3     :    -0.000001
      g-3     :    -0.000001
      g+4     :    -0.000000
      g-4     :    -0.000000
  1 O s       :     3.910102  s :     3.910102
      pz      :     1.352810  p :     4.254446
      px      :     1.925081
      py      :     0.976555
      dz2     :     0.009243  d :     0.014713
      dxz     :     0.003492
      dyz     :     0.001599
      dx2y2   :     0.000378
      dxy     :     0.000000
      f0      :     0.000350  f :     0.000635
      f+1     :     0.000081
      f-1     :    -0.000021
      f+2     :     0.000042
      f-2     :     0.000000
      f+3     :     0.000099
      f-3     :     0.000084
      g0      :     0.000042  g :     0.000037
      g+1     :    -0.000007
      g-1     :    -0.000000
      g+2     :     0.000001
      g-2     :     0.000000
      g+3     :     0.000000
      g-3     :     0.000000
      g+4     :     0.000001
      g-4     :     0.000000
      h0      :     0.000002  h :     0.000001
      h+1     :    -0.000001
      h-1     :    -0.000000
      h+2     :     0.000000
      h-2     :     0.000000
      h+3     :     0.000000
      h-3     :     0.000000
      h+4     :     0.000000
      h-4     :     0.000000
      h+5     :     0.000000
      h-5     :     0.000000

SPIN
  0 H s       :    -0.008533  s :    -0.008533
      pz      :    -0.002650  p :     0.010690
      px      :    -0.005695
      py      :     0.019035
      dz2     :    -0.000327  d :     0.001144
      dxz     :    -0.000817
      dyz     :     0.002282
      dx2y2   :     0.000006
      dxy     :     0.000000
      f0      :    -0.000004  f :     0.000245
      f+1     :    -0.000158
      f-1     :     0.000414
      f+2     :     0.000002
      f-2     :     0.000000
      f+3     :    -0.000005
      f-3     :    -0.000003
      g0      :     0.000004  g :     0.000046
      g+1     :    -0.000012
      g-1     :     0.000057
      g+2     :    -0.000000
      g-2     :    -0.000000
      g+3     :    -0.000001
      g-3     :    -0.000001
      g+4     :     0.000000
      g-4     :     0.000000
  1 O s       :    -0.003263  s :    -0.003263
      pz      :     0.014275  p :     0.997426
      px      :     0.006596
      py      :     0.976555
      dz2     :     0.000532  d :     0.002449
      dxz     :     0.000040
      dyz     :     0.001599
      dx2y2   :     0.000278
      dxy     :     0.000000
      f0      :    -0.000352  f :    -0.000201
      f+1     :    -0.000039
      f-1     :    -0.000021
      f+2     :     0.000036
      f-2     :     0.000000
      f+3     :     0.000092
      f-3     :     0.000084
      g0      :    -0.000005  g :    -0.000005
      g+1     :     0.000001
      g-1     :    -0.000000
      g+2     :    -0.000000
      g-2     :    -0.000000
      g+3     :     0.000000
      g-3     :     0.000000
      g+4     :    -0.000001
      g-4     :    -0.000000
      h0      :     0.000003  h :     0.000002
      h+1     :     0.000000
      h-1     :    -0.000000
      h+2     :    -0.000000
      h-2     :    -0.000000
      h+3     :    -0.000000
      h-3     :     0.000000
      h+4     :    -0.000000
      h-4     :    -0.000000
      h+5     :    -0.000000
      h-5     :     0.000000


                     *******************************
                     * LOEWDIN POPULATION ANALYSIS *
                     *******************************

-------------------------------------------
LOEWDIN ATOMIC CHARGES AND SPIN POPULATIONS
-------------------------------------------
   0 H :   -0.881351    0.180235
   1 O :    0.881351    0.819765

----------------------------------------------------
LOEWDIN REDUCED ORBITAL CHARGES AND SPIN POPULATIONS
----------------------------------------------------
CHARGE
  0 H s       :     0.725861  s :     0.725861
      pz      :     0.346640  p :     0.653736
      px      :     0.215534
      py      :     0.091561
      dz2     :     0.160138  d :     0.395924
      dxz     :     0.156472
      dyz     :     0.079296
      dx2y2   :     0.000017
      dxy     :     0.000000
      f0      :     0.026123  f :     0.097583
      f+1     :     0.046533
      f-1     :     0.024910
      f+2     :     0.000014
      f-2     :     0.000000
      f+3     :     0.000002
      f-3     :     0.000002
      g0      :     0.003389  g :     0.008247
      g+1     :     0.003242
      g-1     :     0.001612
      g+2     :     0.000002
      g-2     :     0.000000
      g+3     :     0.000002
      g-3     :     0.000001
      g+4     :     0.000000
      g-4     :     0.000000
  1 O s       :     3.290819  s :     3.290819
      pz      :     1.410389  p :     3.784571
      px      :     1.573844
      py      :     0.800338
      dz2     :     0.030540  d :     0.035540
      dxz     :     0.003206
      dyz     :     0.001438
      dx2y2   :     0.000355
      dxy     :     0.000000
      f0      :     0.004686  f :     0.006085
      f+1     :     0.000654
      f-1     :     0.000539
      f+2     :     0.000040
      f-2     :     0.000000
      f+3     :     0.000089
      f-3     :     0.000078
      g0      :     0.000640  g :     0.001027
      g+1     :     0.000248
      g-1     :     0.000137
      g+2     :     0.000001
      g-2     :     0.000000
      g+3     :     0.000000
      g-3     :     0.000000
      g+4     :     0.000001
      g-4     :     0.000000
      h0      :     0.000345  h :     0.000606
      h+1     :     0.000172
      h-1     :     0.000089
      h+2     :     0.000000
      h-2     :     0.000000
      h+3     :     0.000000
      h-3     :     0.000000
      h+4     :     0.000000
      h-4     :     0.000000
      h+5     :     0.000000
      h-5     :     0.000000

SPIN
  0 H s       :    -0.015400  s :    -0.015400
      pz      :     0.000469  p :     0.086000
      px      :    -0.006030
      py      :     0.091561
      dz2     :     0.002421  d :     0.082333
      dxz     :     0.000602
      dyz     :     0.079296
      dx2y2   :     0.000014
      dxy     :     0.000000
      f0      :     0.000260  f :     0.025756
      f+1     :     0.000572
      f-1     :     0.024910
      f+2     :     0.000010
      f-2     :     0.000000
      f+3     :     0.000002
      f-3     :     0.000002
      g0      :    -0.000058  g :     0.001546
      g+1     :    -0.000012
      g-1     :     0.001612
      g+2     :     0.000002
      g-2     :     0.000000
      g+3     :     0.000001
      g-3     :     0.000001
      g+4     :    -0.000000
      g-4     :    -0.000000
  1 O s       :     0.004386  s :     0.004386
      pz      :     0.009265  p :     0.814396
      px      :     0.004794
      py      :     0.800338
      dz2     :    -0.000977  d :     0.000631
      dxz     :    -0.000090
      dyz     :     0.001438
      dx2y2   :     0.000261
      dxy     :     0.000000
      f0      :    -0.000657  f :     0.000151
      f+1     :     0.000075
      f-1     :     0.000539
      f+2     :     0.000035
      f-2     :     0.000000
      f+3     :     0.000082
      f-3     :     0.000078
      g0      :    -0.000030  g :     0.000109
      g+1     :     0.000004
      g-1     :     0.000137
      g+2     :    -0.000000
      g-2     :    -0.000000
      g+3     :     0.000000
      g-3     :     0.000000
      g+4     :    -0.000001
      g-4     :    -0.000000
      h0      :     0.000003  h :     0.000092
      h+1     :     0.000001
      h-1     :     0.000089
      h+2     :    -0.000000
      h-2     :    -0.000000
      h+3     :     0.000000
      h-3     :     0.000000
      h+4     :    -0.000000
      h-4     :    -0.000000
      h+5     :    -0.000000
      h-5     :     0.000000


                      *****************************
                      * MAYER POPULATION ANALYSIS *
                      *****************************

  NA   - Mulliken gross atomic population
  ZA   - Total nuclear charge
  QA   - Mulliken gross atomic charge
  VA   - Mayer's total valence
  BVA  - Mayer's bonded valence
  FA   - Mayer's free valence

  ATOM       NA         ZA         QA         VA         BVA        FA
  0 H      0.8201     1.0000     0.1799     1.0771     1.0766     0.0006
  1 O      8.1799     8.0000    -0.1799     2.0373     1.0766     0.9607

  Mayer bond orders larger than 0.1
B(  0-H ,  1-O ) :   1.0766 

-------
TIMINGS
-------

Total SCF time: 0 days 0 hours 1 min 35 sec 

Total time                  ....      95.099 sec
Sum of individual times     ....      94.607 sec  ( 99.5%)

Fock matrix formation       ....      93.469 sec  ( 98.3%)
  XC integration            ....       3.804 sec  (  4.1% of F)
    Basis function eval.    ....       0.287 sec  (  7.5% of XC)
    Density eval.           ....       0.668 sec  ( 17.6% of XC)
    XC-Functional eval.     ....       0.070 sec  (  1.8% of XC)
    XC-Potential eval.      ....       2.383 sec  ( 62.6% of XC)
Diagonalization             ....       0.403 sec  (  0.4%)
Density matrix formation    ....       0.009 sec  (  0.0%)
Population analysis         ....       0.050 sec  (  0.1%)
Initial guess               ....       0.277 sec  (  0.3%)
Orbital Transformation      ....       0.000 sec  (  0.0%)
Orbital Orthonormalization  ....       0.000 sec  (  0.0%)
DIIS solution               ....       0.226 sec  (  0.2%)
Grid generation             ....       0.174 sec  (  0.2%)

-------------------------   --------------------
FINAL SINGLE POINT ENERGY       -75.684414939025
-------------------------   --------------------


                            ***************************************
                            *     ORCA property calculations      *
                            ***************************************

                                    ---------------------
                                    Active property flags
                                    ---------------------
   (+) Dipole Moment


------------------------------------------------------------------------------
                       ORCA ELECTRIC PROPERTIES CALCULATION
------------------------------------------------------------------------------

Dipole Moment Calculation                       ... on
Quadrupole Moment Calculation                   ... off
Polarizability Calculation                      ... off
GBWName                                         ... oh_pbe_+001_z.gbw
Electron density file                           ... oh_pbe_+001_z.scfp.tmp
The origin for moment calculation is the CENTER OF MASS  = ( 0.000000,  0.000000  1.723858)

-------------
DIPOLE MOMENT
-------------
                                X             Y             Z
Electronic contribution:     -0.00000       0.00000       0.32160
Nuclear contribution   :      0.00000       0.00000      -0.85498
                        -----------------------------------------
Total Dipole Moment    :     -0.00000       0.00000      -0.53338
                        -----------------------------------------
Magnitude (a.u.)       :      0.53338
Magnitude (Debye)      :      1.35575



--------------------
Rotational spectrum 
--------------------
 
Rotational constants in cm-1:     0.000000    18.905861    18.905861 
Rotational constants in MHz :     0.000000 566783.441526 566783.441526 

 Dipole components along the rotational axes: 
x,y,z [a.u.] :    -0.533381     0.000000    -0.000000 
x,y,z [Debye]:    -1.355746     0.000000    -0.000000 

 

Timings for individual modules:

Sum of individual times         ...       96.390 sec (=   1.606 min)
GTO integral calculation        ...        0.968 sec (=   0.016 min)   1.0 %
SCF iterations                  ...       95.422 sec (=   1.590 min)  99.0 %
                             ****ORCA TERMINATED NORMALLY****
TOTAL RUN TIME: 0 days 0 hours 1 minutes 37 seconds 241 msec
