
                                 *****************
                                 * O   R   C   A *
                                 *****************

           --- An Ab Initio, DFT and Semiempirical electronic structure package ---

                  #######################################################
                  #                        -***-                        #
                  #          Department of theory and spectroscopy      #
                  #               Directorship: Frank Neese             #
                  #        Max Planck Institute fuer Kohlenforschung    #
                  #                Kaiser Wilhelm Platz 1               #
                  #                 D-45470 Muelheim/Ruhr               #
                  #                      Germany                        #
                  #                                                     #
                  #                  All rights reserved                #
                  #                        -***-                        #
                  #######################################################


                         Program Version 4.1.1  - RELEASE  -


 With contributions from (in alphabetic order):
   Daniel Aravena         : Magnetic Properties
   Michael Atanasov       : Ab Initio Ligand Field Theory
   Alexander A. Auer      : GIAO ZORA
   Ute Becker             : Parallelization
   Giovanni Bistoni       : ED, Open-shell LED
   Martin Brehm           : Molecular dynamics
   Dmytro Bykov           : SCF Hessian
   Vijay G. Chilkuri      : MRCI spin determinant printing
   Dipayan Datta          : RHF DLPNO-CCSD density
   Achintya Kumar Dutta   : EOM-CC, STEOM-CC
   Dmitry Ganyushin       : Spin-Orbit,Spin-Spin,Magnetic field MRCI
   Miquel Garcia          : C-PCM Hessian
   Yang Guo               : DLPNO-NEVPT2, CIM, IAO-localization
   Andreas Hansen         : Spin unrestricted coupled pair/coupled cluster methods
   Benjamin Helmich-Paris : CASSCF linear response (MC-RPA)
   Lee Huntington         : MR-EOM, pCC
   Robert Izsak           : Overlap fitted RIJCOSX, COSX-SCS-MP3, EOM
   Christian Kollmar      : KDIIS, OOCD, Brueckner-CCSD(T), CCSD density
   Simone Kossmann        : Meta GGA functionals, TD-DFT gradient, OOMP2, MP2 Hessian
   Martin Krupicka        : AUTO-CI
   Lucas Lang             : DCDCAS
   Dagmar Lenk            : GEPOL surface, SMD
   Dimitrios Liakos       : Extrapolation schemes; parallel MDCI
   Dimitrios Manganas     : ROCIS; embedding schemes
   Dimitrios Pantazis     : SARC Basis sets
   Taras Petrenko         : DFT Hessian,TD-DFT gradient, ASA, ECA, R-Raman, ABS, FL, XAS/XES, NRVS
   Peter Pinski           : DLPNO-MP2, DLPNO-MP2 Gradient
   Christoph Reimann      : Effective Core Potentials
   Marius Retegan         : Local ZFS, SOC
   Christoph Riplinger    : Optimizer, TS searches, QM/MM, DLPNO-CCSD(T), (RO)-DLPNO pert. Triples
   Tobias Risthaus        : Range-separated hybrids, TD-DFT gradient, RPA, STAB
   Michael Roemelt        : Restricted open shell CIS
   Masaaki Saitow         : Open-shell DLPNO
   Barbara Sandhoefer     : DKH picture change effects
   Avijit Sen             : IP-ROCIS
   Kantharuban Sivalingam : CASSCF convergence, NEVPT2, FIC-MRCI
   Bernardo de Souza      : ESD, SOC TD-DFT
   Georgi Stoychev        : AutoAux, RI-MP2 NMR
   Willem Van den Heuvel  : Paramagnetic NMR
   Boris Wezisla          : Elementary symmetry handling
   Frank Wennmohs         : Technical directorship


 We gratefully acknowledge several colleagues who have allowed us to
 interface, adapt or use parts of their codes:
   Stefan Grimme, W. Hujo, H. Kruse,             : VdW corrections, initial TS optimization,
                  C. Bannwarth                     DFT functionals, gCP, sTDA/sTD-DF
   Ed Valeev                                     : LibInt (2-el integral package), F12 methods
   Garnet Chan, S. Sharma, J. Yang, R. Olivares  : DMRG
   Ulf Ekstrom                                   : XCFun DFT Library
   Mihaly Kallay                                 : mrcc  (arbitrary order and MRCC methods)
   Andreas Klamt, Michael Diedenhofen            : otool_cosmo (COSMO solvation model)
   Jiri Pittner, Ondrej Demel                    : Mk-CCSD
   Frank Weinhold                                : gennbo (NPA and NBO analysis)
   Christopher J. Cramer and Donald G. Truhlar   : smd solvation model
   Lars Goerigk                                  : TD-DFT with DH, B97 family of functionals
   V. Asgeirsson, H. Jonsson                     : NEB implementation
   FAccTs GmbH                                   : IRC, NEB, NEB-TS, Multilevel


 Your calculation uses the libint2 library for the computation of 2-el integrals
 For citations please refer to: http://libint.valeyev.net

 This ORCA versions uses:
   CBLAS   interface :  Fast vector & matrix operations
   LAPACKE interface :  Fast linear algebra routines
   SCALAPACK package :  Parallel linear algebra routines


----- Orbital basis set information -----
Your calculation utilizes the basis: aug-pc-4
   H, C-F              : F. Jensen, J. Chem. Phys. 115, 9113 (2001).
                         F. Jensen, J. Chem. Phys. 116, 7372 (2002).
                         F. Jensen, J. Chem. Phys. 117, 9234 (2002).
   Si-Cl               : F. Jensen, T. Helgaker, J. Chem. Phys. 121, 3463 (2004).
   He-B, Ne-Mg, Al, Ar : F. Jensen, J. Phys. Chem. A 111, 11198 (2007).
   K, Ca, Ga-Kr        : F. Jensen, J. Chem. Phys. 136, 094110 (2012).
   Sc-Zn               : F. Jensen, J. Chem. Phys. 138, 014107 (2013).

================================================================================
                                        WARNINGS
                       Please study these warnings very carefully!
================================================================================


INFO   : the flag for use of LIBINT has been found!

================================================================================
                                       INPUT FILE
================================================================================
NAME = sf_pbe_-001_z.inp
|  1> ! uks pbe nori aug-pc-4 grid5 nofinalgrid verytightscf
|  2> 
|  3> %maxcore 1500
|  4> 
|  5> %pal nprocs 4 end
|  6> %scf
|  7>     efield 0.0, 0.0, -0.01
|  8>     maxiter 300
|  9> end
| 10> * xyz 0 2
| 11> S	0.0000	0.0000	0.0000
| 12> F	0.0000	0.0000	1.6006
| 13> *
| 14> 
| 15>                          ****END OF INPUT****
================================================================================

                       ****************************
                       * Single Point Calculation *
                       ****************************

---------------------------------
CARTESIAN COORDINATES (ANGSTROEM)
---------------------------------
  S      0.000000    0.000000    0.000000
  F      0.000000    0.000000    1.600600

----------------------------
CARTESIAN COORDINATES (A.U.)
----------------------------
  NO LB      ZA    FRAG     MASS         X           Y           Z
   0 S    16.0000    0    32.060    0.000000    0.000000    0.000000
   1 F     9.0000    0    18.998    0.000000    0.000000    3.024696

--------------------------------
INTERNAL COORDINATES (ANGSTROEM)
--------------------------------
 S      0   0   0     0.000000000000     0.00000000     0.00000000
 F      1   0   0     1.600600000000     0.00000000     0.00000000

---------------------------
INTERNAL COORDINATES (A.U.)
---------------------------
 S      0   0   0     0.000000000000     0.00000000     0.00000000
 F      1   0   0     3.024695649954     0.00000000     0.00000000

---------------------
BASIS SET INFORMATION
---------------------
There are 2 groups of distinct atoms

 Group   1 Type S   : 44s27p7d4f3g2h contracted to 8s7p7d4f3g2h pattern {15121211111/111111111/1111111/1111/111/11}
 Group   2 Type F   : 27s12p7d4f3g2h contracted to 9s8p7d4f3g2h pattern {1191111111/51111111/1111111/1111/111/11}

Atom   0S    basis set group =>   1
Atom   1F    basis set group =>   2


           ************************************************************
           *        Program running with 4 parallel MPI-processes     *
           *              working on a common directory               *
           ************************************************************
------------------------------------------------------------------------------
                           ORCA GTO INTEGRAL CALCULATION
------------------------------------------------------------------------------

                         BASIS SET STATISTICS AND STARTUP INFO

 # of primitive gaussian shells          ...  142
 # of primitive gaussian functions       ...  412
 # of contracted shells                  ...   64
 # of contracted basis functions         ...  286
 Highest angular momentum                ...    5
 Maximum contraction depth               ...   15
 Integral package used                   ... LIBINT
 Integral threshhold            Thresh   ...  1.000e-12
 Primitive cut-off              TCut     ...  1.000e-14


------------------------------ INTEGRAL EVALUATION ----------------------------


 * One electron integrals 
 Pre-screening matrix                    ... done
 Shell pair data                         ... done (   0.001 sec)


An Electric Field will be added: 0.000e+00 0.000e+00 -1.000e-02 au

  ... done adding electric field perturbation



           ************************************************************
           *        Program running with 4 parallel MPI-processes     *
           *              working on a common directory               *
           ************************************************************
-------------------------------------------------------------------------------
                                 ORCA SCF
-------------------------------------------------------------------------------

------------
SCF SETTINGS
------------
Hamiltonian:
 Density Functional     Method          .... DFT(GTOs)
 Exchange Functional    Exchange        .... PBE
   PBE kappa parameter   XKappa         ....  0.804000
   PBE mue parameter    XMuePBE         ....  0.219520
 Correlation Functional Correlation     .... PBE
   PBE beta parameter  CBetaPBE         ....  0.066725
 LDA part of GGA corr.  LDAOpt          .... PW91-LDA
 Gradients option       PostSCFGGA      .... off
   Density functional embedding theory  .... OFF
   NL short-range parameter             ....  6.400000


General Settings:
 Integral files         IntName         .... sf_pbe_-001_z
 Hartree-Fock type      HFTyp           .... UHF
 Total Charge           Charge          ....    0
 Multiplicity           Mult            ....    2
 Number of Electrons    NEL             ....   25
 Basis Dimension        Dim             ....  286
 Nuclear Repulsion      ENuc            ....     47.6080957111 Eh

Convergence Acceleration:
 DIIS                   CNVDIIS         .... on
   Start iteration      DIISMaxIt       ....    12
   Startup error        DIISStart       ....  0.200000
   # of expansion vecs  DIISMaxEq       ....     5
   Bias factor          DIISBfac        ....   1.050
   Max. coefficient     DIISMaxC        ....  10.000
 Newton-Raphson         CNVNR           .... off
 SOSCF                  CNVSOSCF        .... off
 Level Shifting         CNVShift        .... on
   Level shift para.    LevelShift      ....    0.2500
   Turn off err/grad.   ShiftErr        ....    0.0010
 Zerner damping         CNVZerner       .... off
 Static damping         CNVDamp         .... on
   Fraction old density DampFac         ....    0.7000
   Max. Damping (<1)    DampMax         ....    0.9800
   Min. Damping (>=0)   DampMin         ....    0.0000
   Turn off err/grad.   DampErr         ....    0.1000
 Fernandez-Rico         CNVRico         .... off

SCF Procedure:
 Maximum # iterations   MaxIter         ....   300
 SCF integral mode      SCFMode         .... Direct
   Integral package                     .... LIBINT
 Reset frequency        DirectResetFreq ....    20
 Integral Threshold     Thresh          ....  1.000e-12 Eh
 Primitive CutOff       TCut            ....  1.000e-14 Eh

Convergence Tolerance:
 Convergence Check Mode ConvCheckMode   .... Total+1el-Energy
 Convergence forced     ConvForced      .... 0
 Energy Change          TolE            ....  1.000e-09 Eh
 1-El. energy change                    ....  1.000e-06 Eh
 DIIS Error             TolErr          ....  1.000e-08


Diagonalization of the overlap matrix:
Smallest eigenvalue                        ... 1.366e-05
Time for diagonalization                   ...    0.094 sec
Threshold for overlap eigenvalues          ... 1.000e-08
Number of eigenvalues below threshold      ... 0
Time for construction of square roots      ...    0.013 sec
Total time needed                          ...    0.107 sec

-------------------
DFT GRID GENERATION
-------------------

General Integration Accuracy     IntAcc      ...  5.010
Radial Grid Type                 RadialGrid  ... Gauss-Chebyshev
Angular Grid (max. acc.)         AngularGrid ... Lebedev-434
Angular grid pruning method      GridPruning ... 3 (G Style)
Weight generation scheme         WeightScheme... Becke
Basis function cutoff            BFCut       ...    1.0000e-12
Integration weight cutoff        WCut        ...    1.0000e-14
Grids for H and He will be reduced by one unit

# of grid points (after initial pruning)     ...  22558 (   0.0 sec)
# of grid points (after weights+screening)   ...  22492 (   0.0 sec)
nearest neighbour list constructed           ...    0.0 sec
Grid point re-assignment to atoms done       ...    0.0 sec
Grid point division into batches done        ...    0.2 sec
Reduced shell lists constructed in    0.3 sec

Total number of grid points                  ...    22492
Total number of batches                      ...      352
Average number of points per batch           ...       63
Average number of grid points per atom       ...    11246
Average number of shells per batch           ...    36.22 (56.60%)
Average number of basis functions per batch  ...   167.91 (58.71%)
Average number of large shells per batch     ...    30.72 (84.80%)
Average number of large basis fcns per batch ...   144.43 (86.01%)
Maximum spatial batch extension              ...  18.71, 18.71, 15.96 au
Average spatial batch extension              ...   1.45,  1.45,  1.28 au

Time for grid setup =    0.281 sec

------------------------------
INITIAL GUESS: MODEL POTENTIAL
------------------------------
Loading Hartree-Fock densities                     ... done
Calculating cut-offs                               ... done
Setting up the integral package                    ... done
Initializing the effective Hamiltonian             ... done
Starting the Coulomb interaction                   ... done (   0.0 sec)
Reading the grid                                   ... done
Mapping shells                                     ... done
Starting the XC term evaluation                    ... done (   0.2 sec)
  promolecular density results
     # of electrons  =     25.000000708
     EX              =    -34.840625308
     EC              =     -0.921356085
     EX+EC           =    -35.761981393
Transforming the Hamiltonian                       ... done (   0.0 sec)
Diagonalizing the Hamiltonian                      ... done (   0.0 sec)
Back transforming the eigenvectors                 ... done (   0.0 sec)
Now organizing SCF variables                       ... done
                      ------------------
                      INITIAL GUESS DONE (   0.7 sec)
                      ------------------
--------------
SCF ITERATIONS
--------------
ITER       Energy         Delta-E        Max-DP      RMS-DP      [F,P]     Damp
               ***  Starting incremental Fock matrix formation  ***
  0   -497.7600800339   0.000000000000 0.00730459  0.00011442  0.1419959 0.7000
  1   -497.7723586522  -0.012278618357 0.00550264  0.00006524  0.0319135 0.7000
                               ***Turning on DIIS***
  2   -497.7750594173  -0.002700765072 0.01569494  0.00013435  0.0196231 0.0000
  3   -497.7838113675  -0.008751950201 0.00307784  0.00004086  0.0116244 0.0000
  4   -497.7839735986  -0.000162231046 0.00165459  0.00001508  0.0165456 0.0000
  5   -497.7841855093  -0.000211910702 0.00123133  0.00001062  0.0072673 0.0000
  6   -497.7842364208  -0.000050911563 0.00057998  0.00000480  0.0024428 0.0000
  7   -497.7842431588  -0.000006737988 0.00030039  0.00000294  0.0008099 0.0000
  8   -497.7842445036  -0.000001344775 0.00008889  0.00000073  0.0001558 0.0000
  9   -497.7842445621  -0.000000058558 0.00004220  0.00000031  0.0000569 0.0000
 10   -497.7842445741  -0.000000011951 0.00001478  0.00000010  0.0000145 0.0000
 11   -497.7842445752  -0.000000001097 0.00000510  0.00000003  0.0000035 0.0000
 12   -497.7842445753  -0.000000000149 0.00000149  0.00000001  0.0000010 0.0000
                 **** Energy Check signals convergence ****

               *****************************************************
               *                     SUCCESS                       *
               *           SCF CONVERGED AFTER  13 CYCLES          *
               *****************************************************


----------------
TOTAL SCF ENERGY
----------------

Total Energy       :         -497.78424458 Eh          -13545.39793 eV

Components:
Nuclear Repulsion  :           47.60809571 Eh            1295.48215 eV
Electronic Energy  :         -545.39234029 Eh          -14840.88007 eV
One Electron Energy:         -783.50380551 Eh          -21320.22245 eV
Two Electron Energy:          238.11146523 Eh            6479.34237 eV

Virial components:
Potential Energy   :         -995.00475060 Eh          -27075.45575 eV
Kinetic Energy     :          497.22050603 Eh           13530.05782 eV
Virial Ratio       :            2.00113378


DFT components:
N(Alpha)           :       13.000000931629 electrons
N(Beta)            :       12.000000927839 electrons
N(Total)           :       25.000001859468 electrons
E(X)               :      -34.919286208446 Eh       
E(C)               :       -0.914012376319 Eh       
E(XC)              :      -35.833298584765 Eh       
DFET-embed. en.    :        0.000000000000 Eh       

---------------
SCF CONVERGENCE
---------------

  Last Energy change         ...   -1.9440e-11  Tolerance :   1.0000e-09
  Last MAX-Density change    ...    2.5911e-06  Tolerance :   1.0000e-08
  Last RMS-Density change    ...    1.7703e-08  Tolerance :   1.0000e-09
  Last DIIS Error            ...    3.3285e-07  Tolerance :   1.0000e-08

             **** THE GBW FILE WAS UPDATED (sf_pbe_-001_z.gbw) ****
             **** DENSITY FILE WAS UPDATED (sf_pbe_-001_z.scfp.tmp) ****
             **** ENERGY FILE WAS UPDATED (sf_pbe_-001_z.en.tmp) ****
----------------------
UHF SPIN CONTAMINATION
----------------------

Warning: in a DFT calculation there is little theoretical justification to 
         calculate <S**2> as in Hartree-Fock theory. We will do it anyways
         but you should keep in mind that the values have only limited relevance

Expectation value of <S**2>     :     0.753603
Ideal value S*(S+1) for S=0.5   :     0.750000
Deviation                       :     0.003603

----------------
ORBITAL ENERGIES
----------------
                 SPIN UP ORBITALS
  NO   OCC          E(Eh)            E(eV) 
   0   1.0000     -88.115250     -2397.7379 
   1   1.0000     -24.315401      -661.6557 
   2   1.0000      -7.746102      -210.7822 
   3   1.0000      -5.771247      -157.0436 
   4   1.0000      -5.769820      -157.0048 
   5   1.0000      -5.751752      -156.5131 
   6   1.0000      -1.157266       -31.4908 
   7   1.0000      -0.664141       -18.0722 
   8   1.0000      -0.463122       -12.6022 
   9   1.0000      -0.450527       -12.2595 
  10   1.0000      -0.433837       -11.8053 
  11   1.0000      -0.262698        -7.1484 
  12   1.0000      -0.220904        -6.0111 
  13   0.0000      -0.101549        -2.7633 
  14   0.0000      -0.030694        -0.8352 
  15   0.0000       0.006019         0.1638 
  16   0.0000       0.007774         0.2116 
  17   0.0000       0.013612         0.3704 
  18   0.0000       0.062004         1.6872 
  19   0.0000       0.064744         1.7618 
  20   0.0000       0.077064         2.0970 
  21   0.0000       0.080500         2.1905 
  22   0.0000       0.081231         2.2104 
  23   0.0000       0.096389         2.6229 
  24   0.0000       0.106981         2.9111 
  25   0.0000       0.111971         3.0469 
  26   0.0000       0.136574         3.7164 
  27   0.0000       0.137306         3.7363 
  28   0.0000       0.144620         3.9353 
  29   0.0000       0.170156         4.6302 
  30   0.0000       0.204191         5.5563 
  31   0.0000       0.204444         5.5632 
  32   0.0000       0.204675         5.5695 
  33   0.0000       0.225297         6.1306 
  34   0.0000       0.228166         6.2087 
  35   0.0000       0.229169         6.2360 
  36   0.0000       0.229555         6.2465 
  37   0.0000       0.242350         6.5947 
  38   0.0000       0.242729         6.6050 
  39   0.0000       0.253333         6.8935 
  40   0.0000       0.266727         7.2580 
  41   0.0000       0.270133         7.3507 
  42   0.0000       0.292889         7.9699 
  43   0.0000       0.297659         8.0997 
  44   0.0000       0.333194         9.0667 
  45   0.0000       0.351988         9.5781 
  46   0.0000       0.357358         9.7242 
  47   0.0000       0.357778         9.7356 
  48   0.0000       0.376629        10.2486 
  49   0.0000       0.389702        10.6043 
  50   0.0000       0.397073        10.8049 
  51   0.0000       0.397087        10.8053 
  52   0.0000       0.406415        11.0591 
  53   0.0000       0.406415        11.0591 
  54   0.0000       0.426384        11.6025 
  55   0.0000       0.458175        12.4676 
  56   0.0000       0.458490        12.4761 
  57   0.0000       0.467156        12.7120 
  58   0.0000       0.471815        12.8387 
  59   0.0000       0.476504        12.9663 
  60   0.0000       0.506662        13.7870 
  61   0.0000       0.520731        14.1698 
  62   0.0000       0.537519        14.6266 
  63   0.0000       0.581146        15.8138 
  64   0.0000       0.581842        15.8327 
  65   0.0000       0.603983        16.4352 
  66   0.0000       0.603983        16.4352 
  67   0.0000       0.614560        16.7230 
  68   0.0000       0.614561        16.7231 
  69   0.0000       0.627641        17.0790 
  70   0.0000       0.627643        17.0790 
  71   0.0000       0.630773        17.1642 
  72   0.0000       0.639894        17.4124 
  73   0.0000       0.639895        17.4124 
  74   0.0000       0.662755        18.0345 
  75   0.0000       0.669942        18.2301 
  76   0.0000       0.675729        18.3875 
  77   0.0000       0.676171        18.3996 
  78   0.0000       0.691368        18.8131 
  79   0.0000       0.709547        19.3077 
  80   0.0000       0.713245        19.4084 
  81   0.0000       0.764085        20.7918 
  82   0.0000       0.777694        21.1621 
  83   0.0000       0.784709        21.3530 
  84   0.0000       0.794119        21.6091 
  85   0.0000       0.795674        21.6514 
  86   0.0000       0.844103        22.9692 
  87   0.0000       0.845399        23.0045 
  88   0.0000       0.845409        23.0047 
  89   0.0000       0.869582        23.6625 
  90   0.0000       0.869819        23.6690 
  91   0.0000       0.918508        24.9939 
  92   0.0000       0.934282        25.4231 
  93   0.0000       0.948763        25.8172 
  94   0.0000       0.948766        25.8172 
  95   0.0000       0.951036        25.8790 
  96   0.0000       0.985905        26.8279 
  97   0.0000       0.995392        27.0860 
  98   0.0000       1.019226        27.7346 
  99   0.0000       1.020562        27.7709 
 100   0.0000       1.083633        29.4872 
 101   0.0000       1.121584        30.5199 
 102   0.0000       1.145861        31.1805 
 103   0.0000       1.146097        31.1869 
 104   0.0000       1.161611        31.6090 
 105   0.0000       1.175868        31.9970 
 106   0.0000       1.194212        32.4962 
 107   0.0000       1.194213        32.4962 
 108   0.0000       1.212167        32.9848 
 109   0.0000       1.212168        32.9848 
 110   0.0000       1.282985        34.9118 
 111   0.0000       1.301501        35.4156 
 112   0.0000       1.310752        35.6674 
 113   0.0000       1.326322        36.0911 
 114   0.0000       1.327059        36.1111 
 115   0.0000       1.352337        36.7989 
 116   0.0000       1.377321        37.4788 
 117   0.0000       1.410825        38.3905 
 118   0.0000       1.489516        40.5318 
 119   0.0000       1.489566        40.5332 
 120   0.0000       1.533094        41.7176 
 121   0.0000       1.534740        41.7624 
 122   0.0000       1.543468        41.9999 
 123   0.0000       1.763712        47.9930 
 124   0.0000       1.782445        48.5028 
 125   0.0000       1.833315        49.8870 
 126   0.0000       2.040897        55.5356 
 127   0.0000       2.040937        55.5367 
 128   0.0000       2.087576        56.8058 
 129   0.0000       2.105503        57.2936 
 130   0.0000       2.106061        57.3088 
 131   0.0000       2.144959        58.3673 
 132   0.0000       2.154574        58.6289 
 133   0.0000       2.184775        59.4508 
 134   0.0000       2.186004        59.4842 
 135   0.0000       2.189512        59.5797 
 136   0.0000       2.205914        60.0260 
 137   0.0000       2.301873        62.6371 
 138   0.0000       2.325541        63.2812 
 139   0.0000       2.368531        64.4510 
 140   0.0000       2.459309        66.9212 
 141   0.0000       2.459589        66.9288 
 142   0.0000       2.580903        70.2299 
 143   0.0000       2.585689        70.3602 
 144   0.0000       2.585715        70.3609 
 145   0.0000       2.658648        72.3455 
 146   0.0000       2.658679        72.3463 
 147   0.0000       2.681619        72.9706 
 148   0.0000       2.869647        78.0871 
 149   0.0000       2.884079        78.4798 
 150   0.0000       2.968783        80.7847 
 151   0.0000       3.025254        82.3214 
 152   0.0000       3.026685        82.3603 
 153   0.0000       3.219348        87.6029 
 154   0.0000       3.297642        89.7334 
 155   0.0000       3.297664        89.7340 
 156   0.0000       3.474140        94.5362 
 157   0.0000       3.487979        94.9127 
 158   0.0000       3.488833        94.9360 
 159   0.0000       3.505685        95.3945 
 160   0.0000       3.537243        96.2533 
 161   0.0000       3.748996       102.0154 
 162   0.0000       3.780772       102.8800 
 163   0.0000       3.820212       103.9533 
 164   0.0000       3.840256       104.4987 
 165   0.0000       3.865131       105.1756 
 166   0.0000       4.979954       135.5114 
 167   0.0000       5.053957       137.5252 
 168   0.0000       5.053959       137.5252 
 169   0.0000       5.100181       138.7830 
 170   0.0000       5.100211       138.7838 
 171   0.0000       5.120355       139.3319 
 172   0.0000       5.120376       139.3325 
 173   0.0000       5.132176       139.6536 
 174   0.0000       5.132196       139.6541 
 175   0.0000       5.224435       142.1641 
 176   0.0000       5.225476       142.1924 
 177   0.0000       5.236667       142.4969 
 178   0.0000       5.243129       142.6728 
 179   0.0000       5.245591       142.7398 
 180   0.0000       5.382032       146.4525 
 181   0.0000       5.393212       146.7568 
 182   0.0000       5.537854       150.6927 
 183   0.0000       5.575378       151.7138 
 184   0.0000       5.575853       151.7267 
 185   0.0000       5.666811       154.2018 
 186   0.0000       5.688826       154.8008 
 187   0.0000       5.795432       157.7017 
 188   0.0000       5.882266       160.0646 
 189   0.0000       5.904630       160.6732 
 190   0.0000       5.926836       161.2774 
 191   0.0000       6.065467       165.0497 
 192   0.0000       6.065475       165.0500 
 193   0.0000       6.245636       169.9524 
 194   0.0000       6.245729       169.9549 
 195   0.0000       6.958627       189.3539 
 196   0.0000       6.974373       189.7823 
 197   0.0000       7.045054       191.7057 
 198   0.0000       7.070600       192.4008 
 199   0.0000       7.070819       192.4068 
 200   0.0000       7.174993       195.2415 
 201   0.0000       7.174995       195.2415 
 202   0.0000       7.551176       205.4779 
 203   0.0000       7.786093       211.8704 
 204   0.0000       7.786259       211.8749 
 205   0.0000       8.173454       222.4110 
 206   0.0000       8.173487       222.4119 
 207   0.0000       8.229136       223.9262 
 208   0.0000       8.229148       223.9265 
 209   0.0000       8.236523       224.1272 
 210   0.0000       8.451222       229.9694 
 211   0.0000       8.452797       230.0123 
 212   0.0000       8.517331       231.7683 
 213   0.0000       8.537319       232.3123 
 214   0.0000       8.832114       240.3340 
 215   0.0000       8.857459       241.0237 
 216   0.0000       9.677445       263.3367 
 217   0.0000      11.591954       315.4331 
 218   0.0000      11.591962       315.4333 
 219   0.0000      11.656220       317.1819 
 220   0.0000      11.656397       317.1867 
 221   0.0000      11.775375       320.4242 
 222   0.0000      11.792921       320.9017 
 223   0.0000      12.058290       328.1228 
 224   0.0000      12.058529       328.1293 
 225   0.0000      12.299537       334.6874 
 226   0.0000      12.336684       335.6982 
 227   0.0000      12.347381       335.9893 
 228   0.0000      12.614971       343.2708 
 229   0.0000      12.615017       343.2721 
 230   0.0000      12.632621       343.7511 
 231   0.0000      12.632643       343.7517 
 232   0.0000      12.662157       344.5548 
 233   0.0000      12.662177       344.5554 
 234   0.0000      12.841556       349.4365 
 235   0.0000      12.851065       349.6953 
 236   0.0000      12.851821       349.7158 
 237   0.0000      13.127119       357.2071 
 238   0.0000      13.136513       357.4627 
 239   0.0000      13.419213       365.1553 
 240   0.0000      14.161723       385.3601 
 241   0.0000      14.174278       385.7017 
 242   0.0000      14.556538       396.1035 
 243   0.0000      14.905578       405.6014 
 244   0.0000      14.905580       405.6015 
 245   0.0000      14.993619       407.9971 
 246   0.0000      14.993659       407.9982 
 247   0.0000      15.333705       417.2513 
 248   0.0000      15.343904       417.5288 
 249   0.0000      15.354751       417.8240 
 250   0.0000      15.834137       430.8688 
 251   0.0000      16.845400       458.3866 
 252   0.0000      16.845460       458.3883 
 253   0.0000      16.959337       461.4870 
 254   0.0000      16.976546       461.9553 
 255   0.0000      17.914430       487.4764 
 256   0.0000      20.050323       545.5970 
 257   0.0000      20.050835       545.6110 
 258   0.0000      20.082298       546.4671 
 259   0.0000      20.082304       546.4673 
 260   0.0000      20.409204       555.3627 
 261   0.0000      20.409373       555.3673 
 262   0.0000      21.015906       571.8719 
 263   0.0000      21.026381       572.1569 
 264   0.0000      21.603595       587.8637 
 265   0.0000      29.600024       805.4576 
 266   0.0000      30.215993       822.2190 
 267   0.0000      30.216588       822.2352 
 268   0.0000      30.477113       829.3244 
 269   0.0000      30.487163       829.5979 
 270   0.0000      31.073849       845.5624 
 271   0.0000      41.395888      1126.4394 
 272   0.0000      41.406214      1126.7204 
 273   0.0000      41.725395      1135.4057 
 274   0.0000      42.609963      1159.4760 
 275   0.0000      62.326518      1695.9908 
 276   0.0000      62.326609      1695.9932 
 277   0.0000      62.371554      1697.2163 
 278   0.0000      62.383567      1697.5432 
 279   0.0000      62.842910      1710.0425 
 280   0.0000      91.172785      2480.9376 
 281   0.0000      91.172897      2480.9407 
 282   0.0000      91.352728      2485.8341 
 283   0.0000      91.359940      2486.0303 
 284   0.0000      91.764936      2497.0508 
 285   0.0000     201.442764      5481.5363 

                 SPIN DOWN ORBITALS
  NO   OCC          E(Eh)            E(eV) 
   0   1.0000     -88.110859     -2397.6184 
   1   1.0000     -24.311907      -661.5606 
   2   1.0000      -7.741603      -210.6597 
   3   1.0000      -5.768571      -156.9708 
   4   1.0000      -5.756723      -156.6484 
   5   1.0000      -5.749110      -156.4412 
   6   1.0000      -1.150453       -31.3054 
   7   1.0000      -0.639332       -17.3971 
   8   1.0000      -0.447788       -12.1849 
   9   1.0000      -0.430683       -11.7195 
  10   1.0000      -0.430406       -11.7119 
  11   1.0000      -0.209988        -5.7141 
  12   0.0000      -0.196838        -5.3562 
  13   0.0000      -0.087810        -2.3894 
  14   0.0000      -0.028898        -0.7864 
  15   0.0000       0.007847         0.2135 
  16   0.0000       0.008451         0.2300 
  17   0.0000       0.019435         0.5289 
  18   0.0000       0.065379         1.7791 
  19   0.0000       0.068537         1.8650 
  20   0.0000       0.080483         2.1901 
  21   0.0000       0.089455         2.4342 
  22   0.0000       0.091622         2.4932 
  23   0.0000       0.098515         2.6807 
  24   0.0000       0.112884         3.0717 
  25   0.0000       0.114412         3.1133 
  26   0.0000       0.141654         3.8546 
  27   0.0000       0.146395         3.9836 
  28   0.0000       0.151944         4.1346 
  29   0.0000       0.173931         4.7329 
  30   0.0000       0.207053         5.6342 
  31   0.0000       0.216019         5.8782 
  32   0.0000       0.218789         5.9536 
  33   0.0000       0.228934         6.2296 
  34   0.0000       0.229625         6.2484 
  35   0.0000       0.236049         6.4232 
  36   0.0000       0.237162         6.4535 
  37   0.0000       0.253343         6.8938 
  38   0.0000       0.256065         6.9679 
  39   0.0000       0.268393         7.3033 
  40   0.0000       0.272300         7.4097 
  41   0.0000       0.273583         7.4446 
  42   0.0000       0.298699         8.1280 
  43   0.0000       0.302789         8.2393 
  44   0.0000       0.339192         9.2299 
  45   0.0000       0.358486         9.7549 
  46   0.0000       0.362994         9.8776 
  47   0.0000       0.365036         9.9331 
  48   0.0000       0.392607        10.6834 
  49   0.0000       0.396801        10.7975 
  50   0.0000       0.403633        10.9834 
  51   0.0000       0.404433        11.0052 
  52   0.0000       0.414946        11.2913 
  53   0.0000       0.415345        11.3021 
  54   0.0000       0.432405        11.7663 
  55   0.0000       0.472112        12.8468 
  56   0.0000       0.472657        12.8617 
  57   0.0000       0.474559        12.9134 
  58   0.0000       0.477357        12.9896 
  59   0.0000       0.482388        13.1264 
  60   0.0000       0.523123        14.2349 
  61   0.0000       0.528690        14.3864 
  62   0.0000       0.545233        14.8366 
  63   0.0000       0.587335        15.9822 
  64   0.0000       0.588819        16.0226 
  65   0.0000       0.607747        16.5376 
  66   0.0000       0.608199        16.5499 
  67   0.0000       0.621804        16.9202 
  68   0.0000       0.622134        16.9291 
  69   0.0000       0.633038        17.2259 
  70   0.0000       0.637840        17.3565 
  71   0.0000       0.638056        17.3624 
  72   0.0000       0.649823        17.6826 
  73   0.0000       0.650251        17.6942 
  74   0.0000       0.670906        18.2563 
  75   0.0000       0.672644        18.3036 
  76   0.0000       0.685408        18.6509 
  77   0.0000       0.687204        18.6998 
  78   0.0000       0.696183        18.9441 
  79   0.0000       0.713911        19.4265 
  80   0.0000       0.717998        19.5377 
  81   0.0000       0.774179        21.0665 
  82   0.0000       0.785655        21.3787 
  83   0.0000       0.785911        21.3857 
  84   0.0000       0.805640        21.9226 
  85   0.0000       0.808533        22.0013 
  86   0.0000       0.847761        23.0687 
  87   0.0000       0.851947        23.1827 
  88   0.0000       0.852342        23.1934 
  89   0.0000       0.874265        23.7900 
  90   0.0000       0.875446        23.8221 
  91   0.0000       0.936208        25.4755 
  92   0.0000       0.938799        25.5460 
  93   0.0000       0.950263        25.8580 
  94   0.0000       0.950345        25.8602 
  95   0.0000       0.963534        26.2191 
  96   0.0000       0.996267        27.1098 
  97   0.0000       0.998232        27.1633 
  98   0.0000       1.032828        28.1047 
  99   0.0000       1.035211        28.1695 
 100   0.0000       1.086343        29.5609 
 101   0.0000       1.134907        30.8824 
 102   0.0000       1.162633        31.6369 
 103   0.0000       1.163225        31.6530 
 104   0.0000       1.178223        32.0611 
 105   0.0000       1.180308        32.1178 
 106   0.0000       1.201106        32.6837 
 107   0.0000       1.201185        32.6859 
 108   0.0000       1.213277        33.0150 
 109   0.0000       1.213302        33.0156 
 110   0.0000       1.289739        35.0956 
 111   0.0000       1.311758        35.6947 
 112   0.0000       1.312047        35.7026 
 113   0.0000       1.332951        36.2714 
 114   0.0000       1.334283        36.3077 
 115   0.0000       1.382878        37.6300 
 116   0.0000       1.391121        37.8543 
 117   0.0000       1.417302        38.5667 
 118   0.0000       1.514608        41.2146 
 119   0.0000       1.515750        41.2456 
 120   0.0000       1.548648        42.1409 
 121   0.0000       1.555275        42.3212 
 122   0.0000       1.559520        42.4367 
 123   0.0000       1.783640        48.5353 
 124   0.0000       1.788046        48.6552 
 125   0.0000       1.848834        50.3093 
 126   0.0000       2.048136        55.7326 
 127   0.0000       2.049012        55.7564 
 128   0.0000       2.090660        56.8898 
 129   0.0000       2.124880        57.8209 
 130   0.0000       2.127676        57.8970 
 131   0.0000       2.154993        58.6403 
 132   0.0000       2.155777        58.6617 
 133   0.0000       2.191720        59.6397 
 134   0.0000       2.191849        59.6432 
 135   0.0000       2.205225        60.0072 
 136   0.0000       2.206669        60.0465 
 137   0.0000       2.329695        63.3942 
 138   0.0000       2.333907        63.5088 
 139   0.0000       2.371051        64.5196 
 140   0.0000       2.477787        67.4240 
 141   0.0000       2.481138        67.5152 
 142   0.0000       2.584830        70.3368 
 143   0.0000       2.635782        71.7233 
 144   0.0000       2.636285        71.7370 
 145   0.0000       2.693288        73.2881 
 146   0.0000       2.694362        73.3173 
 147   0.0000       2.704025        73.5803 
 148   0.0000       2.885407        78.5159 
 149   0.0000       2.886136        78.5358 
 150   0.0000       2.983296        81.1796 
 151   0.0000       3.046419        82.8973 
 152   0.0000       3.050016        82.9952 
 153   0.0000       3.236745        88.0763 
 154   0.0000       3.346200        91.0547 
 155   0.0000       3.347324        91.0853 
 156   0.0000       3.480897        94.7200 
 157   0.0000       3.516156        95.6795 
 158   0.0000       3.520302        95.7923 
 159   0.0000       3.539623        96.3180 
 160   0.0000       3.548284        96.5537 
 161   0.0000       3.784264       102.9751 
 162   0.0000       3.787565       103.0649 
 163   0.0000       3.834535       104.3430 
 164   0.0000       3.868276       105.2612 
 165   0.0000       3.870976       105.3346 
 166   0.0000       4.994440       135.9056 
 167   0.0000       5.066135       137.8565 
 168   0.0000       5.067291       137.8880 
 169   0.0000       5.139462       139.8519 
 170   0.0000       5.140310       139.8750 
 171   0.0000       5.178284       140.9083 
 172   0.0000       5.178555       140.9157 
 173   0.0000       5.181141       140.9860 
 174   0.0000       5.181383       140.9926 
 175   0.0000       5.241559       142.6301 
 176   0.0000       5.243403       142.6803 
 177   0.0000       5.243708       142.6886 
 178   0.0000       5.252303       142.9224 
 179   0.0000       5.256618       143.0398 
 180   0.0000       5.394761       146.7989 
 181   0.0000       5.394900       146.8027 
 182   0.0000       5.542471       150.8183 
 183   0.0000       5.599716       152.3760 
 184   0.0000       5.604648       152.5102 
 185   0.0000       5.692072       154.8892 
 186   0.0000       5.692130       154.8907 
 187   0.0000       5.798407       157.7827 
 188   0.0000       5.908248       160.7716 
 189   0.0000       5.910379       160.8296 
 190   0.0000       5.940181       161.6406 
 191   0.0000       6.071419       165.2117 
 192   0.0000       6.071425       165.2119 
 193   0.0000       6.252404       170.1366 
 194   0.0000       6.253141       170.1566 
 195   0.0000       6.975862       189.8228 
 196   0.0000       6.977007       189.8540 
 197   0.0000       7.052821       191.9170 
 198   0.0000       7.076301       192.5559 
 199   0.0000       7.076518       192.5618 
 200   0.0000       7.181294       195.4129 
 201   0.0000       7.181373       195.4151 
 202   0.0000       7.561741       205.7654 
 203   0.0000       7.797291       212.1751 
 204   0.0000       7.798573       212.2100 
 205   0.0000       8.223309       223.7676 
 206   0.0000       8.223417       223.7705 
 207   0.0000       8.253028       224.5763 
 208   0.0000       8.265381       224.9125 
 209   0.0000       8.265730       224.9219 
 210   0.0000       8.472309       230.5432 
 211   0.0000       8.474827       230.6118 
 212   0.0000       8.537464       232.3162 
 213   0.0000       8.538709       232.3501 
 214   0.0000       8.857143       241.0151 
 215   0.0000       8.861825       241.1425 
 216   0.0000       9.682063       263.4623 
 217   0.0000      11.601685       315.6979 
 218   0.0000      11.601998       315.7064 
 219   0.0000      11.662161       317.3435 
 220   0.0000      11.663195       317.3717 
 221   0.0000      11.782593       320.6206 
 222   0.0000      11.791740       320.8696 
 223   0.0000      12.070725       328.4611 
 224   0.0000      12.071256       328.4756 
 225   0.0000      12.301943       334.7529 
 226   0.0000      12.348637       336.0235 
 227   0.0000      12.349258       336.0404 
 228   0.0000      12.620545       343.4225 
 229   0.0000      12.620589       343.4237 
 230   0.0000      12.640558       343.9671 
 231   0.0000      12.640566       343.9673 
 232   0.0000      12.666366       344.6693 
 233   0.0000      12.666378       344.6697 
 234   0.0000      12.846165       349.5619 
 235   0.0000      12.854652       349.7929 
 236   0.0000      12.854883       349.7991 
 237   0.0000      13.132762       357.3606 
 238   0.0000      13.136239       357.4552 
 239   0.0000      13.421641       365.2214 
 240   0.0000      14.177255       385.7827 
 241   0.0000      14.177745       385.7961 
 242   0.0000      14.561417       396.2363 
 243   0.0000      14.918680       405.9579 
 244   0.0000      14.918691       405.9582 
 245   0.0000      15.002128       408.2286 
 246   0.0000      15.002426       408.2368 
 247   0.0000      15.341026       417.4505 
 248   0.0000      15.355601       417.8471 
 249   0.0000      15.355625       417.8478 
 250   0.0000      15.838632       430.9911 
 251   0.0000      16.856800       458.6969 
 252   0.0000      16.857369       458.7123 
 253   0.0000      16.971105       461.8072 
 254   0.0000      16.977045       461.9689 
 255   0.0000      17.918885       487.5976 
 256   0.0000      20.063681       545.9605 
 257   0.0000      20.064179       545.9741 
 258   0.0000      20.092023       546.7317 
 259   0.0000      20.092034       546.7320 
 260   0.0000      20.416658       555.5655 
 261   0.0000      20.416720       555.5672 
 262   0.0000      21.026933       572.1719 
 263   0.0000      21.027159       572.1781 
 264   0.0000      21.608889       588.0078 
 265   0.0000      29.617288       805.9274 
 266   0.0000      30.231353       822.6369 
 267   0.0000      30.232223       822.6606 
 268   0.0000      30.488296       829.6287 
 269   0.0000      30.492170       829.7341 
 270   0.0000      31.079005       845.7027 
 271   0.0000      41.409235      1126.8026 
 272   0.0000      41.411021      1126.8512 
 273   0.0000      41.729375      1135.5140 
 274   0.0000      42.615568      1159.6286 
 275   0.0000      62.341041      1696.3860 
 276   0.0000      62.341169      1696.3895 
 277   0.0000      62.385899      1697.6066 
 278   0.0000      62.386029      1697.6102 
 279   0.0000      62.849143      1710.2121 
 280   0.0000      91.182443      2481.2004 
 281   0.0000      91.182711      2481.2077 
 282   0.0000      91.360728      2486.0518 
 283   0.0000      91.362240      2486.0929 
 284   0.0000      91.768296      2497.1423 
 285   0.0000     201.446370      5481.6344 

                    ********************************
                    * MULLIKEN POPULATION ANALYSIS *
                    ********************************

--------------------------------------------
MULLIKEN ATOMIC CHARGES AND SPIN POPULATIONS
--------------------------------------------
   0 S :    0.058428    0.922589
   1 F :   -0.058428    0.077411
Sum of atomic charges         :   -0.0000000
Sum of atomic spin populations:    1.0000000

-----------------------------------------------------
MULLIKEN REDUCED ORBITAL CHARGES AND SPIN POPULATIONS
-----------------------------------------------------
CHARGE
  0 S s       :     6.073665  s :     6.073665
      pz      :     2.561038  p :     9.679114
      px      :     3.095632
      py      :     4.022444
      dz2     :     0.054028  d :     0.152978
      dxz     :     0.048202
      dyz     :     0.049462
      dx2y2   :     0.001286
      dxy     :     0.000000
      f0      :     0.009605  f :     0.030430
      f+1     :     0.010399
      f-1     :     0.009889
      f+2     :     0.000037
      f-2     :     0.000000
      f+3     :     0.000236
      f-3     :     0.000264
      g0      :     0.002100  g :     0.004993
      g+1     :     0.001305
      g-1     :     0.001581
      g+2     :     0.000001
      g-2     :     0.000000
      g+3     :     0.000002
      g-3     :     0.000002
      g+4     :     0.000002
      g-4     :     0.000000
      h0      :     0.000355  h :     0.000392
      h+1     :     0.000033
      h-1     :     0.000003
      h+2     :     0.000000
      h-2     :     0.000000
      h+3     :     0.000000
      h-3     :     0.000000
      h+4     :     0.000000
      h-4     :     0.000000
      h+5     :     0.000000
      h-5     :     0.000001
  1 F s       :     3.870624  s :     3.870624
      pz      :     1.425246  p :     5.162530
      px      :     1.830705
      py      :     1.906580
      dz2     :     0.000938  d :     0.019117
      dxz     :     0.009427
      dyz     :     0.008747
      dx2y2   :     0.000005
      dxy     :     0.000000
      f0      :     0.000696  f :     0.003118
      f+1     :     0.002529
      f-1     :    -0.000128
      f+2     :    -0.000007
      f-2     :    -0.000000
      f+3     :     0.000012
      f-3     :     0.000016
      g0      :     0.000311  g :     0.002333
      g+1     :     0.001187
      g-1     :     0.000824
      g+2     :    -0.000004
      g-2     :    -0.000000
      g+3     :     0.000006
      g-3     :     0.000009
      g+4     :     0.000000
      g-4     :     0.000000
      h0      :     0.000076  h :     0.000706
      h+1     :     0.000323
      h-1     :     0.000303
      h+2     :    -0.000000
      h-2     :    -0.000000
      h+3     :     0.000002
      h-3     :     0.000003
      h+4     :     0.000000
      h-4     :     0.000000
      h+5     :     0.000000
      h-5     :    -0.000000

SPIN
  0 S s       :     0.006124  s :     0.006124
      pz      :     0.004391  p :     0.905690
      px      :     0.903307
      py      :    -0.002007
      dz2     :     0.002770  d :     0.010445
      dxz     :     0.006120
      dyz     :     0.000492
      dx2y2   :     0.001063
      dxy     :     0.000000
      f0      :    -0.000801  f :     0.000652
      f+1     :     0.000724
      f-1     :     0.000223
      f+2     :     0.000030
      f-2     :     0.000000
      f+3     :     0.000229
      f-3     :     0.000246
      g0      :    -0.000063  g :    -0.000295
      g+1     :    -0.000133
      g-1     :    -0.000101
      g+2     :     0.000000
      g-2     :     0.000000
      g+3     :     0.000002
      g-3     :     0.000002
      g+4     :    -0.000002
      g-4     :    -0.000000
      h0      :     0.000004  h :    -0.000028
      h+1     :    -0.000029
      h-1     :    -0.000002
      h+2     :    -0.000000
      h-2     :    -0.000000
      h+3     :     0.000000
      h-3     :     0.000000
      h+4     :    -0.000000
      h-4     :    -0.000000
      h+5     :    -0.000000
      h-5     :    -0.000001
  1 F s       :    -0.000324  s :    -0.000324
      pz      :    -0.011305  p :     0.068445
      px      :     0.079990
      py      :    -0.000239
      dz2     :    -0.001179  d :     0.005399
      dxz     :     0.006259
      dyz     :     0.000315
      dx2y2   :     0.000003
      dxy     :     0.000000
      f0      :    -0.000546  f :     0.002360
      f+1     :     0.002193
      f-1     :     0.000695
      f+2     :    -0.000008
      f-2     :    -0.000000
      f+3     :     0.000011
      f-3     :     0.000015
      g0      :    -0.000144  g :     0.001227
      g+1     :     0.001068
      g-1     :     0.000293
      g+2     :    -0.000006
      g-2     :    -0.000000
      g+3     :     0.000007
      g-3     :     0.000009
      g+4     :    -0.000000
      g-4     :    -0.000000
      h0      :    -0.000005  h :     0.000304
      h+1     :     0.000250
      h-1     :     0.000056
      h+2     :    -0.000002
      h-2     :    -0.000000
      h+3     :     0.000002
      h-3     :     0.000003
      h+4     :    -0.000000
      h-4     :    -0.000000
      h+5     :    -0.000000
      h-5     :     0.000000


                     *******************************
                     * LOEWDIN POPULATION ANALYSIS *
                     *******************************

-------------------------------------------
LOEWDIN ATOMIC CHARGES AND SPIN POPULATIONS
-------------------------------------------
   0 S :    1.020432    0.676120
   1 F :   -1.020432    0.323880

----------------------------------------------------
LOEWDIN REDUCED ORBITAL CHARGES AND SPIN POPULATIONS
----------------------------------------------------
CHARGE
  0 S s       :     5.298938  s :     5.298938
      pz      :     2.639371  p :     8.912382
      px      :     2.816760
      py      :     3.456251
      dz2     :     0.196080  d :     0.422615
      dxz     :     0.104595
      dyz     :     0.120856
      dx2y2   :     0.001083
      dxy     :     0.000000
      f0      :     0.093255  f :     0.214577
      f+1     :     0.057199
      f-1     :     0.063619
      f+2     :     0.000042
      f-2     :     0.000000
      f+3     :     0.000219
      f-3     :     0.000244
      g0      :     0.037726  g :     0.095758
      g+1     :     0.026547
      g-1     :     0.031476
      g+2     :     0.000001
      g-2     :     0.000000
      g+3     :     0.000002
      g-3     :     0.000003
      g+4     :     0.000002
      g-4     :     0.000000
      h0      :     0.013958  h :     0.035299
      h+1     :     0.009999
      h-1     :     0.011341
      h+2     :     0.000000
      h-2     :     0.000000
      h+3     :     0.000000
      h-3     :     0.000000
      h+4     :     0.000000
      h-4     :     0.000000
      h+5     :     0.000000
      h-5     :     0.000001
  1 F s       :     3.658726  s :     3.658726
      pz      :     1.719977  p :     5.331018
      px      :     1.743419
      py      :     1.867622
      dz2     :     0.204046  d :     0.539032
      dxz     :     0.113648
      dyz     :     0.221314
      dx2y2   :     0.000024
      dxy     :     0.000000
      f0      :     0.087424  f :     0.295976
      f+1     :     0.073369
      f-1     :     0.135112
      f+2     :     0.000048
      f-2     :     0.000000
      f+3     :     0.000010
      f-3     :     0.000013
      g0      :     0.032675  g :     0.134731
      g+1     :     0.037222
      g-1     :     0.064740
      g+2     :     0.000063
      g-2     :     0.000000
      g+3     :     0.000014
      g-3     :     0.000017
      g+4     :     0.000000
      g-4     :     0.000000
      h0      :     0.016505  h :     0.060948
      h+1     :     0.016982
      h-1     :     0.027374
      h+2     :     0.000056
      h-2     :     0.000000
      h+3     :     0.000014
      h-3     :     0.000017
      h+4     :     0.000000
      h-4     :     0.000000
      h+5     :     0.000000
      h-5     :     0.000000

SPIN
  0 S s       :     0.001158  s :     0.001158
      pz      :    -0.002015  p :     0.644182
      px      :     0.645806
      py      :     0.000391
      dz2     :     0.003270  d :     0.019560
      dxz     :     0.016203
      dyz     :    -0.000808
      dx2y2   :     0.000894
      dxy     :     0.000000
      f0      :    -0.001115  f :     0.006372
      f+1     :     0.006890
      f-1     :     0.000121
      f+2     :     0.000034
      f-2     :     0.000000
      f+3     :     0.000213
      f-3     :     0.000229
      g0      :    -0.000104  g :     0.003751
      g+1     :     0.004015
      g-1     :    -0.000164
      g+2     :     0.000000
      g-2     :     0.000000
      g+3     :     0.000002
      g-3     :     0.000002
      g+4     :    -0.000002
      g-4     :    -0.000000
      h0      :    -0.000026  h :     0.001096
      h+1     :     0.001139
      h-1     :    -0.000016
      h+2     :    -0.000000
      h-2     :    -0.000000
      h+3     :    -0.000000
      h-3     :     0.000000
      h+4     :    -0.000000
      h-4     :    -0.000000
      h+5     :    -0.000000
      h-5     :    -0.000001
  1 F s       :     0.000633  s :     0.000633
      pz      :    -0.003846  p :     0.110612
      px      :     0.114940
      py      :    -0.000482
      dz2     :     0.001309  d :     0.099260
      dxz     :     0.098789
      dyz     :    -0.000856
      dx2y2   :     0.000019
      dxy     :     0.000000
      f0      :     0.000241  f :     0.068028
      f+1     :     0.066917
      f-1     :     0.000813
      f+2     :     0.000038
      f-2     :     0.000000
      f+3     :     0.000009
      f-3     :     0.000011
      g0      :    -0.000381  g :     0.032698
      g+1     :     0.032441
      g-1     :     0.000558
      g+2     :     0.000050
      g-2     :     0.000000
      g+3     :     0.000014
      g-3     :     0.000017
      g+4     :    -0.000000
      g-4     :    -0.000000
      h0      :    -0.000202  h :     0.012648
      h+1     :     0.012608
      h-1     :     0.000167
      h+2     :     0.000045
      h-2     :     0.000000
      h+3     :     0.000014
      h-3     :     0.000016
      h+4     :    -0.000000
      h-4     :    -0.000000
      h+5     :    -0.000000
      h-5     :    -0.000000


                      *****************************
                      * MAYER POPULATION ANALYSIS *
                      *****************************

  NA   - Mulliken gross atomic population
  ZA   - Total nuclear charge
  QA   - Mulliken gross atomic charge
  VA   - Mayer's total valence
  BVA  - Mayer's bonded valence
  FA   - Mayer's free valence

  ATOM       NA         ZA         QA         VA         BVA        FA
  0 S     15.9416    16.0000     0.0584     1.7919     0.9599     0.8320
  1 F      9.0584     9.0000    -0.0584     0.9787     0.9599     0.0188

  Mayer bond orders larger than 0.1
B(  0-S ,  1-F ) :   0.9599 

-------
TIMINGS
-------

Total SCF time: 0 days 0 hours 6 min 53 sec 

Total time                  ....     413.415 sec
Sum of individual times     ....     412.680 sec  ( 99.8%)

Fock matrix formation       ....     410.823 sec  ( 99.4%)
  XC integration            ....       6.764 sec  (  1.6% of F)
    Basis function eval.    ....       0.524 sec  (  7.7% of XC)
    Density eval.           ....       1.200 sec  ( 17.7% of XC)
    XC-Functional eval.     ....       0.101 sec  (  1.5% of XC)
    XC-Potential eval.      ....       4.366 sec  ( 64.5% of XC)
Diagonalization             ....       0.716 sec  (  0.2%)
Density matrix formation    ....       0.017 sec  (  0.0%)
Population analysis         ....       0.065 sec  (  0.0%)
Initial guess               ....       0.399 sec  (  0.1%)
Orbital Transformation      ....       0.000 sec  (  0.0%)
Orbital Orthonormalization  ....       0.000 sec  (  0.0%)
DIIS solution               ....       0.380 sec  (  0.1%)
Grid generation             ....       0.281 sec  (  0.1%)

-------------------------   --------------------
FINAL SINGLE POINT ENERGY      -497.784244575363
-------------------------   --------------------


                            ***************************************
                            *     ORCA property calculations      *
                            ***************************************

                                    ---------------------
                                    Active property flags
                                    ---------------------
   (+) Dipole Moment


------------------------------------------------------------------------------
                       ORCA ELECTRIC PROPERTIES CALCULATION
------------------------------------------------------------------------------

Dipole Moment Calculation                       ... on
Quadrupole Moment Calculation                   ... off
Polarizability Calculation                      ... off
GBWName                                         ... sf_pbe_-001_z.gbw
Electron density file                           ... sf_pbe_-001_z.scfp.tmp
The origin for moment calculation is the CENTER OF MASS  = ( 0.000000,  0.000000  1.125449)

-------------
DIPOLE MOMENT
-------------
                                X             Y             Z
Electronic contribution:     -0.00000      -0.00000       0.44623
Nuclear contribution   :      0.00000       0.00000      -0.91396
                        -----------------------------------------
Total Dipole Moment    :     -0.00000      -0.00000      -0.46773
                        -----------------------------------------
Magnitude (a.u.)       :      0.46773
Magnitude (Debye)      :      1.18888



--------------------
Rotational spectrum 
--------------------
 
Rotational constants in cm-1:     0.000000     0.551599     0.551599 
Rotational constants in MHz :     0.000000 16536.529748 16536.529748 

 Dipole components along the rotational axes: 
x,y,z [a.u.] :    -0.467733    -0.000000    -0.000000 
x,y,z [Debye]:    -1.188884    -0.000000    -0.000000 

 

Timings for individual modules:

Sum of individual times         ...      415.357 sec (=   6.923 min)
GTO integral calculation        ...        1.611 sec (=   0.027 min)   0.4 %
SCF iterations                  ...      413.746 sec (=   6.896 min)  99.6 %
                             ****ORCA TERMINATED NORMALLY****
TOTAL RUN TIME: 0 days 0 hours 6 minutes 56 seconds 338 msec
