
                                 *****************
                                 * O   R   C   A *
                                 *****************

           --- An Ab Initio, DFT and Semiempirical electronic structure package ---

                  #######################################################
                  #                        -***-                        #
                  #          Department of theory and spectroscopy      #
                  #               Directorship: Frank Neese             #
                  #        Max Planck Institute fuer Kohlenforschung    #
                  #                Kaiser Wilhelm Platz 1               #
                  #                 D-45470 Muelheim/Ruhr               #
                  #                      Germany                        #
                  #                                                     #
                  #                  All rights reserved                #
                  #                        -***-                        #
                  #######################################################


                         Program Version 4.1.1  - RELEASE  -


 With contributions from (in alphabetic order):
   Daniel Aravena         : Magnetic Properties
   Michael Atanasov       : Ab Initio Ligand Field Theory
   Alexander A. Auer      : GIAO ZORA
   Ute Becker             : Parallelization
   Giovanni Bistoni       : ED, Open-shell LED
   Martin Brehm           : Molecular dynamics
   Dmytro Bykov           : SCF Hessian
   Vijay G. Chilkuri      : MRCI spin determinant printing
   Dipayan Datta          : RHF DLPNO-CCSD density
   Achintya Kumar Dutta   : EOM-CC, STEOM-CC
   Dmitry Ganyushin       : Spin-Orbit,Spin-Spin,Magnetic field MRCI
   Miquel Garcia          : C-PCM Hessian
   Yang Guo               : DLPNO-NEVPT2, CIM, IAO-localization
   Andreas Hansen         : Spin unrestricted coupled pair/coupled cluster methods
   Benjamin Helmich-Paris : CASSCF linear response (MC-RPA)
   Lee Huntington         : MR-EOM, pCC
   Robert Izsak           : Overlap fitted RIJCOSX, COSX-SCS-MP3, EOM
   Christian Kollmar      : KDIIS, OOCD, Brueckner-CCSD(T), CCSD density
   Simone Kossmann        : Meta GGA functionals, TD-DFT gradient, OOMP2, MP2 Hessian
   Martin Krupicka        : AUTO-CI
   Lucas Lang             : DCDCAS
   Dagmar Lenk            : GEPOL surface, SMD
   Dimitrios Liakos       : Extrapolation schemes; parallel MDCI
   Dimitrios Manganas     : ROCIS; embedding schemes
   Dimitrios Pantazis     : SARC Basis sets
   Taras Petrenko         : DFT Hessian,TD-DFT gradient, ASA, ECA, R-Raman, ABS, FL, XAS/XES, NRVS
   Peter Pinski           : DLPNO-MP2, DLPNO-MP2 Gradient
   Christoph Reimann      : Effective Core Potentials
   Marius Retegan         : Local ZFS, SOC
   Christoph Riplinger    : Optimizer, TS searches, QM/MM, DLPNO-CCSD(T), (RO)-DLPNO pert. Triples
   Tobias Risthaus        : Range-separated hybrids, TD-DFT gradient, RPA, STAB
   Michael Roemelt        : Restricted open shell CIS
   Masaaki Saitow         : Open-shell DLPNO
   Barbara Sandhoefer     : DKH picture change effects
   Avijit Sen             : IP-ROCIS
   Kantharuban Sivalingam : CASSCF convergence, NEVPT2, FIC-MRCI
   Bernardo de Souza      : ESD, SOC TD-DFT
   Georgi Stoychev        : AutoAux, RI-MP2 NMR
   Willem Van den Heuvel  : Paramagnetic NMR
   Boris Wezisla          : Elementary symmetry handling
   Frank Wennmohs         : Technical directorship


 We gratefully acknowledge several colleagues who have allowed us to
 interface, adapt or use parts of their codes:
   Stefan Grimme, W. Hujo, H. Kruse,             : VdW corrections, initial TS optimization,
                  C. Bannwarth                     DFT functionals, gCP, sTDA/sTD-DF
   Ed Valeev                                     : LibInt (2-el integral package), F12 methods
   Garnet Chan, S. Sharma, J. Yang, R. Olivares  : DMRG
   Ulf Ekstrom                                   : XCFun DFT Library
   Mihaly Kallay                                 : mrcc  (arbitrary order and MRCC methods)
   Andreas Klamt, Michael Diedenhofen            : otool_cosmo (COSMO solvation model)
   Jiri Pittner, Ondrej Demel                    : Mk-CCSD
   Frank Weinhold                                : gennbo (NPA and NBO analysis)
   Christopher J. Cramer and Donald G. Truhlar   : smd solvation model
   Lars Goerigk                                  : TD-DFT with DH, B97 family of functionals
   V. Asgeirsson, H. Jonsson                     : NEB implementation
   FAccTs GmbH                                   : IRC, NEB, NEB-TS, Multilevel


 Your calculation uses the libint2 library for the computation of 2-el integrals
 For citations please refer to: http://libint.valeyev.net

 This ORCA versions uses:
   CBLAS   interface :  Fast vector & matrix operations
   LAPACKE interface :  Fast linear algebra routines
   SCALAPACK package :  Parallel linear algebra routines


----- Orbital basis set information -----
Your calculation utilizes the basis: aug-pc-4
   H, C-F              : F. Jensen, J. Chem. Phys. 115, 9113 (2001).
                         F. Jensen, J. Chem. Phys. 116, 7372 (2002).
                         F. Jensen, J. Chem. Phys. 117, 9234 (2002).
   Si-Cl               : F. Jensen, T. Helgaker, J. Chem. Phys. 121, 3463 (2004).
   He-B, Ne-Mg, Al, Ar : F. Jensen, J. Phys. Chem. A 111, 11198 (2007).
   K, Ca, Ga-Kr        : F. Jensen, J. Chem. Phys. 136, 094110 (2012).
   Sc-Zn               : F. Jensen, J. Chem. Phys. 138, 014107 (2013).

================================================================================
                                        WARNINGS
                       Please study these warnings very carefully!
================================================================================


INFO   : the flag for use of LIBINT has been found!

================================================================================
                                       INPUT FILE
================================================================================
NAME = sf_pbe_-001_x.inp
|  1> ! uks pbe nori aug-pc-4 grid5 nofinalgrid verytightscf
|  2> 
|  3> %maxcore 1500
|  4> 
|  5> %pal nprocs 4 end
|  6> %scf
|  7>     efield -0.01, 0.0, 0.0
|  8>     maxiter 300
|  9> end
| 10> * xyz 0 2
| 11> S	0.0000	0.0000	0.0000
| 12> F	0.0000	0.0000	1.6006
| 13> *
| 14> 
| 15>                          ****END OF INPUT****
================================================================================

                       ****************************
                       * Single Point Calculation *
                       ****************************

---------------------------------
CARTESIAN COORDINATES (ANGSTROEM)
---------------------------------
  S      0.000000    0.000000    0.000000
  F      0.000000    0.000000    1.600600

----------------------------
CARTESIAN COORDINATES (A.U.)
----------------------------
  NO LB      ZA    FRAG     MASS         X           Y           Z
   0 S    16.0000    0    32.060    0.000000    0.000000    0.000000
   1 F     9.0000    0    18.998    0.000000    0.000000    3.024696

--------------------------------
INTERNAL COORDINATES (ANGSTROEM)
--------------------------------
 S      0   0   0     0.000000000000     0.00000000     0.00000000
 F      1   0   0     1.600600000000     0.00000000     0.00000000

---------------------------
INTERNAL COORDINATES (A.U.)
---------------------------
 S      0   0   0     0.000000000000     0.00000000     0.00000000
 F      1   0   0     3.024695649954     0.00000000     0.00000000

---------------------
BASIS SET INFORMATION
---------------------
There are 2 groups of distinct atoms

 Group   1 Type S   : 44s27p7d4f3g2h contracted to 8s7p7d4f3g2h pattern {15121211111/111111111/1111111/1111/111/11}
 Group   2 Type F   : 27s12p7d4f3g2h contracted to 9s8p7d4f3g2h pattern {1191111111/51111111/1111111/1111/111/11}

Atom   0S    basis set group =>   1
Atom   1F    basis set group =>   2


           ************************************************************
           *        Program running with 4 parallel MPI-processes     *
           *              working on a common directory               *
           ************************************************************
------------------------------------------------------------------------------
                           ORCA GTO INTEGRAL CALCULATION
------------------------------------------------------------------------------

                         BASIS SET STATISTICS AND STARTUP INFO

 # of primitive gaussian shells          ...  142
 # of primitive gaussian functions       ...  412
 # of contracted shells                  ...   64
 # of contracted basis functions         ...  286
 Highest angular momentum                ...    5
 Maximum contraction depth               ...   15
 Integral package used                   ... LIBINT
 Integral threshhold            Thresh   ...  1.000e-12
 Primitive cut-off              TCut     ...  1.000e-14


------------------------------ INTEGRAL EVALUATION ----------------------------


 * One electron integrals 
 Pre-screening matrix                    ... done
 Shell pair data                         ... done (   0.001 sec)


An Electric Field will be added: -1.000e-02 0.000e+00 0.000e+00 au

  ... done adding electric field perturbation



           ************************************************************
           *        Program running with 4 parallel MPI-processes     *
           *              working on a common directory               *
           ************************************************************
-------------------------------------------------------------------------------
                                 ORCA SCF
-------------------------------------------------------------------------------

------------
SCF SETTINGS
------------
Hamiltonian:
 Density Functional     Method          .... DFT(GTOs)
 Exchange Functional    Exchange        .... PBE
   PBE kappa parameter   XKappa         ....  0.804000
   PBE mue parameter    XMuePBE         ....  0.219520
 Correlation Functional Correlation     .... PBE
   PBE beta parameter  CBetaPBE         ....  0.066725
 LDA part of GGA corr.  LDAOpt          .... PW91-LDA
 Gradients option       PostSCFGGA      .... off
   Density functional embedding theory  .... OFF
   NL short-range parameter             ....  6.400000


General Settings:
 Integral files         IntName         .... sf_pbe_-001_x
 Hartree-Fock type      HFTyp           .... UHF
 Total Charge           Charge          ....    0
 Multiplicity           Mult            ....    2
 Number of Electrons    NEL             ....   25
 Basis Dimension        Dim             ....  286
 Nuclear Repulsion      ENuc            ....     47.6080957111 Eh

Convergence Acceleration:
 DIIS                   CNVDIIS         .... on
   Start iteration      DIISMaxIt       ....    12
   Startup error        DIISStart       ....  0.200000
   # of expansion vecs  DIISMaxEq       ....     5
   Bias factor          DIISBfac        ....   1.050
   Max. coefficient     DIISMaxC        ....  10.000
 Newton-Raphson         CNVNR           .... off
 SOSCF                  CNVSOSCF        .... off
 Level Shifting         CNVShift        .... on
   Level shift para.    LevelShift      ....    0.2500
   Turn off err/grad.   ShiftErr        ....    0.0010
 Zerner damping         CNVZerner       .... off
 Static damping         CNVDamp         .... on
   Fraction old density DampFac         ....    0.7000
   Max. Damping (<1)    DampMax         ....    0.9800
   Min. Damping (>=0)   DampMin         ....    0.0000
   Turn off err/grad.   DampErr         ....    0.1000
 Fernandez-Rico         CNVRico         .... off

SCF Procedure:
 Maximum # iterations   MaxIter         ....   300
 SCF integral mode      SCFMode         .... Direct
   Integral package                     .... LIBINT
 Reset frequency        DirectResetFreq ....    20
 Integral Threshold     Thresh          ....  1.000e-12 Eh
 Primitive CutOff       TCut            ....  1.000e-14 Eh

Convergence Tolerance:
 Convergence Check Mode ConvCheckMode   .... Total+1el-Energy
 Convergence forced     ConvForced      .... 0
 Energy Change          TolE            ....  1.000e-09 Eh
 1-El. energy change                    ....  1.000e-06 Eh
 DIIS Error             TolErr          ....  1.000e-08


Diagonalization of the overlap matrix:
Smallest eigenvalue                        ... 1.366e-05
Time for diagonalization                   ...    0.027 sec
Threshold for overlap eigenvalues          ... 1.000e-08
Number of eigenvalues below threshold      ... 0
Time for construction of square roots      ...    0.013 sec
Total time needed                          ...    0.040 sec

-------------------
DFT GRID GENERATION
-------------------

General Integration Accuracy     IntAcc      ...  5.010
Radial Grid Type                 RadialGrid  ... Gauss-Chebyshev
Angular Grid (max. acc.)         AngularGrid ... Lebedev-434
Angular grid pruning method      GridPruning ... 3 (G Style)
Weight generation scheme         WeightScheme... Becke
Basis function cutoff            BFCut       ...    1.0000e-12
Integration weight cutoff        WCut        ...    1.0000e-14
Grids for H and He will be reduced by one unit

# of grid points (after initial pruning)     ...  22558 (   0.0 sec)
# of grid points (after weights+screening)   ...  22492 (   0.0 sec)
nearest neighbour list constructed           ...    0.0 sec
Grid point re-assignment to atoms done       ...    0.0 sec
Grid point division into batches done        ...    0.2 sec
Reduced shell lists constructed in    0.3 sec

Total number of grid points                  ...    22492
Total number of batches                      ...      352
Average number of points per batch           ...       63
Average number of grid points per atom       ...    11246
Average number of shells per batch           ...    36.22 (56.60%)
Average number of basis functions per batch  ...   167.91 (58.71%)
Average number of large shells per batch     ...    30.72 (84.80%)
Average number of large basis fcns per batch ...   144.43 (86.01%)
Maximum spatial batch extension              ...  18.71, 18.71, 15.96 au
Average spatial batch extension              ...   1.45,  1.45,  1.28 au

Time for grid setup =    0.287 sec

------------------------------
INITIAL GUESS: MODEL POTENTIAL
------------------------------
Loading Hartree-Fock densities                     ... done
Calculating cut-offs                               ... done
Setting up the integral package                    ... done
Initializing the effective Hamiltonian             ... done
Starting the Coulomb interaction                   ... done (   0.0 sec)
Reading the grid                                   ... done
Mapping shells                                     ... done
Starting the XC term evaluation                    ... done (   0.2 sec)
  promolecular density results
     # of electrons  =     25.000000708
     EX              =    -34.840625308
     EC              =     -0.921356085
     EX+EC           =    -35.761981393
Transforming the Hamiltonian                       ... done (   0.0 sec)
Diagonalizing the Hamiltonian                      ... done (   0.0 sec)
Back transforming the eigenvectors                 ... done (   0.0 sec)
Now organizing SCF variables                       ... done
                      ------------------
                      INITIAL GUESS DONE (   0.7 sec)
                      ------------------
--------------
SCF ITERATIONS
--------------
ITER       Energy         Delta-E        Max-DP      RMS-DP      [F,P]     Damp
               ***  Starting incremental Fock matrix formation  ***
  0   -497.7654708207   0.000000000000 0.00781293  0.00010376  0.1136064 0.7000
  1   -497.7733651865  -0.007894365782 0.00593423  0.00006686  0.0269775 0.7000
                               ***Turning on DIIS***
  2   -497.7754766717  -0.002111485215 0.01479287  0.00014949  0.0130661 0.0000
  3   -497.7814915372  -0.006014865512 0.00301256  0.00003747  0.0099650 0.0000
  4   -497.7817036876  -0.000212150374 0.00122046  0.00001497  0.0126559 0.0000
  5   -497.7818450627  -0.000141375157 0.00117976  0.00001007  0.0040912 0.0000
  6   -497.7818680373  -0.000022974558 0.00050297  0.00000522  0.0013697 0.0000
  7   -497.7818718003  -0.000003763018 0.00079899  0.00000593  0.0004087 0.0000
  8   -497.7818727310  -0.000000930746 0.00006486  0.00000058  0.0000864 0.0000
  9   -497.7818727699  -0.000000038853 0.00003166  0.00000026  0.0000363 0.0000
 10   -497.7818727773  -0.000000007391 0.00001205  0.00000007  0.0000159 0.0000
 11   -497.7818727779  -0.000000000584 0.00000415  0.00000003  0.0000033 0.0000
 12   -497.7818727780  -0.000000000101 0.00000155  0.00000002  0.0000019 0.0000
 13   -497.7818727780  -0.000000000033 0.00000326  0.00000003  0.0000002 0.0000
 14   -497.7818727780  -0.000000000005 0.00000059  0.00000000  0.0000002 0.0000
                 **** Energy Check signals convergence ****

               *****************************************************
               *                     SUCCESS                       *
               *           SCF CONVERGED AFTER  15 CYCLES          *
               *****************************************************


----------------
TOTAL SCF ENERGY
----------------

Total Energy       :         -497.78187278 Eh          -13545.33339 eV

Components:
Nuclear Repulsion  :           47.60809571 Eh            1295.48215 eV
Electronic Energy  :         -545.38996849 Eh          -14840.81554 eV
One Electron Energy:         -783.40318454 Eh          -21317.48441 eV
Two Electron Energy:          238.01321606 Eh            6476.66888 eV

Virial components:
Potential Energy   :         -994.97371810 Eh          -27074.61132 eV
Kinetic Energy     :          497.19184532 Eh           13529.27793 eV
Virial Ratio       :            2.00118672


DFT components:
N(Alpha)           :       13.000000938443 electrons
N(Beta)            :       12.000000934735 electrons
N(Total)           :       25.000001873178 electrons
E(X)               :      -34.911054169182 Eh       
E(C)               :       -0.913922999706 Eh       
E(XC)              :      -35.824977168888 Eh       
DFET-embed. en.    :        0.000000000000 Eh       

---------------
SCF CONVERGENCE
---------------

  Last Energy change         ...   -3.1832e-12  Tolerance :   1.0000e-09
  Last MAX-Density change    ...    1.4243e-06  Tolerance :   1.0000e-08
  Last RMS-Density change    ...    1.0130e-08  Tolerance :   1.0000e-09
  Last DIIS Error            ...    9.3161e-08  Tolerance :   1.0000e-08

             **** THE GBW FILE WAS UPDATED (sf_pbe_-001_x.gbw) ****
             **** DENSITY FILE WAS UPDATED (sf_pbe_-001_x.scfp.tmp) ****
             **** ENERGY FILE WAS UPDATED (sf_pbe_-001_x.en.tmp) ****
----------------------
UHF SPIN CONTAMINATION
----------------------

Warning: in a DFT calculation there is little theoretical justification to 
         calculate <S**2> as in Hartree-Fock theory. We will do it anyways
         but you should keep in mind that the values have only limited relevance

Expectation value of <S**2>     :     0.753537
Ideal value S*(S+1) for S=0.5   :     0.750000
Deviation                       :     0.003537

----------------
ORBITAL ENERGIES
----------------
                 SPIN UP ORBITALS
  NO   OCC          E(Eh)            E(eV) 
   0   1.0000     -88.123134     -2397.9524 
   1   1.0000     -24.315672      -661.6631 
   2   1.0000      -7.753910      -210.9946 
   3   1.0000      -5.778650      -157.2450 
   4   1.0000      -5.777647      -157.2178 
   5   1.0000      -5.759901      -156.7349 
   6   1.0000      -1.155574       -31.4448 
   7   1.0000      -0.667929       -18.1753 
   8   1.0000      -0.466052       -12.6819 
   9   1.0000      -0.448603       -12.2071 
  10   1.0000      -0.431138       -11.7319 
  11   1.0000      -0.269960        -7.3460 
  12   1.0000      -0.228936        -6.2297 
  13   0.0000      -0.109143        -2.9699 
  14   0.0000      -0.037775        -1.0279 
  15   0.0000       0.005838         0.1589 
  16   0.0000       0.010645         0.2897 
  17   0.0000       0.027568         0.7502 
  18   0.0000       0.049383         1.3438 
  19   0.0000       0.063966         1.7406 
  20   0.0000       0.070124         1.9082 
  21   0.0000       0.075629         2.0580 
  22   0.0000       0.077256         2.1023 
  23   0.0000       0.088792         2.4161 
  24   0.0000       0.108657         2.9567 
  25   0.0000       0.111000         3.0205 
  26   0.0000       0.130825         3.5599 
  27   0.0000       0.135836         3.6963 
  28   0.0000       0.138561         3.7704 
  29   0.0000       0.159588         4.3426 
  30   0.0000       0.199514         5.4291 
  31   0.0000       0.199990         5.4420 
  32   0.0000       0.215053         5.8519 
  33   0.0000       0.218142         5.9359 
  34   0.0000       0.218908         5.9568 
  35   0.0000       0.234093         6.3700 
  36   0.0000       0.234550         6.3824 
  37   0.0000       0.245623         6.6838 
  38   0.0000       0.247655         6.7390 
  39   0.0000       0.248782         6.7697 
  40   0.0000       0.264549         7.1987 
  41   0.0000       0.275422         7.4946 
  42   0.0000       0.294682         8.0187 
  43   0.0000       0.294922         8.0252 
  44   0.0000       0.330703         8.9989 
  45   0.0000       0.343664         9.3516 
  46   0.0000       0.359370         9.7790 
  47   0.0000       0.359934         9.7943 
  48   0.0000       0.380329        10.3493 
  49   0.0000       0.387109        10.5338 
  50   0.0000       0.387204        10.5364 
  51   0.0000       0.389869        10.6089 
  52   0.0000       0.399927        10.8826 
  53   0.0000       0.399932        10.8827 
  54   0.0000       0.422103        11.4860 
  55   0.0000       0.452832        12.3222 
  56   0.0000       0.453299        12.3349 
  57   0.0000       0.457041        12.4367 
  58   0.0000       0.459891        12.5143 
  59   0.0000       0.467411        12.7189 
  60   0.0000       0.500746        13.6260 
  61   0.0000       0.512357        13.9420 
  62   0.0000       0.542313        14.7571 
  63   0.0000       0.580479        15.7956 
  64   0.0000       0.581053        15.8113 
  65   0.0000       0.597640        16.2626 
  66   0.0000       0.597644        16.2627 
  67   0.0000       0.603132        16.4121 
  68   0.0000       0.603135        16.4121 
  69   0.0000       0.619476        16.8568 
  70   0.0000       0.619477        16.8568 
  71   0.0000       0.638605        17.3773 
  72   0.0000       0.638612        17.3775 
  73   0.0000       0.641296        17.4506 
  74   0.0000       0.660435        17.9713 
  75   0.0000       0.661012        17.9871 
  76   0.0000       0.672243        18.2927 
  77   0.0000       0.679135        18.4802 
  78   0.0000       0.691486        18.8163 
  79   0.0000       0.700782        19.0693 
  80   0.0000       0.701556        19.0903 
  81   0.0000       0.753378        20.5005 
  82   0.0000       0.788299        21.4507 
  83   0.0000       0.791215        21.5301 
  84   0.0000       0.792878        21.5753 
  85   0.0000       0.795795        21.6547 
  86   0.0000       0.854615        23.2552 
  87   0.0000       0.854623        23.2555 
  88   0.0000       0.857336        23.3293 
  89   0.0000       0.877873        23.8881 
  90   0.0000       0.877905        23.8890 
  91   0.0000       0.916751        24.9461 
  92   0.0000       0.931362        25.3437 
  93   0.0000       0.955637        26.0042 
  94   0.0000       0.963601        26.2209 
  95   0.0000       0.963604        26.2210 
  96   0.0000       0.992327        27.0026 
  97   0.0000       1.001371        27.2487 
  98   0.0000       1.028211        27.9791 
  99   0.0000       1.029143        28.0044 
 100   0.0000       1.087047        29.5801 
 101   0.0000       1.117185        30.4002 
 102   0.0000       1.156171        31.4610 
 103   0.0000       1.156519        31.4705 
 104   0.0000       1.169600        31.8264 
 105   0.0000       1.183502        32.2047 
 106   0.0000       1.206777        32.8381 
 107   0.0000       1.206778        32.8381 
 108   0.0000       1.228228        33.4218 
 109   0.0000       1.228228        33.4218 
 110   0.0000       1.298283        35.3281 
 111   0.0000       1.313222        35.7346 
 112   0.0000       1.319513        35.9058 
 113   0.0000       1.343227        36.5511 
 114   0.0000       1.343469        36.5577 
 115   0.0000       1.353271        36.8244 
 116   0.0000       1.375479        37.4287 
 117   0.0000       1.414122        38.4802 
 118   0.0000       1.491482        40.5853 
 119   0.0000       1.491517        40.5863 
 120   0.0000       1.525147        41.5014 
 121   0.0000       1.525628        41.5145 
 122   0.0000       1.538086        41.8534 
 123   0.0000       1.759163        47.8693 
 124   0.0000       1.777617        48.3714 
 125   0.0000       1.835173        49.9376 
 126   0.0000       2.043598        55.6091 
 127   0.0000       2.043635        55.6101 
 128   0.0000       2.100449        57.1561 
 129   0.0000       2.104532        57.2672 
 130   0.0000       2.105942        57.3056 
 131   0.0000       2.154790        58.6348 
 132   0.0000       2.165364        58.9225 
 133   0.0000       2.188809        59.5605 
 134   0.0000       2.192244        59.6540 
 135   0.0000       2.193977        59.7011 
 136   0.0000       2.206158        60.0326 
 137   0.0000       2.300451        62.5985 
 138   0.0000       2.323772        63.2330 
 139   0.0000       2.376080        64.6564 
 140   0.0000       2.461502        66.9809 
 141   0.0000       2.461793        66.9888 
 142   0.0000       2.578226        70.1571 
 143   0.0000       2.578230        70.1572 
 144   0.0000       2.583187        70.2921 
 145   0.0000       2.654329        72.2280 
 146   0.0000       2.654357        72.2287 
 147   0.0000       2.675743        72.8107 
 148   0.0000       2.875611        78.2493 
 149   0.0000       2.890026        78.6416 
 150   0.0000       2.966990        80.7359 
 151   0.0000       3.023755        82.2806 
 152   0.0000       3.025169        82.3190 
 153   0.0000       3.212882        87.4270 
 154   0.0000       3.290165        89.5299 
 155   0.0000       3.290185        89.5305 
 156   0.0000       3.468191        94.3743 
 157   0.0000       3.480371        94.7057 
 158   0.0000       3.481482        94.7359 
 159   0.0000       3.498654        95.2032 
 160   0.0000       3.529767        96.0498 
 161   0.0000       3.741634       101.8150 
 162   0.0000       3.773076       102.6706 
 163   0.0000       3.817020       103.8664 
 164   0.0000       3.840019       104.4922 
 165   0.0000       3.864280       105.1524 
 166   0.0000       4.977253       135.4379 
 167   0.0000       5.056627       137.5978 
 168   0.0000       5.056653       137.5985 
 169   0.0000       5.093095       138.5902 
 170   0.0000       5.093120       138.5908 
 171   0.0000       5.112391       139.1152 
 172   0.0000       5.112410       139.1158 
 173   0.0000       5.124844       139.4541 
 174   0.0000       5.124860       139.4545 
 175   0.0000       5.222539       142.1125 
 176   0.0000       5.224527       142.1666 
 177   0.0000       5.234566       142.4398 
 178   0.0000       5.241193       142.6201 
 179   0.0000       5.243579       142.6850 
 180   0.0000       5.388123       146.6183 
 181   0.0000       5.399663       146.9323 
 182   0.0000       5.548086       150.9711 
 183   0.0000       5.568022       151.5136 
 184   0.0000       5.568443       151.5250 
 185   0.0000       5.664854       154.1485 
 186   0.0000       5.686852       154.7471 
 187   0.0000       5.798595       157.7878 
 188   0.0000       5.881849       160.0533 
 189   0.0000       5.903888       160.6530 
 190   0.0000       5.920947       161.1171 
 191   0.0000       6.070935       165.1985 
 192   0.0000       6.070944       165.1988 
 193   0.0000       6.250215       170.0770 
 194   0.0000       6.250303       170.0794 
 195   0.0000       6.962017       189.4461 
 196   0.0000       6.977755       189.8744 
 197   0.0000       7.048551       191.8008 
 198   0.0000       7.076141       192.5516 
 199   0.0000       7.076360       192.5575 
 200   0.0000       7.180009       195.3780 
 201   0.0000       7.180011       195.3780 
 202   0.0000       7.550485       205.4591 
 203   0.0000       7.788390       211.9329 
 204   0.0000       7.788544       211.9370 
 205   0.0000       8.165578       222.1967 
 206   0.0000       8.165610       222.1976 
 207   0.0000       8.222149       223.7360 
 208   0.0000       8.222160       223.7363 
 209   0.0000       8.232090       224.0065 
 210   0.0000       8.446260       229.8344 
 211   0.0000       8.447789       229.8760 
 212   0.0000       8.516435       231.7440 
 213   0.0000       8.536454       232.2887 
 214   0.0000       8.829112       240.2523 
 215   0.0000       8.854010       240.9299 
 216   0.0000       9.677188       263.3297 
 217   0.0000      11.583525       315.2037 
 218   0.0000      11.583531       315.2039 
 219   0.0000      11.648590       316.9742 
 220   0.0000      11.648763       316.9789 
 221   0.0000      11.770291       320.2859 
 222   0.0000      11.787633       320.7578 
 223   0.0000      12.061283       328.2042 
 224   0.0000      12.061518       328.2106 
 225   0.0000      12.296702       334.6103 
 226   0.0000      12.339342       335.7706 
 227   0.0000      12.350609       336.0771 
 228   0.0000      12.619475       343.3934 
 229   0.0000      12.619522       343.3947 
 230   0.0000      12.637190       343.8754 
 231   0.0000      12.637214       343.8761 
 232   0.0000      12.666553       344.6744 
 233   0.0000      12.666574       344.6750 
 234   0.0000      12.844174       349.5077 
 235   0.0000      12.854797       349.7968 
 236   0.0000      12.855519       349.8164 
 237   0.0000      13.129029       357.2590 
 238   0.0000      13.138648       357.5208 
 239   0.0000      13.420180       365.1817 
 240   0.0000      14.163764       385.4156 
 241   0.0000      14.177074       385.7778 
 242   0.0000      14.561430       396.2367 
 243   0.0000      14.908296       405.6753 
 244   0.0000      14.908298       405.6754 
 245   0.0000      14.996224       408.0680 
 246   0.0000      14.996253       408.0688 
 247   0.0000      15.334538       417.2740 
 248   0.0000      15.345899       417.5831 
 249   0.0000      15.357302       417.8934 
 250   0.0000      15.834086       430.8674 
 251   0.0000      16.837443       458.1701 
 252   0.0000      16.837502       458.1717 
 253   0.0000      16.952418       461.2987 
 254   0.0000      16.969341       461.7592 
 255   0.0000      17.909181       487.3336 
 256   0.0000      20.052840       545.6655 
 257   0.0000      20.053351       545.6794 
 258   0.0000      20.084680       546.5319 
 259   0.0000      20.084686       546.5321 
 260   0.0000      20.411544       555.4263 
 261   0.0000      20.411718       555.4311 
 262   0.0000      21.017819       571.9239 
 263   0.0000      21.028870       572.2246 
 264   0.0000      21.605247       587.9087 
 265   0.0000      29.591210       805.2177 
 266   0.0000      30.216989       822.2461 
 267   0.0000      30.217580       822.2622 
 268   0.0000      30.477726       829.3411 
 269   0.0000      30.488426       829.6322 
 270   0.0000      31.074764       845.5873 
 271   0.0000      41.396189      1126.4476 
 272   0.0000      41.407196      1126.7471 
 273   0.0000      41.727201      1135.4549 
 274   0.0000      42.609560      1159.4651 
 275   0.0000      62.318635      1695.7763 
 276   0.0000      62.318722      1695.7786 
 277   0.0000      62.364000      1697.0107 
 278   0.0000      62.375788      1697.3315 
 279   0.0000      62.835334      1709.8364 
 280   0.0000      91.172753      2480.9367 
 281   0.0000      91.172861      2480.9397 
 282   0.0000      91.352296      2485.8224 
 283   0.0000      91.359994      2486.0318 
 284   0.0000      91.764728      2497.0452 
 285   0.0000     201.443025      5481.5434 

                 SPIN DOWN ORBITALS
  NO   OCC          E(Eh)            E(eV) 
   0   1.0000     -88.118821     -2397.8350 
   1   1.0000     -24.311915      -661.5608 
   2   1.0000      -7.749489      -210.8743 
   3   1.0000      -5.776017      -157.1734 
   4   1.0000      -5.764800      -156.8682 
   5   1.0000      -5.757297      -156.6640 
   6   1.0000      -1.148309       -31.2471 
   7   1.0000      -0.642629       -17.4868 
   8   1.0000      -0.451573       -12.2879 
   9   1.0000      -0.427471       -11.6321 
  10   1.0000      -0.427446       -11.6314 
  11   1.0000      -0.218217        -5.9380 
  12   0.0000      -0.205622        -5.5953 
  13   0.0000      -0.094908        -2.5826 
  14   0.0000      -0.029658        -0.8070 
  15   0.0000       0.007951         0.2164 
  16   0.0000       0.012281         0.3342 
  17   0.0000       0.031974         0.8701 
  18   0.0000       0.054656         1.4873 
  19   0.0000       0.064406         1.7526 
  20   0.0000       0.078415         2.1338 
  21   0.0000       0.083252         2.2654 
  22   0.0000       0.084057         2.2873 
  23   0.0000       0.096929         2.6376 
  24   0.0000       0.110796         3.0149 
  25   0.0000       0.120064         3.2671 
  26   0.0000       0.133979         3.6458 
  27   0.0000       0.137076         3.7300 
  28   0.0000       0.146008         3.9731 
  29   0.0000       0.164916         4.4876 
  30   0.0000       0.209062         5.6889 
  31   0.0000       0.211290         5.7495 
  32   0.0000       0.220172         5.9912 
  33   0.0000       0.227187         6.1821 
  34   0.0000       0.229076         6.2335 
  35   0.0000       0.240678         6.5492 
  36   0.0000       0.243914         6.6372 
  37   0.0000       0.254127         6.9151 
  38   0.0000       0.258812         7.0426 
  39   0.0000       0.265864         7.2345 
  40   0.0000       0.267112         7.2685 
  41   0.0000       0.281366         7.6564 
  42   0.0000       0.295571         8.0429 
  43   0.0000       0.300465         8.1761 
  44   0.0000       0.338626         9.2145 
  45   0.0000       0.350491         9.5373 
  46   0.0000       0.363422         9.8892 
  47   0.0000       0.365103         9.9350 
  48   0.0000       0.392685        10.6855 
  49   0.0000       0.393364        10.7040 
  50   0.0000       0.393902        10.7186 
  51   0.0000       0.398622        10.8470 
  52   0.0000       0.408505        11.1160 
  53   0.0000       0.408927        11.1275 
  54   0.0000       0.427562        11.6345 
  55   0.0000       0.460645        12.5348 
  56   0.0000       0.466036        12.6815 
  57   0.0000       0.466149        12.6846 
  58   0.0000       0.467372        12.7178 
  59   0.0000       0.474131        12.9018 
  60   0.0000       0.514708        14.0059 
  61   0.0000       0.521611        14.1937 
  62   0.0000       0.549533        14.9536 
  63   0.0000       0.586875        15.9697 
  64   0.0000       0.588409        16.0114 
  65   0.0000       0.603030        16.4093 
  66   0.0000       0.603572        16.4240 
  67   0.0000       0.609926        16.5969 
  68   0.0000       0.610339        16.6082 
  69   0.0000       0.629468        17.1287 
  70   0.0000       0.629700        17.1350 
  71   0.0000       0.646077        17.5807 
  72   0.0000       0.647215        17.6116 
  73   0.0000       0.647607        17.6223 
  74   0.0000       0.670135        18.2353 
  75   0.0000       0.672255        18.2930 
  76   0.0000       0.680627        18.5208 
  77   0.0000       0.683804        18.6073 
  78   0.0000       0.695843        18.9349 
  79   0.0000       0.702271        19.1098 
  80   0.0000       0.708918        19.2906 
  81   0.0000       0.763528        20.7767 
  82   0.0000       0.795663        21.6511 
  83   0.0000       0.796445        21.6724 
  84   0.0000       0.803326        21.8596 
  85   0.0000       0.806222        21.9384 
  86   0.0000       0.861098        23.4317 
  87   0.0000       0.861218        23.4349 
  88   0.0000       0.861607        23.4455 
  89   0.0000       0.881734        23.9932 
  90   0.0000       0.882645        24.0180 
  91   0.0000       0.933174        25.3929 
  92   0.0000       0.936071        25.4718 
  93   0.0000       0.965016        26.2594 
  94   0.0000       0.965086        26.2613 
  95   0.0000       0.968429        26.3523 
  96   0.0000       1.002356        27.2755 
  97   0.0000       1.004392        27.3309 
  98   0.0000       1.041195        28.3324 
  99   0.0000       1.043450        28.3937 
 100   0.0000       1.089478        29.6462 
 101   0.0000       1.129955        30.7476 
 102   0.0000       1.173427        31.9306 
 103   0.0000       1.173970        31.9453 
 104   0.0000       1.186053        32.2741 
 105   0.0000       1.189233        32.3607 
 106   0.0000       1.213314        33.0159 
 107   0.0000       1.213388        33.0180 
 108   0.0000       1.229282        33.4505 
 109   0.0000       1.229305        33.4511 
 110   0.0000       1.306137        35.5418 
 111   0.0000       1.320940        35.9446 
 112   0.0000       1.322991        36.0004 
 113   0.0000       1.349320        36.7169 
 114   0.0000       1.350558        36.7505 
 115   0.0000       1.380541        37.5664 
 116   0.0000       1.388297        37.7775 
 117   0.0000       1.421108        38.6703 
 118   0.0000       1.515282        41.2329 
 119   0.0000       1.516343        41.2618 
 120   0.0000       1.543440        41.9991 
 121   0.0000       1.545960        42.0677 
 122   0.0000       1.550358        42.1874 
 123   0.0000       1.778791        48.4034 
 124   0.0000       1.783220        48.5239 
 125   0.0000       1.850163        50.3455 
 126   0.0000       2.051622        55.8275 
 127   0.0000       2.052572        55.8533 
 128   0.0000       2.104597        57.2690 
 129   0.0000       2.123079        57.7719 
 130   0.0000       2.125778        57.8454 
 131   0.0000       2.166448        58.9521 
 132   0.0000       2.166659        58.9578 
 133   0.0000       2.198365        59.8205 
 134   0.0000       2.198501        59.8242 
 135   0.0000       2.205647        60.0187 
 136   0.0000       2.206882        60.0523 
 137   0.0000       2.327792        63.3424 
 138   0.0000       2.331616        63.4465 
 139   0.0000       2.378830        64.7312 
 140   0.0000       2.479739        67.4771 
 141   0.0000       2.482965        67.5649 
 142   0.0000       2.587140        70.3997 
 143   0.0000       2.627556        71.4994 
 144   0.0000       2.628035        71.5125 
 145   0.0000       2.687890        73.1412 
 146   0.0000       2.688888        73.1683 
 147   0.0000       2.697434        73.4009 
 148   0.0000       2.891382        78.6785 
 149   0.0000       2.892125        78.6987 
 150   0.0000       2.981750        81.1375 
 151   0.0000       3.044334        82.8406 
 152   0.0000       3.047749        82.9335 
 153   0.0000       3.229696        87.8845 
 154   0.0000       3.338088        90.8340 
 155   0.0000       3.339171        90.8635 
 156   0.0000       3.475197        94.5649 
 157   0.0000       3.508020        95.4581 
 158   0.0000       3.512037        95.5674 
 159   0.0000       3.532189        96.1157 
 160   0.0000       3.540663        96.3463 
 161   0.0000       3.776649       102.7678 
 162   0.0000       3.779715       102.8513 
 163   0.0000       3.831101       104.2496 
 164   0.0000       3.867276       105.2339 
 165   0.0000       3.869836       105.3036 
 166   0.0000       4.991709       135.8313 
 167   0.0000       5.069618       137.9513 
 168   0.0000       5.070834       137.9844 
 169   0.0000       5.131669       139.6398 
 170   0.0000       5.132490       139.6621 
 171   0.0000       5.169264       140.6628 
 172   0.0000       5.169519       140.6698 
 173   0.0000       5.172600       140.7536 
 174   0.0000       5.172842       140.7602 
 175   0.0000       5.239687       142.5791 
 176   0.0000       5.241533       142.6294 
 177   0.0000       5.242563       142.6574 
 178   0.0000       5.249865       142.8561 
 179   0.0000       5.254041       142.9697 
 180   0.0000       5.401299       146.9768 
 181   0.0000       5.401391       146.9793 
 182   0.0000       5.553054       151.1063 
 183   0.0000       5.591928       152.1641 
 184   0.0000       5.596674       152.2932 
 185   0.0000       5.690155       154.8370 
 186   0.0000       5.690239       154.8393 
 187   0.0000       5.801710       157.8726 
 188   0.0000       5.907503       160.7513 
 189   0.0000       5.909409       160.8032 
 190   0.0000       5.934107       161.4753 
 191   0.0000       6.077451       165.3758 
 192   0.0000       6.077457       165.3760 
 193   0.0000       6.257179       170.2665 
 194   0.0000       6.257892       170.2859 
 195   0.0000       6.979261       189.9153 
 196   0.0000       6.980256       189.9424 
 197   0.0000       7.056336       192.0127 
 198   0.0000       7.082398       192.7218 
 199   0.0000       7.082615       192.7277 
 200   0.0000       7.186580       195.5568 
 201   0.0000       7.186652       195.5588 
 202   0.0000       7.560920       205.7431 
 203   0.0000       7.799598       212.2379 
 204   0.0000       7.800831       212.2714 
 205   0.0000       8.214648       223.5319 
 206   0.0000       8.214755       223.5349 
 207   0.0000       8.248385       224.4500 
 208   0.0000       8.257657       224.7023 
 209   0.0000       8.257989       224.7113 
 210   0.0000       8.466966       230.3979 
 211   0.0000       8.469395       230.4640 
 212   0.0000       8.536633       232.2936 
 213   0.0000       8.537837       232.3263 
 214   0.0000       8.853839       240.9252 
 215   0.0000       8.858305       241.0467 
 216   0.0000       9.681829       263.4560 
 217   0.0000      11.593108       315.4645 
 218   0.0000      11.593406       315.4726 
 219   0.0000      11.654428       317.1331 
 220   0.0000      11.655420       317.1601 
 221   0.0000      11.777461       320.4810 
 222   0.0000      11.786501       320.7270 
 223   0.0000      12.074663       328.5683 
 224   0.0000      12.075229       328.5837 
 225   0.0000      12.299213       334.6786 
 226   0.0000      12.352012       336.1153 
 227   0.0000      12.352834       336.1377 
 228   0.0000      12.625590       343.5598 
 229   0.0000      12.625634       343.5610 
 230   0.0000      12.645832       344.1106 
 231   0.0000      12.645840       344.1108 
 232   0.0000      12.671156       344.7997 
 233   0.0000      12.671168       344.8000 
 234   0.0000      12.849017       349.6395 
 235   0.0000      12.858693       349.9028 
 236   0.0000      12.858925       349.9091 
 237   0.0000      13.135068       357.4234 
 238   0.0000      13.138449       357.5154 
 239   0.0000      13.422854       365.2544 
 240   0.0000      14.180302       385.8656 
 241   0.0000      14.180996       385.8845 
 242   0.0000      14.566637       396.3783 
 243   0.0000      14.922400       406.0592 
 244   0.0000      14.922413       406.0595 
 245   0.0000      15.005415       408.3181 
 246   0.0000      15.005735       408.3268 
 247   0.0000      15.342443       417.4891 
 248   0.0000      15.358298       417.9205 
 249   0.0000      15.358405       417.9234 
 250   0.0000      15.838875       430.9977 
 251   0.0000      16.848633       458.4746 
 252   0.0000      16.849181       458.4895 
 253   0.0000      16.963949       461.6125 
 254   0.0000      16.969845       461.7729 
 255   0.0000      17.913633       487.4547 
 256   0.0000      20.067216       546.0567 
 257   0.0000      20.067712       546.0702 
 258   0.0000      20.095181       546.8177 
 259   0.0000      20.095193       546.8180 
 260   0.0000      20.419569       555.6447 
 261   0.0000      20.419646       555.6468 
 262   0.0000      21.029638       572.2455 
 263   0.0000      21.029763       572.2489 
 264   0.0000      21.610932       588.0633 
 265   0.0000      29.608210       805.6803 
 266   0.0000      30.233467       822.6945 
 267   0.0000      30.234372       822.7191 
 268   0.0000      30.489705       829.6670 
 269   0.0000      30.493940       829.7823 
 270   0.0000      31.080336       845.7389 
 271   0.0000      41.410453      1126.8357 
 272   0.0000      41.412440      1126.8898 
 273   0.0000      41.731477      1135.5712 
 274   0.0000      42.615645      1159.6306 
 275   0.0000      62.332883      1696.1640 
 276   0.0000      62.333006      1696.1673 
 277   0.0000      62.378090      1697.3941 
 278   0.0000      62.378194      1697.3970 
 279   0.0000      62.841460      1710.0031 
 280   0.0000      91.183108      2481.2185 
 281   0.0000      91.183394      2481.2263 
 282   0.0000      91.360883      2486.0560 
 283   0.0000      91.362542      2486.1011 
 284   0.0000      91.768375      2497.1444 
 285   0.0000     201.446904      5481.6489 

                    ********************************
                    * MULLIKEN POPULATION ANALYSIS *
                    ********************************

--------------------------------------------
MULLIKEN ATOMIC CHARGES AND SPIN POPULATIONS
--------------------------------------------
   0 S :    0.003200    0.915724
   1 F :   -0.003200    0.084276
Sum of atomic charges         :   -0.0000000
Sum of atomic spin populations:    1.0000000

-----------------------------------------------------
MULLIKEN REDUCED ORBITAL CHARGES AND SPIN POPULATIONS
-----------------------------------------------------
CHARGE
  0 S s       :     6.070567  s :     6.070567
      pz      :     2.587341  p :     9.726667
      px      :     3.110575
      py      :     4.028751
      dz2     :     0.053163  d :     0.163047
      dxz     :     0.051301
      dyz     :     0.056366
      dx2y2   :     0.001504
      dxy     :     0.000712
      f0      :     0.009532  f :     0.030887
      f+1     :     0.010619
      f-1     :     0.010177
      f+2     :     0.000044
      f-2     :     0.000009
      f+3     :     0.000238
      f-3     :     0.000268
      g0      :     0.002050  g :     0.005188
      g+1     :     0.001384
      g-1     :     0.001743
      g+2     :     0.000002
      g-2     :     0.000001
      g+3     :     0.000002
      g-3     :     0.000003
      g+4     :     0.000002
      g-4     :     0.000000
      h0      :     0.000350  h :     0.000445
      h+1     :     0.000055
      h-1     :     0.000038
      h+2     :     0.000000
      h-2     :     0.000000
      h+3     :     0.000000
      h-3     :     0.000000
      h+4     :     0.000000
      h-4     :     0.000000
      h+5     :     0.000000
      h-5     :     0.000001
  1 F s       :     3.870603  s :     3.870603
      pz      :     1.404560  p :     5.124302
      px      :     1.816230
      py      :     1.903512
      dz2     :    -0.000080  d :     0.005766
      dxz     :     0.005952
      dyz     :    -0.000135
      dx2y2   :     0.000031
      dxy     :    -0.000002
      f0      :     0.000646  f :     0.000271
      f+1     :     0.001629
      f-1     :    -0.002017
      f+2     :    -0.000011
      f-2     :    -0.000003
      f+3     :     0.000012
      f-3     :     0.000016
      g0      :     0.000327  g :     0.001644
      g+1     :     0.000985
      g-1     :     0.000326
      g+2     :    -0.000007
      g-2     :    -0.000002
      g+3     :     0.000006
      g-3     :     0.000008
      g+4     :     0.000000
      g-4     :     0.000000
      h0      :     0.000081  h :     0.000613
      h+1     :     0.000303
      h-1     :     0.000226
      h+2     :    -0.000001
      h-2     :    -0.000000
      h+3     :     0.000002
      h-3     :     0.000003
      h+4     :     0.000000
      h-4     :     0.000000
      h+5     :    -0.000000
      h-5     :    -0.000000

SPIN
  0 S s       :     0.004764  s :     0.004764
      pz      :     0.004651  p :     0.897835
      px      :     0.895585
      py      :    -0.002401
      dz2     :     0.002528  d :     0.012760
      dxz     :     0.008744
      dyz     :     0.000261
      dx2y2   :     0.001272
      dxy     :    -0.000044
      f0      :    -0.000801  f :     0.000618
      f+1     :     0.000702
      f-1     :     0.000195
      f+2     :     0.000036
      f-2     :     0.000000
      f+3     :     0.000231
      f-3     :     0.000254
      g0      :    -0.000049  g :    -0.000249
      g+1     :    -0.000092
      g-1     :    -0.000113
      g+2     :     0.000001
      g-2     :     0.000000
      g+3     :     0.000003
      g-3     :     0.000003
      g+4     :    -0.000002
      g-4     :     0.000000
      h0      :     0.000011  h :    -0.000004
      h+1     :    -0.000013
      h-1     :    -0.000000
      h+2     :    -0.000000
      h-2     :    -0.000000
      h+3     :     0.000000
      h-3     :     0.000000
      h+4     :    -0.000000
      h-4     :     0.000000
      h+5     :    -0.000000
      h-5     :    -0.000001
  1 F s       :     0.000758  s :     0.000758
      pz      :    -0.010609  p :     0.079375
      px      :     0.090074
      py      :    -0.000090
      dz2     :    -0.000965  d :     0.001147
      dxz     :     0.001430
      dyz     :     0.000689
      dx2y2   :    -0.000010
      dxy     :     0.000004
      f0      :    -0.000483  f :     0.001641
      f+1     :     0.001290
      f-1     :     0.000819
      f+2     :    -0.000011
      f-2     :     0.000002
      f+3     :     0.000011
      f-3     :     0.000014
      g0      :    -0.000124  g :     0.001067
      g+1     :     0.000853
      g-1     :     0.000331
      g+2     :    -0.000008
      g-2     :     0.000001
      g+3     :     0.000006
      g-3     :     0.000008
      g+4     :    -0.000000
      g-4     :     0.000000
      h0      :    -0.000002  h :     0.000287
      h+1     :     0.000221
      h-1     :     0.000065
      h+2     :    -0.000002
      h-2     :     0.000000
      h+3     :     0.000002
      h-3     :     0.000003
      h+4     :     0.000000
      h-4     :     0.000000
      h+5     :     0.000000
      h-5     :     0.000000


                     *******************************
                     * LOEWDIN POPULATION ANALYSIS *
                     *******************************

-------------------------------------------
LOEWDIN ATOMIC CHARGES AND SPIN POPULATIONS
-------------------------------------------
   0 S :    0.998115    0.671443
   1 F :   -0.998115    0.328557

----------------------------------------------------
LOEWDIN REDUCED ORBITAL CHARGES AND SPIN POPULATIONS
----------------------------------------------------
CHARGE
  0 S s       :     5.296131  s :     5.296131
      pz      :     2.658656  p :     8.938512
      px      :     2.824040
      py      :     3.455815
      dz2     :     0.192946  d :     0.428447
      dxz     :     0.106397
      dyz     :     0.127333
      dx2y2   :     0.001238
      dxy     :     0.000533
      f0      :     0.092226  f :     0.210504
      f+1     :     0.055777
      f-1     :     0.061952
      f+2     :     0.000057
      f-2     :     0.000026
      f+3     :     0.000219
      f-3     :     0.000246
      g0      :     0.037207  g :     0.093718
      g+1     :     0.025802
      g-1     :     0.030692
      g+2     :     0.000004
      g-2     :     0.000004
      g+3     :     0.000003
      g-3     :     0.000004
      g+4     :     0.000002
      g-4     :     0.000000
      h0      :     0.013761  h :     0.034574
      h+1     :     0.009735
      h-1     :     0.011076
      h+2     :     0.000001
      h-2     :     0.000001
      h+3     :     0.000000
      h-3     :     0.000000
      h+4     :     0.000000
      h-4     :     0.000000
      h+5     :     0.000000
      h-5     :     0.000001
  1 F s       :     3.658963  s :     3.658963
      pz      :     1.706713  p :     5.306666
      px      :     1.734664
      py      :     1.865289
      dz2     :     0.204715  d :     0.534944
      dxz     :     0.113214
      dyz     :     0.216871
      dx2y2   :     0.000069
      dxy     :     0.000076
      f0      :     0.088252  f :     0.299587
      f+1     :     0.074398
      f-1     :     0.136791
      f+2     :     0.000069
      f-2     :     0.000055
      f+3     :     0.000010
      f-3     :     0.000013
      g0      :     0.032960  g :     0.136353
      g+1     :     0.037786
      g-1     :     0.065491
      g+2     :     0.000069
      g-2     :     0.000016
      g+3     :     0.000014
      g-3     :     0.000017
      g+4     :     0.000000
      g-4     :     0.000000
      h0      :     0.016612  h :     0.061602
      h+1     :     0.017221
      h-1     :     0.027677
      h+2     :     0.000057
      h-2     :     0.000004
      h+3     :     0.000014
      h-3     :     0.000017
      h+4     :     0.000000
      h-4     :     0.000000
      h+5     :     0.000000
      h-5     :     0.000000

SPIN
  0 S s       :     0.001674  s :     0.001674
      pz      :    -0.001941  p :     0.635566
      px      :     0.637102
      py      :     0.000406
      dz2     :     0.003094  d :     0.023065
      dxz     :     0.019974
      dyz     :    -0.001012
      dx2y2   :     0.001039
      dxy     :    -0.000030
      f0      :    -0.001089  f :     0.006258
      f+1     :     0.006732
      f-1     :     0.000123
      f+2     :     0.000045
      f-2     :    -0.000001
      f+3     :     0.000213
      f-3     :     0.000233
      g0      :    -0.000087  g :     0.003756
      g+1     :     0.003999
      g-1     :    -0.000161
      g+2     :     0.000001
      g-2     :     0.000000
      g+3     :     0.000003
      g-3     :     0.000003
      g+4     :    -0.000002
      g-4     :     0.000000
      h0      :    -0.000022  h :     0.001124
      h+1     :     0.001158
      h-1     :    -0.000011
      h+2     :    -0.000000
      h-2     :    -0.000000
      h+3     :    -0.000000
      h-3     :     0.000000
      h+4     :    -0.000000
      h-4     :     0.000000
      h+5     :    -0.000000
      h-5     :    -0.000001
  1 F s       :     0.000768  s :     0.000768
      pz      :    -0.003893  p :     0.118294
      px      :     0.122496
      py      :    -0.000309
      dz2     :     0.001355  d :     0.095800
      dxz     :     0.095230
      dyz     :    -0.000814
      dx2y2   :     0.000032
      dxy     :    -0.000002
      f0      :     0.000339  f :     0.068154
      f+1     :     0.066957
      f-1     :     0.000779
      f+2     :     0.000059
      f-2     :    -0.000002
      f+3     :     0.000009
      f-3     :     0.000012
      g0      :    -0.000327  g :     0.032830
      g+1     :     0.032495
      g-1     :     0.000576
      g+2     :     0.000056
      g-2     :    -0.000001
      g+3     :     0.000014
      g-3     :     0.000017
      g+4     :    -0.000000
      g-4     :     0.000000
      h0      :    -0.000192  h :     0.012712
      h+1     :     0.012650
      h-1     :     0.000179
      h+2     :     0.000046
      h-2     :    -0.000001
      h+3     :     0.000014
      h-3     :     0.000016
      h+4     :    -0.000000
      h-4     :     0.000000
      h+5     :    -0.000000
      h-5     :    -0.000000


                      *****************************
                      * MAYER POPULATION ANALYSIS *
                      *****************************

  NA   - Mulliken gross atomic population
  ZA   - Total nuclear charge
  QA   - Mulliken gross atomic charge
  VA   - Mayer's total valence
  BVA  - Mayer's bonded valence
  FA   - Mayer's free valence

  ATOM       NA         ZA         QA         VA         BVA        FA
  0 S     15.9968    16.0000     0.0032     1.7991     0.9733     0.8258
  1 F      9.0032     9.0000    -0.0032     0.9919     0.9733     0.0186

  Mayer bond orders larger than 0.1
B(  0-S ,  1-F ) :   0.9733 

-------
TIMINGS
-------

Total SCF time: 0 days 0 hours 7 min 27 sec 

Total time                  ....     447.126 sec
Sum of individual times     ....     446.133 sec  ( 99.8%)

Fock matrix formation       ....     444.099 sec  ( 99.3%)
  XC integration            ....       9.181 sec  (  2.1% of F)
    Basis function eval.    ....       0.602 sec  (  6.6% of XC)
    Density eval.           ....       1.391 sec  ( 15.2% of XC)
    XC-Functional eval.     ....       0.134 sec  (  1.5% of XC)
    XC-Potential eval.      ....       4.817 sec  ( 52.5% of XC)
Diagonalization             ....       0.823 sec  (  0.2%)
Density matrix formation    ....       0.019 sec  (  0.0%)
Population analysis         ....       0.063 sec  (  0.0%)
Initial guess               ....       0.393 sec  (  0.1%)
Orbital Transformation      ....       0.000 sec  (  0.0%)
Orbital Orthonormalization  ....       0.000 sec  (  0.0%)
DIIS solution               ....       0.449 sec  (  0.1%)
Grid generation             ....       0.287 sec  (  0.1%)

-------------------------   --------------------
FINAL SINGLE POINT ENERGY      -497.781872778005
-------------------------   --------------------


                            ***************************************
                            *     ORCA property calculations      *
                            ***************************************

                                    ---------------------
                                    Active property flags
                                    ---------------------
   (+) Dipole Moment


------------------------------------------------------------------------------
                       ORCA ELECTRIC PROPERTIES CALCULATION
------------------------------------------------------------------------------

Dipole Moment Calculation                       ... on
Quadrupole Moment Calculation                   ... off
Polarizability Calculation                      ... off
GBWName                                         ... sf_pbe_-001_x.gbw
Electron density file                           ... sf_pbe_-001_x.scfp.tmp
The origin for moment calculation is the CENTER OF MASS  = ( 0.000000,  0.000000  1.125449)

-------------
DIPOLE MOMENT
-------------
                                X             Y             Z
Electronic contribution:     -0.20863      -0.00000       0.70276
Nuclear contribution   :      0.00000       0.00000      -0.91396
                        -----------------------------------------
Total Dipole Moment    :     -0.20863      -0.00000      -0.21120
                        -----------------------------------------
Magnitude (a.u.)       :      0.29687
Magnitude (Debye)      :      0.75459



--------------------
Rotational spectrum 
--------------------
 
Rotational constants in cm-1:     0.000000     0.551599     0.551599 
Rotational constants in MHz :     0.000000 16536.529748 16536.529748 

 Dipole components along the rotational axes: 
x,y,z [a.u.] :    -0.211205    -0.000000    -0.208629 
x,y,z [Debye]:    -0.536839    -0.000000    -0.530292 

 

Timings for individual modules:

Sum of individual times         ...      449.099 sec (=   7.485 min)
GTO integral calculation        ...        1.643 sec (=   0.027 min)   0.4 %
SCF iterations                  ...      447.455 sec (=   7.458 min)  99.6 %
                             ****ORCA TERMINATED NORMALLY****
TOTAL RUN TIME: 0 days 0 hours 7 minutes 30 seconds 70 msec
