
                                 *****************
                                 * O   R   C   A *
                                 *****************

           --- An Ab Initio, DFT and Semiempirical electronic structure package ---

                  #######################################################
                  #                        -***-                        #
                  #          Department of theory and spectroscopy      #
                  #               Directorship: Frank Neese             #
                  #        Max Planck Institute fuer Kohlenforschung    #
                  #                Kaiser Wilhelm Platz 1               #
                  #                 D-45470 Muelheim/Ruhr               #
                  #                      Germany                        #
                  #                                                     #
                  #                  All rights reserved                #
                  #                        -***-                        #
                  #######################################################


                         Program Version 4.1.1  - RELEASE  -


 With contributions from (in alphabetic order):
   Daniel Aravena         : Magnetic Properties
   Michael Atanasov       : Ab Initio Ligand Field Theory
   Alexander A. Auer      : GIAO ZORA
   Ute Becker             : Parallelization
   Giovanni Bistoni       : ED, Open-shell LED
   Martin Brehm           : Molecular dynamics
   Dmytro Bykov           : SCF Hessian
   Vijay G. Chilkuri      : MRCI spin determinant printing
   Dipayan Datta          : RHF DLPNO-CCSD density
   Achintya Kumar Dutta   : EOM-CC, STEOM-CC
   Dmitry Ganyushin       : Spin-Orbit,Spin-Spin,Magnetic field MRCI
   Miquel Garcia          : C-PCM Hessian
   Yang Guo               : DLPNO-NEVPT2, CIM, IAO-localization
   Andreas Hansen         : Spin unrestricted coupled pair/coupled cluster methods
   Benjamin Helmich-Paris : CASSCF linear response (MC-RPA)
   Lee Huntington         : MR-EOM, pCC
   Robert Izsak           : Overlap fitted RIJCOSX, COSX-SCS-MP3, EOM
   Christian Kollmar      : KDIIS, OOCD, Brueckner-CCSD(T), CCSD density
   Simone Kossmann        : Meta GGA functionals, TD-DFT gradient, OOMP2, MP2 Hessian
   Martin Krupicka        : AUTO-CI
   Lucas Lang             : DCDCAS
   Dagmar Lenk            : GEPOL surface, SMD
   Dimitrios Liakos       : Extrapolation schemes; parallel MDCI
   Dimitrios Manganas     : ROCIS; embedding schemes
   Dimitrios Pantazis     : SARC Basis sets
   Taras Petrenko         : DFT Hessian,TD-DFT gradient, ASA, ECA, R-Raman, ABS, FL, XAS/XES, NRVS
   Peter Pinski           : DLPNO-MP2, DLPNO-MP2 Gradient
   Christoph Reimann      : Effective Core Potentials
   Marius Retegan         : Local ZFS, SOC
   Christoph Riplinger    : Optimizer, TS searches, QM/MM, DLPNO-CCSD(T), (RO)-DLPNO pert. Triples
   Tobias Risthaus        : Range-separated hybrids, TD-DFT gradient, RPA, STAB
   Michael Roemelt        : Restricted open shell CIS
   Masaaki Saitow         : Open-shell DLPNO
   Barbara Sandhoefer     : DKH picture change effects
   Avijit Sen             : IP-ROCIS
   Kantharuban Sivalingam : CASSCF convergence, NEVPT2, FIC-MRCI
   Bernardo de Souza      : ESD, SOC TD-DFT
   Georgi Stoychev        : AutoAux, RI-MP2 NMR
   Willem Van den Heuvel  : Paramagnetic NMR
   Boris Wezisla          : Elementary symmetry handling
   Frank Wennmohs         : Technical directorship


 We gratefully acknowledge several colleagues who have allowed us to
 interface, adapt or use parts of their codes:
   Stefan Grimme, W. Hujo, H. Kruse,             : VdW corrections, initial TS optimization,
                  C. Bannwarth                     DFT functionals, gCP, sTDA/sTD-DF
   Ed Valeev                                     : LibInt (2-el integral package), F12 methods
   Garnet Chan, S. Sharma, J. Yang, R. Olivares  : DMRG
   Ulf Ekstrom                                   : XCFun DFT Library
   Mihaly Kallay                                 : mrcc  (arbitrary order and MRCC methods)
   Andreas Klamt, Michael Diedenhofen            : otool_cosmo (COSMO solvation model)
   Jiri Pittner, Ondrej Demel                    : Mk-CCSD
   Frank Weinhold                                : gennbo (NPA and NBO analysis)
   Christopher J. Cramer and Donald G. Truhlar   : smd solvation model
   Lars Goerigk                                  : TD-DFT with DH, B97 family of functionals
   V. Asgeirsson, H. Jonsson                     : NEB implementation
   FAccTs GmbH                                   : IRC, NEB, NEB-TS, Multilevel


 Your calculation uses the libint2 library for the computation of 2-el integrals
 For citations please refer to: http://libint.valeyev.net

 This ORCA versions uses:
   CBLAS   interface :  Fast vector & matrix operations
   LAPACKE interface :  Fast linear algebra routines
   SCALAPACK package :  Parallel linear algebra routines


----- Orbital basis set information -----
Your calculation utilizes the basis: aug-pc-4
   H, C-F              : F. Jensen, J. Chem. Phys. 115, 9113 (2001).
                         F. Jensen, J. Chem. Phys. 116, 7372 (2002).
                         F. Jensen, J. Chem. Phys. 117, 9234 (2002).
   Si-Cl               : F. Jensen, T. Helgaker, J. Chem. Phys. 121, 3463 (2004).
   He-B, Ne-Mg, Al, Ar : F. Jensen, J. Phys. Chem. A 111, 11198 (2007).
   K, Ca, Ga-Kr        : F. Jensen, J. Chem. Phys. 136, 094110 (2012).
   Sc-Zn               : F. Jensen, J. Chem. Phys. 138, 014107 (2013).

================================================================================
                                        WARNINGS
                       Please study these warnings very carefully!
================================================================================


INFO   : the flag for use of LIBINT has been found!

================================================================================
                                       INPUT FILE
================================================================================
NAME = sf_pbe_00.inp
|  1> ! uks pbe nori aug-pc-4 grid5 nofinalgrid verytightscf
|  2> 
|  3> %maxcore 1500
|  4> 
|  5> %pal nprocs 4 end
|  6> %scf
|  7>     efield 0.0, 0.0, 0.0
|  8>     maxiter 300
|  9> end
| 10> * xyz 0 2
| 11> S	0.0000	0.0000	0.0000
| 12> F	0.0000	0.0000	1.6006
| 13> *
| 14> 
| 15>                          ****END OF INPUT****
================================================================================

                       ****************************
                       * Single Point Calculation *
                       ****************************

---------------------------------
CARTESIAN COORDINATES (ANGSTROEM)
---------------------------------
  S      0.000000    0.000000    0.000000
  F      0.000000    0.000000    1.600600

----------------------------
CARTESIAN COORDINATES (A.U.)
----------------------------
  NO LB      ZA    FRAG     MASS         X           Y           Z
   0 S    16.0000    0    32.060    0.000000    0.000000    0.000000
   1 F     9.0000    0    18.998    0.000000    0.000000    3.024696

--------------------------------
INTERNAL COORDINATES (ANGSTROEM)
--------------------------------
 S      0   0   0     0.000000000000     0.00000000     0.00000000
 F      1   0   0     1.600600000000     0.00000000     0.00000000

---------------------------
INTERNAL COORDINATES (A.U.)
---------------------------
 S      0   0   0     0.000000000000     0.00000000     0.00000000
 F      1   0   0     3.024695649954     0.00000000     0.00000000

---------------------
BASIS SET INFORMATION
---------------------
There are 2 groups of distinct atoms

 Group   1 Type S   : 44s27p7d4f3g2h contracted to 8s7p7d4f3g2h pattern {15121211111/111111111/1111111/1111/111/11}
 Group   2 Type F   : 27s12p7d4f3g2h contracted to 9s8p7d4f3g2h pattern {1191111111/51111111/1111111/1111/111/11}

Atom   0S    basis set group =>   1
Atom   1F    basis set group =>   2


           ************************************************************
           *        Program running with 4 parallel MPI-processes     *
           *              working on a common directory               *
           ************************************************************
------------------------------------------------------------------------------
                           ORCA GTO INTEGRAL CALCULATION
------------------------------------------------------------------------------

                         BASIS SET STATISTICS AND STARTUP INFO

 # of primitive gaussian shells          ...  142
 # of primitive gaussian functions       ...  412
 # of contracted shells                  ...   64
 # of contracted basis functions         ...  286
 Highest angular momentum                ...    5
 Maximum contraction depth               ...   15
 Integral package used                   ... LIBINT
 Integral threshhold            Thresh   ...  1.000e-12
 Primitive cut-off              TCut     ...  1.000e-14


------------------------------ INTEGRAL EVALUATION ----------------------------


 * One electron integrals 
 Pre-screening matrix                    ... done
 Shell pair data                         ... done (   0.001 sec)



           ************************************************************
           *        Program running with 4 parallel MPI-processes     *
           *              working on a common directory               *
           ************************************************************
-------------------------------------------------------------------------------
                                 ORCA SCF
-------------------------------------------------------------------------------

------------
SCF SETTINGS
------------
Hamiltonian:
 Density Functional     Method          .... DFT(GTOs)
 Exchange Functional    Exchange        .... PBE
   PBE kappa parameter   XKappa         ....  0.804000
   PBE mue parameter    XMuePBE         ....  0.219520
 Correlation Functional Correlation     .... PBE
   PBE beta parameter  CBetaPBE         ....  0.066725
 LDA part of GGA corr.  LDAOpt          .... PW91-LDA
 Gradients option       PostSCFGGA      .... off
   Density functional embedding theory  .... OFF
   NL short-range parameter             ....  6.400000


General Settings:
 Integral files         IntName         .... sf_pbe_00
 Hartree-Fock type      HFTyp           .... UHF
 Total Charge           Charge          ....    0
 Multiplicity           Mult            ....    2
 Number of Electrons    NEL             ....   25
 Basis Dimension        Dim             ....  286
 Nuclear Repulsion      ENuc            ....     47.6080957111 Eh

Convergence Acceleration:
 DIIS                   CNVDIIS         .... on
   Start iteration      DIISMaxIt       ....    12
   Startup error        DIISStart       ....  0.200000
   # of expansion vecs  DIISMaxEq       ....     5
   Bias factor          DIISBfac        ....   1.050
   Max. coefficient     DIISMaxC        ....  10.000
 Newton-Raphson         CNVNR           .... off
 SOSCF                  CNVSOSCF        .... off
 Level Shifting         CNVShift        .... on
   Level shift para.    LevelShift      ....    0.2500
   Turn off err/grad.   ShiftErr        ....    0.0010
 Zerner damping         CNVZerner       .... off
 Static damping         CNVDamp         .... on
   Fraction old density DampFac         ....    0.7000
   Max. Damping (<1)    DampMax         ....    0.9800
   Min. Damping (>=0)   DampMin         ....    0.0000
   Turn off err/grad.   DampErr         ....    0.1000
 Fernandez-Rico         CNVRico         .... off

SCF Procedure:
 Maximum # iterations   MaxIter         ....   300
 SCF integral mode      SCFMode         .... Direct
   Integral package                     .... LIBINT
 Reset frequency        DirectResetFreq ....    20
 Integral Threshold     Thresh          ....  1.000e-12 Eh
 Primitive CutOff       TCut            ....  1.000e-14 Eh

Convergence Tolerance:
 Convergence Check Mode ConvCheckMode   .... Total+1el-Energy
 Convergence forced     ConvForced      .... 0
 Energy Change          TolE            ....  1.000e-09 Eh
 1-El. energy change                    ....  1.000e-06 Eh
 DIIS Error             TolErr          ....  1.000e-08


Diagonalization of the overlap matrix:
Smallest eigenvalue                        ... 1.366e-05
Time for diagonalization                   ...    0.018 sec
Threshold for overlap eigenvalues          ... 1.000e-08
Number of eigenvalues below threshold      ... 0
Time for construction of square roots      ...    0.013 sec
Total time needed                          ...    0.032 sec

-------------------
DFT GRID GENERATION
-------------------

General Integration Accuracy     IntAcc      ...  5.010
Radial Grid Type                 RadialGrid  ... Gauss-Chebyshev
Angular Grid (max. acc.)         AngularGrid ... Lebedev-434
Angular grid pruning method      GridPruning ... 3 (G Style)
Weight generation scheme         WeightScheme... Becke
Basis function cutoff            BFCut       ...    1.0000e-12
Integration weight cutoff        WCut        ...    1.0000e-14
Grids for H and He will be reduced by one unit

# of grid points (after initial pruning)     ...  22558 (   0.0 sec)
# of grid points (after weights+screening)   ...  22492 (   0.0 sec)
nearest neighbour list constructed           ...    0.0 sec
Grid point re-assignment to atoms done       ...    0.0 sec
Grid point division into batches done        ...    0.2 sec
Reduced shell lists constructed in    0.3 sec

Total number of grid points                  ...    22492
Total number of batches                      ...      352
Average number of points per batch           ...       63
Average number of grid points per atom       ...    11246
Average number of shells per batch           ...    36.22 (56.60%)
Average number of basis functions per batch  ...   167.91 (58.71%)
Average number of large shells per batch     ...    30.72 (84.80%)
Average number of large basis fcns per batch ...   144.43 (86.01%)
Maximum spatial batch extension              ...  18.71, 18.71, 15.96 au
Average spatial batch extension              ...   1.45,  1.45,  1.28 au

Time for grid setup =    0.277 sec

------------------------------
INITIAL GUESS: MODEL POTENTIAL
------------------------------
Loading Hartree-Fock densities                     ... done
Calculating cut-offs                               ... done
Setting up the integral package                    ... done
Initializing the effective Hamiltonian             ... done
Starting the Coulomb interaction                   ... done (   0.0 sec)
Reading the grid                                   ... done
Mapping shells                                     ... done
Starting the XC term evaluation                    ... done (   0.2 sec)
  promolecular density results
     # of electrons  =     25.000000708
     EX              =    -34.840625308
     EC              =     -0.921356085
     EX+EC           =    -35.761981393
Transforming the Hamiltonian                       ... done (   0.0 sec)
Diagonalizing the Hamiltonian                      ... done (   0.0 sec)
Back transforming the eigenvectors                 ... done (   0.0 sec)
Now organizing SCF variables                       ... done
                      ------------------
                      INITIAL GUESS DONE (   0.7 sec)
                      ------------------
--------------
SCF ITERATIONS
--------------
ITER       Energy         Delta-E        Max-DP      RMS-DP      [F,P]     Damp
               ***  Starting incremental Fock matrix formation  ***
  0   -497.7651850830   0.000000000000 0.00784709  0.00010097  0.1138884 0.7000
  1   -497.7727277772  -0.007542694144 0.00595273  0.00006417  0.0268533 0.7000
                               ***Turning on DIIS***
  2   -497.7746850309  -0.001957253740 0.01522762  0.00014254  0.0130237 0.0000
  3   -497.7805525003  -0.005867469333 0.00290451  0.00003106  0.0098170 0.0000
  4   -497.7806764060  -0.000123905712 0.00115245  0.00001172  0.0122381 0.0000
  5   -497.7808029979  -0.000126591897 0.00122609  0.00000891  0.0048486 0.0000
  6   -497.7808281731  -0.000025175202 0.00048269  0.00000425  0.0014339 0.0000
  7   -497.7808317861  -0.000003613058 0.00022668  0.00000243  0.0004768 0.0000
  8   -497.7808326606  -0.000000874431 0.00006504  0.00000056  0.0000855 0.0000
  9   -497.7808326894  -0.000000028822 0.00002614  0.00000025  0.0000771 0.0000
 10   -497.7808326994  -0.000000010060 0.00001157  0.00000007  0.0000231 0.0000
 11   -497.7808327002  -0.000000000748 0.00000448  0.00000003  0.0000042 0.0000
 12   -497.7808327003  -0.000000000091 0.00000167  0.00000002  0.0000028 0.0000
 13   -497.7808327003  -0.000000000031 0.00000392  0.00000003  0.0000002 0.0000
 14   -497.7808327003  -0.000000000005 0.00000134  0.00000001  0.0000001 0.0000
                 **** Energy Check signals convergence ****

               *****************************************************
               *                     SUCCESS                       *
               *           SCF CONVERGED AFTER  15 CYCLES          *
               *****************************************************


----------------
TOTAL SCF ENERGY
----------------

Total Energy       :         -497.78083270 Eh          -13545.30509 eV

Components:
Nuclear Repulsion  :           47.60809571 Eh            1295.48215 eV
Electronic Energy  :         -545.38892841 Eh          -14840.78723 eV
One Electron Energy:         -783.41791619 Eh          -21317.88528 eV
Two Electron Energy:          238.02898778 Eh            6477.09805 eV

Virial components:
Potential Energy   :         -994.97608076 Eh          -27074.67561 eV
Kinetic Energy     :          497.19524806 Eh           13529.37052 eV
Virial Ratio       :            2.00117778


DFT components:
N(Alpha)           :       13.000000938320 electrons
N(Beta)            :       12.000000934687 electrons
N(Total)           :       25.000001873007 electrons
E(X)               :      -34.912038457821 Eh       
E(C)               :       -0.913996129223 Eh       
E(XC)              :      -35.826034587044 Eh       
DFET-embed. en.    :        0.000000000000 Eh       

---------------
SCF CONVERGENCE
---------------

  Last Energy change         ...   -1.9327e-12  Tolerance :   1.0000e-09
  Last MAX-Density change    ...    1.3520e-06  Tolerance :   1.0000e-08
  Last RMS-Density change    ...    7.8883e-09  Tolerance :   1.0000e-09
  Last DIIS Error            ...    2.9907e-08  Tolerance :   1.0000e-08

             **** THE GBW FILE WAS UPDATED (sf_pbe_00.gbw) ****
             **** DENSITY FILE WAS UPDATED (sf_pbe_00.scfp.tmp) ****
             **** ENERGY FILE WAS UPDATED (sf_pbe_00.en.tmp) ****
----------------------
UHF SPIN CONTAMINATION
----------------------

Warning: in a DFT calculation there is little theoretical justification to 
         calculate <S**2> as in Hartree-Fock theory. We will do it anyways
         but you should keep in mind that the values have only limited relevance

Expectation value of <S**2>     :     0.753539
Ideal value S*(S+1) for S=0.5   :     0.750000
Deviation                       :     0.003539

----------------
ORBITAL ENERGIES
----------------
                 SPIN UP ORBITALS
  NO   OCC          E(Eh)            E(eV) 
   0   1.0000     -88.122190     -2397.9267 
   1   1.0000     -24.315073      -661.6468 
   2   1.0000      -7.753040      -210.9709 
   3   1.0000      -5.777784      -157.2215 
   4   1.0000      -5.776768      -157.1938 
   5   1.0000      -5.759020      -156.7109 
   6   1.0000      -1.155034       -31.4301 
   7   1.0000      -0.667345       -18.1594 
   8   1.0000      -0.465405       -12.6643 
   9   1.0000      -0.448151       -12.1948 
  10   1.0000      -0.430630       -11.7180 
  11   1.0000      -0.269286        -7.3276 
  12   1.0000      -0.228315        -6.2128 
  13   0.0000      -0.108253        -2.9457 
  14   0.0000      -0.008444        -0.2298 
  15   0.0000       0.016450         0.4476 
  16   0.0000       0.019368         0.5270 
  17   0.0000       0.025384         0.6907 
  18   0.0000       0.057843         1.5740 
  19   0.0000       0.064911         1.7663 
  20   0.0000       0.066919         1.8210 
  21   0.0000       0.074925         2.0388 
  22   0.0000       0.075620         2.0577 
  23   0.0000       0.100909         2.7459 
  24   0.0000       0.104282         2.8377 
  25   0.0000       0.107844         2.9346 
  26   0.0000       0.131033         3.5656 
  27   0.0000       0.131364         3.5746 
  28   0.0000       0.136770         3.7217 
  29   0.0000       0.150686         4.1004 
  30   0.0000       0.204365         5.5611 
  31   0.0000       0.204576         5.5668 
  32   0.0000       0.217299         5.9130 
  33   0.0000       0.223873         6.0919 
  34   0.0000       0.223880         6.0921 
  35   0.0000       0.228755         6.2247 
  36   0.0000       0.229739         6.2515 
  37   0.0000       0.243740         6.6325 
  38   0.0000       0.246999         6.7212 
  39   0.0000       0.247683         6.7398 
  40   0.0000       0.264283         7.1915 
  41   0.0000       0.273678         7.4471 
  42   0.0000       0.293334         7.9820 
  43   0.0000       0.295785         8.0487 
  44   0.0000       0.332277         9.0417 
  45   0.0000       0.344052         9.3621 
  46   0.0000       0.358946         9.7674 
  47   0.0000       0.359634         9.7861 
  48   0.0000       0.377260        10.2658 
  49   0.0000       0.387185        10.5359 
  50   0.0000       0.387207        10.5364 
  51   0.0000       0.389632        10.6024 
  52   0.0000       0.399272        10.8647 
  53   0.0000       0.399273        10.8648 
  54   0.0000       0.420981        11.4555 
  55   0.0000       0.453143        12.3306 
  56   0.0000       0.453399        12.3376 
  57   0.0000       0.455876        12.4050 
  58   0.0000       0.460598        12.5335 
  59   0.0000       0.467808        12.7297 
  60   0.0000       0.499453        13.5908 
  61   0.0000       0.513125        13.9629 
  62   0.0000       0.542305        14.7569 
  63   0.0000       0.579707        15.7746 
  64   0.0000       0.580408        15.7937 
  65   0.0000       0.598276        16.2799 
  66   0.0000       0.598280        16.2800 
  67   0.0000       0.599386        16.3101 
  68   0.0000       0.599390        16.3102 
  69   0.0000       0.616727        16.7820 
  70   0.0000       0.616728        16.7820 
  71   0.0000       0.637907        17.3583 
  72   0.0000       0.637925        17.3588 
  73   0.0000       0.642430        17.4814 
  74   0.0000       0.660358        17.9693 
  75   0.0000       0.660839        17.9824 
  76   0.0000       0.671025        18.2595 
  77   0.0000       0.679275        18.4840 
  78   0.0000       0.692495        18.8437 
  79   0.0000       0.697419        18.9777 
  80   0.0000       0.701320        19.0839 
  81   0.0000       0.752877        20.4868 
  82   0.0000       0.790547        21.5119 
  83   0.0000       0.790912        21.5218 
  84   0.0000       0.792379        21.5617 
  85   0.0000       0.796917        21.6852 
  86   0.0000       0.854573        23.2541 
  87   0.0000       0.854581        23.2543 
  88   0.0000       0.855835        23.2884 
  89   0.0000       0.876819        23.8594 
  90   0.0000       0.877094        23.8669 
  91   0.0000       0.916716        24.9451 
  92   0.0000       0.931723        25.3535 
  93   0.0000       0.956430        26.0258 
  94   0.0000       0.963491        26.2179 
  95   0.0000       0.963495        26.2180 
  96   0.0000       0.992150        26.9978 
  97   0.0000       1.001994        27.2656 
  98   0.0000       1.028099        27.9760 
  99   0.0000       1.029248        28.0073 
 100   0.0000       1.087358        29.5885 
 101   0.0000       1.117623        30.4121 
 102   0.0000       1.155895        31.4535 
 103   0.0000       1.156317        31.4650 
 104   0.0000       1.169159        31.8144 
 105   0.0000       1.183939        32.2166 
 106   0.0000       1.206251        32.8238 
 107   0.0000       1.206252        32.8238 
 108   0.0000       1.227374        33.3986 
 109   0.0000       1.227375        33.3986 
 110   0.0000       1.301406        35.4130 
 111   0.0000       1.309942        35.6453 
 112   0.0000       1.320048        35.9203 
 113   0.0000       1.342646        36.5352 
 114   0.0000       1.343337        36.5541 
 115   0.0000       1.352838        36.8126 
 116   0.0000       1.375642        37.4331 
 117   0.0000       1.414262        38.4840 
 118   0.0000       1.491640        40.5896 
 119   0.0000       1.491680        40.5907 
 120   0.0000       1.525327        41.5063 
 121   0.0000       1.525784        41.5187 
 122   0.0000       1.538209        41.8568 
 123   0.0000       1.759452        47.8771 
 124   0.0000       1.777968        48.3810 
 125   0.0000       1.835367        49.9429 
 126   0.0000       2.044128        55.6235 
 127   0.0000       2.044133        55.6237 
 128   0.0000       2.101712        57.1905 
 129   0.0000       2.105067        57.2818 
 130   0.0000       2.106303        57.3154 
 131   0.0000       2.154487        58.6266 
 132   0.0000       2.165501        58.9263 
 133   0.0000       2.188782        59.5598 
 134   0.0000       2.192531        59.6618 
 135   0.0000       2.194123        59.7051 
 136   0.0000       2.206561        60.0436 
 137   0.0000       2.300805        62.6081 
 138   0.0000       2.324173        63.2440 
 139   0.0000       2.376334        64.6633 
 140   0.0000       2.461803        66.9891 
 141   0.0000       2.462087        66.9968 
 142   0.0000       2.578605        70.1674 
 143   0.0000       2.578608        70.1675 
 144   0.0000       2.583671        70.3053 
 145   0.0000       2.654714        72.2384 
 146   0.0000       2.654742        72.2392 
 147   0.0000       2.676144        72.8216 
 148   0.0000       2.875901        78.2573 
 149   0.0000       2.890391        78.6515 
 150   0.0000       2.967406        80.7472 
 151   0.0000       3.024168        82.2918 
 152   0.0000       3.025592        82.3306 
 153   0.0000       3.213418        87.4415 
 154   0.0000       3.290686        89.5441 
 155   0.0000       3.290706        89.5447 
 156   0.0000       3.468669        94.3873 
 157   0.0000       3.480874        94.7194 
 158   0.0000       3.482009        94.7503 
 159   0.0000       3.499108        95.2156 
 160   0.0000       3.530334        96.0653 
 161   0.0000       3.742113       101.8281 
 162   0.0000       3.773643       102.6861 
 163   0.0000       3.817539       103.8805 
 164   0.0000       3.840438       104.5036 
 165   0.0000       3.864768       105.1657 
 166   0.0000       4.977790       135.4526 
 167   0.0000       5.057108       137.6109 
 168   0.0000       5.057130       137.6115 
 169   0.0000       5.093598       138.6038 
 170   0.0000       5.093622       138.6045 
 171   0.0000       5.112913       139.1294 
 172   0.0000       5.112932       139.1300 
 173   0.0000       5.125350       139.4679 
 174   0.0000       5.125366       139.4683 
 175   0.0000       5.223083       142.1273 
 176   0.0000       5.225018       142.1800 
 177   0.0000       5.235081       142.4538 
 178   0.0000       5.241750       142.6353 
 179   0.0000       5.244125       142.6999 
 180   0.0000       5.388603       146.6313 
 181   0.0000       5.400093       146.9440 
 182   0.0000       5.548491       150.9821 
 183   0.0000       5.568702       151.5321 
 184   0.0000       5.569122       151.5435 
 185   0.0000       5.665365       154.1624 
 186   0.0000       5.687424       154.7627 
 187   0.0000       5.799076       157.8009 
 188   0.0000       5.882314       160.0659 
 189   0.0000       5.904424       160.6676 
 190   0.0000       5.921573       161.1342 
 191   0.0000       6.071366       165.2103 
 192   0.0000       6.071375       165.2105 
 193   0.0000       6.250668       170.0893 
 194   0.0000       6.250757       170.0918 
 195   0.0000       6.962485       189.4589 
 196   0.0000       6.978240       189.8876 
 197   0.0000       7.049023       191.8137 
 198   0.0000       7.076567       192.5632 
 199   0.0000       7.076786       192.5691 
 200   0.0000       7.180455       195.3901 
 201   0.0000       7.180457       195.3902 
 202   0.0000       7.551042       205.4743 
 203   0.0000       7.788897       211.9467 
 204   0.0000       7.789053       211.9509 
 205   0.0000       8.166260       222.2152 
 206   0.0000       8.166293       222.2161 
 207   0.0000       8.222821       223.7543 
 208   0.0000       8.222832       223.7546 
 209   0.0000       8.232712       224.0235 
 210   0.0000       8.446893       229.8516 
 211   0.0000       8.448430       229.8935 
 212   0.0000       8.517016       231.7598 
 213   0.0000       8.537057       232.3051 
 214   0.0000       8.829666       240.2674 
 215   0.0000       8.854613       240.9463 
 216   0.0000       9.677784       263.3459 
 217   0.0000      11.584347       315.2261 
 218   0.0000      11.584354       315.2263 
 219   0.0000      11.649386       316.9959 
 220   0.0000      11.649557       317.0006 
 221   0.0000      11.771031       320.3060 
 222   0.0000      11.788373       320.7779 
 223   0.0000      12.061796       328.2181 
 224   0.0000      12.062030       328.2245 
 225   0.0000      12.297379       334.6287 
 226   0.0000      12.339862       335.7847 
 227   0.0000      12.351116       336.0910 
 228   0.0000      12.619952       343.4063 
 229   0.0000      12.619999       343.4076 
 230   0.0000      12.637645       343.8878 
 231   0.0000      12.637669       343.8884 
 232   0.0000      12.667029       344.6874 
 233   0.0000      12.667050       344.6880 
 234   0.0000      12.844701       349.5221 
 235   0.0000      12.855290       349.8102 
 236   0.0000      12.856014       349.8299 
 237   0.0000      13.129564       357.2736 
 238   0.0000      13.139179       357.5352 
 239   0.0000      13.420730       365.1966 
 240   0.0000      14.164306       385.4304 
 241   0.0000      14.177590       385.7918 
 242   0.0000      14.561929       396.2502 
 243   0.0000      14.908816       405.6895 
 244   0.0000      14.908819       405.6896 
 245   0.0000      14.996749       408.0823 
 246   0.0000      14.996779       408.0831 
 247   0.0000      15.335073       417.2885 
 248   0.0000      15.346441       417.5979 
 249   0.0000      15.357831       417.9078 
 250   0.0000      15.834684       430.8836 
 251   0.0000      16.838271       458.1926 
 252   0.0000      16.838330       458.1943 
 253   0.0000      16.953220       461.3206 
 254   0.0000      16.970153       461.7813 
 255   0.0000      17.909939       487.3542 
 256   0.0000      20.053368       545.6799 
 257   0.0000      20.053880       545.6938 
 258   0.0000      20.085210       546.5463 
 259   0.0000      20.085216       546.5465 
 260   0.0000      20.412075       555.4408 
 261   0.0000      20.412250       555.4456 
 262   0.0000      21.018362       571.9387 
 263   0.0000      21.029398       572.2390 
 264   0.0000      21.605798       587.9237 
 265   0.0000      29.591925       805.2372 
 266   0.0000      30.217556       822.2615 
 267   0.0000      30.218146       822.2776 
 268   0.0000      30.478300       829.3567 
 269   0.0000      30.488983       829.6474 
 270   0.0000      31.075329       845.6027 
 271   0.0000      41.396778      1126.4636 
 272   0.0000      41.407764      1126.7625 
 273   0.0000      41.727764      1135.4702 
 274   0.0000      42.610143      1159.4809 
 275   0.0000      62.319524      1695.8005 
 276   0.0000      62.319611      1695.8028 
 277   0.0000      62.364881      1697.0347 
 278   0.0000      62.376679      1697.3557 
 279   0.0000      62.836219      1709.8604 
 280   0.0000      91.173350      2480.9530 
 281   0.0000      91.173457      2480.9559 
 282   0.0000      91.352898      2485.8387 
 283   0.0000      91.360581      2486.0478 
 284   0.0000      91.765322      2497.0614 
 285   0.0000     201.443612      5481.5594 

                 SPIN DOWN ORBITALS
  NO   OCC          E(Eh)            E(eV) 
   0   1.0000     -88.117871     -2397.8092 
   1   1.0000     -24.311321      -661.5447 
   2   1.0000      -7.748613      -210.8505 
   3   1.0000      -5.775151      -157.1498 
   4   1.0000      -5.763894      -156.8435 
   5   1.0000      -5.756413      -156.6400 
   6   1.0000      -1.147779       -31.2326 
   7   1.0000      -0.642011       -17.4700 
   8   1.0000      -0.450927       -12.2703 
   9   1.0000      -0.427009       -11.6195 
  10   1.0000      -0.426942       -11.6177 
  11   1.0000      -0.217585        -5.9208 
  12   0.0000      -0.204803        -5.5730 
  13   0.0000      -0.093940        -2.5562 
  14   0.0000      -0.002564        -0.0698 
  15   0.0000       0.019989         0.5439 
  16   0.0000       0.023418         0.6372 
  17   0.0000       0.026969         0.7339 
  18   0.0000       0.060852         1.6559 
  19   0.0000       0.066986         1.8228 
  20   0.0000       0.067665         1.8413 
  21   0.0000       0.084895         2.3101 
  22   0.0000       0.087853         2.3906 
  23   0.0000       0.107932         2.9370 
  24   0.0000       0.109757         2.9866 
  25   0.0000       0.115245         3.1360 
  26   0.0000       0.133049         3.6205 
  27   0.0000       0.137634         3.7452 
  28   0.0000       0.140396         3.8204 
  29   0.0000       0.155169         4.2224 
  30   0.0000       0.212053         5.7703 
  31   0.0000       0.214180         5.8281 
  32   0.0000       0.221568         6.0292 
  33   0.0000       0.231320         6.2945 
  34   0.0000       0.232071         6.3150 
  35   0.0000       0.244510         6.6535 
  36   0.0000       0.247435         6.7331 
  37   0.0000       0.248007         6.7486 
  38   0.0000       0.248824         6.7708 
  39   0.0000       0.266631         7.2554 
  40   0.0000       0.271508         7.3881 
  41   0.0000       0.276091         7.5128 
  42   0.0000       0.296193         8.0598 
  43   0.0000       0.299233         8.1425 
  44   0.0000       0.339179         9.2295 
  45   0.0000       0.351186         9.5562 
  46   0.0000       0.363169         9.8823 
  47   0.0000       0.364835         9.9277 
  48   0.0000       0.392459        10.6794 
  49   0.0000       0.393401        10.7050 
  50   0.0000       0.394087        10.7237 
  51   0.0000       0.396466        10.7884 
  52   0.0000       0.408004        11.1023 
  53   0.0000       0.408427        11.1139 
  54   0.0000       0.425840        11.5877 
  55   0.0000       0.461312        12.5529 
  56   0.0000       0.465704        12.6725 
  57   0.0000       0.466359        12.6903 
  58   0.0000       0.467969        12.7341 
  59   0.0000       0.473964        12.8972 
  60   0.0000       0.515376        14.0241 
  61   0.0000       0.520825        14.1724 
  62   0.0000       0.549559        14.9543 
  63   0.0000       0.586218        15.9518 
  64   0.0000       0.587836        15.9958 
  65   0.0000       0.603596        16.4247 
  66   0.0000       0.604216        16.4415 
  67   0.0000       0.606428        16.5017 
  68   0.0000       0.606773        16.5111 
  69   0.0000       0.626570        17.0498 
  70   0.0000       0.626797        17.0560 
  71   0.0000       0.646468        17.5913 
  72   0.0000       0.646774        17.5996 
  73   0.0000       0.646780        17.5998 
  74   0.0000       0.670275        18.2391 
  75   0.0000       0.672538        18.3007 
  76   0.0000       0.680552        18.5188 
  77   0.0000       0.682674        18.5765 
  78   0.0000       0.695960        18.9380 
  79   0.0000       0.701979        19.1018 
  80   0.0000       0.706099        19.2139 
  81   0.0000       0.763337        20.7715 
  82   0.0000       0.797645        21.7050 
  83   0.0000       0.797720        21.7071 
  84   0.0000       0.802875        21.8473 
  85   0.0000       0.805793        21.9267 
  86   0.0000       0.859666        23.3927 
  87   0.0000       0.861215        23.4349 
  88   0.0000       0.861590        23.4451 
  89   0.0000       0.880701        23.9651 
  90   0.0000       0.881649        23.9909 
  91   0.0000       0.933502        25.4019 
  92   0.0000       0.936106        25.4727 
  93   0.0000       0.964902        26.2563 
  94   0.0000       0.964973        26.2582 
  95   0.0000       0.969163        26.3723 
  96   0.0000       1.002882        27.2898 
  97   0.0000       1.004405        27.3312 
  98   0.0000       1.041225        28.3332 
  99   0.0000       1.043475        28.3944 
 100   0.0000       1.089753        29.6537 
 101   0.0000       1.130373        30.7590 
 102   0.0000       1.173265        31.9262 
 103   0.0000       1.173810        31.9410 
 104   0.0000       1.186472        32.2856 
 105   0.0000       1.188898        32.3516 
 106   0.0000       1.212814        33.0023 
 107   0.0000       1.212885        33.0043 
 108   0.0000       1.228402        33.4265 
 109   0.0000       1.228425        33.4272 
 110   0.0000       1.307749        35.5857 
 111   0.0000       1.321232        35.9526 
 112   0.0000       1.321371        35.9563 
 113   0.0000       1.348818        36.7032 
 114   0.0000       1.350035        36.7363 
 115   0.0000       1.380746        37.5720 
 116   0.0000       1.388275        37.7769 
 117   0.0000       1.421240        38.6739 
 118   0.0000       1.515456        41.2376 
 119   0.0000       1.516513        41.2664 
 120   0.0000       1.543554        42.0023 
 121   0.0000       1.546174        42.0735 
 122   0.0000       1.550575        42.1933 
 123   0.0000       1.779129        48.4126 
 124   0.0000       1.783546        48.5328 
 125   0.0000       1.850372        50.3512 
 126   0.0000       2.052142        55.8416 
 127   0.0000       2.053118        55.8682 
 128   0.0000       2.105637        57.2973 
 129   0.0000       2.123660        57.7877 
 130   0.0000       2.126327        57.8603 
 131   0.0000       2.165989        58.9396 
 132   0.0000       2.166752        58.9603 
 133   0.0000       2.198650        59.8283 
 134   0.0000       2.198783        59.8319 
 135   0.0000       2.205703        60.0202 
 136   0.0000       2.207275        60.0630 
 137   0.0000       2.328192        63.3533 
 138   0.0000       2.332046        63.4582 
 139   0.0000       2.379031        64.7367 
 140   0.0000       2.480058        67.4858 
 141   0.0000       2.483288        67.5737 
 142   0.0000       2.587621        70.4127 
 143   0.0000       2.627999        71.5115 
 144   0.0000       2.628479        71.5245 
 145   0.0000       2.688326        73.1531 
 146   0.0000       2.689325        73.1802 
 147   0.0000       2.697866        73.4127 
 148   0.0000       2.891744        78.6884 
 149   0.0000       2.892433        78.7071 
 150   0.0000       2.982178        81.1492 
 151   0.0000       3.044778        82.8526 
 152   0.0000       3.048200        82.9458 
 153   0.0000       3.230260        87.8998 
 154   0.0000       3.338682        90.8502 
 155   0.0000       3.339766        90.8796 
 156   0.0000       3.475667        94.5777 
 157   0.0000       3.508561        95.4728 
 158   0.0000       3.512585        95.5823 
 159   0.0000       3.532739        96.1307 
 160   0.0000       3.541195        96.3608 
 161   0.0000       3.777201       102.7829 
 162   0.0000       3.780242       102.8656 
 163   0.0000       3.831605       104.2633 
 164   0.0000       3.867760       105.2471 
 165   0.0000       3.870309       105.3165 
 166   0.0000       4.992260       135.8463 
 167   0.0000       5.070093       137.9642 
 168   0.0000       5.071310       137.9974 
 169   0.0000       5.132237       139.6553 
 170   0.0000       5.133058       139.6776 
 171   0.0000       5.169862       140.6791 
 172   0.0000       5.170118       140.6861 
 173   0.0000       5.173172       140.7692 
 174   0.0000       5.173414       140.7757 
 175   0.0000       5.240246       142.5943 
 176   0.0000       5.242091       142.6445 
 177   0.0000       5.243097       142.6719 
 178   0.0000       5.250382       142.8702 
 179   0.0000       5.254568       142.9841 
 180   0.0000       5.401725       146.9884 
 181   0.0000       5.401867       146.9923 
 182   0.0000       5.553442       151.1168 
 183   0.0000       5.592636       152.1834 
 184   0.0000       5.597390       152.3127 
 185   0.0000       5.690723       154.8524 
 186   0.0000       5.690775       154.8539 
 187   0.0000       5.802178       157.8853 
 188   0.0000       5.908035       160.7658 
 189   0.0000       5.909917       160.8170 
 190   0.0000       5.934734       161.4923 
 191   0.0000       6.077871       165.3873 
 192   0.0000       6.077878       165.3875 
 193   0.0000       6.257630       170.2788 
 194   0.0000       6.258344       170.2982 
 195   0.0000       6.979741       189.9284 
 196   0.0000       6.980740       189.9556 
 197   0.0000       7.056811       192.0256 
 198   0.0000       7.082814       192.7332 
 199   0.0000       7.083030       192.7391 
 200   0.0000       7.187023       195.5688 
 201   0.0000       7.187096       195.5708 
 202   0.0000       7.561482       205.7584 
 203   0.0000       7.800115       212.2519 
 204   0.0000       7.801350       212.2855 
 205   0.0000       8.215414       223.5528 
 206   0.0000       8.215520       223.5557 
 207   0.0000       8.249013       224.4670 
 208   0.0000       8.258388       224.7222 
 209   0.0000       8.258721       224.7312 
 210   0.0000       8.467622       230.4157 
 211   0.0000       8.470057       230.4820 
 212   0.0000       8.537223       232.3096 
 213   0.0000       8.538441       232.3428 
 214   0.0000       8.854409       240.9407 
 215   0.0000       8.858891       241.0627 
 216   0.0000       9.682417       263.4720 
 217   0.0000      11.593940       315.4871 
 218   0.0000      11.594238       315.4953 
 219   0.0000      11.655227       317.1549 
 220   0.0000      11.656221       317.1819 
 221   0.0000      11.778205       320.5012 
 222   0.0000      11.787232       320.7469 
 223   0.0000      12.075156       328.5817 
 224   0.0000      12.075721       328.5971 
 225   0.0000      12.299883       334.6968 
 226   0.0000      12.352515       336.1290 
 227   0.0000      12.353334       336.1513 
 228   0.0000      12.626052       343.5723 
 229   0.0000      12.626096       343.5735 
 230   0.0000      12.646275       344.1226 
 231   0.0000      12.646283       344.1228 
 232   0.0000      12.671623       344.8124 
 233   0.0000      12.671634       344.8127 
 234   0.0000      12.849538       349.6537 
 235   0.0000      12.859178       349.9160 
 236   0.0000      12.859410       349.9223 
 237   0.0000      13.135593       357.4376 
 238   0.0000      13.138975       357.5297 
 239   0.0000      13.423395       365.2691 
 240   0.0000      14.180812       385.8795 
 241   0.0000      14.181513       385.8986 
 242   0.0000      14.567128       396.3917 
 243   0.0000      14.922900       406.0728 
 244   0.0000      14.922913       406.0731 
 245   0.0000      15.005925       408.3320 
 246   0.0000      15.006244       408.3407 
 247   0.0000      15.342964       417.5033 
 248   0.0000      15.358822       417.9348 
 249   0.0000      15.358930       417.9377 
 250   0.0000      15.839463       431.0137 
 251   0.0000      16.849480       458.4977 
 252   0.0000      16.850027       458.5126 
 253   0.0000      16.964772       461.6349 
 254   0.0000      16.970651       461.7949 
 255   0.0000      17.914391       487.4754 
 256   0.0000      20.067723       546.0705 
 257   0.0000      20.068220       546.0840 
 258   0.0000      20.095694       546.8316 
 259   0.0000      20.095707       546.8320 
 260   0.0000      20.420087       555.6588 
 261   0.0000      20.420164       555.6609 
 262   0.0000      21.030163       572.2598 
 263   0.0000      21.030285       572.2632 
 264   0.0000      21.611472       588.0781 
 265   0.0000      29.608940       805.7002 
 266   0.0000      30.234011       822.7093 
 267   0.0000      30.234914       822.7339 
 268   0.0000      30.490257       829.6821 
 269   0.0000      30.494488       829.7972 
 270   0.0000      31.080889       845.7540 
 271   0.0000      41.411015      1126.8510 
 272   0.0000      41.413005      1126.9052 
 273   0.0000      41.732033      1135.5863 
 274   0.0000      42.616216      1159.6462 
 275   0.0000      62.333801      1696.1890 
 276   0.0000      62.333925      1696.1923 
 277   0.0000      62.378981      1697.4184 
 278   0.0000      62.379104      1697.4217 
 279   0.0000      62.842354      1710.0274 
 280   0.0000      91.183690      2481.2344 
 281   0.0000      91.183976      2481.2421 
 282   0.0000      91.361467      2486.0719 
 283   0.0000      91.363127      2486.1171 
 284   0.0000      91.768961      2497.1604 
 285   0.0000     201.447485      5481.6647 

                    ********************************
                    * MULLIKEN POPULATION ANALYSIS *
                    ********************************

--------------------------------------------
MULLIKEN ATOMIC CHARGES AND SPIN POPULATIONS
--------------------------------------------
   0 S :    0.005740    0.914867
   1 F :   -0.005740    0.085133
Sum of atomic charges         :   -0.0000000
Sum of atomic spin populations:    1.0000000

-----------------------------------------------------
MULLIKEN REDUCED ORBITAL CHARGES AND SPIN POPULATIONS
-----------------------------------------------------
CHARGE
  0 S s       :     6.071108  s :     6.071108
      pz      :     2.587002  p :     9.724836
      px      :     3.109748
      py      :     4.028087
      dz2     :     0.053019  d :     0.162011
      dxz     :     0.051282
      dyz     :     0.056456
      dx2y2   :     0.001254
      dxy     :     0.000000
      f0      :     0.009504  f :     0.030694
      f+1     :     0.010534
      f-1     :     0.010125
      f+2     :     0.000040
      f-2     :     0.000000
      f+3     :     0.000232
      f-3     :     0.000259
      g0      :     0.002044  g :     0.005167
      g+1     :     0.001373
      g-1     :     0.001742
      g+2     :     0.000001
      g-2     :     0.000000
      g+3     :     0.000002
      g-3     :     0.000003
      g+4     :     0.000002
      g-4     :     0.000000
      h0      :     0.000349  h :     0.000443
      h+1     :     0.000054
      h-1     :     0.000038
      h+2     :     0.000000
      h-2     :     0.000000
      h+3     :     0.000000
      h-3     :     0.000000
      h+4     :     0.000000
      h-4     :     0.000000
      h+5     :     0.000000
      h-5     :     0.000001
  1 F s       :     3.870278  s :     3.870278
      pz      :     1.404526  p :     5.125963
      px      :     1.817267
      py      :     1.904171
      dz2     :    -0.000180  d :     0.006592
      dxz     :     0.006420
      dyz     :     0.000350
      dx2y2   :     0.000002
      dxy     :     0.000000
      f0      :     0.000652  f :     0.000560
      f+1     :     0.001753
      f-1     :    -0.001863
      f+2     :    -0.000010
      f-2     :    -0.000000
      f+3     :     0.000012
      f-3     :     0.000016
      g0      :     0.000335  g :     0.001720
      g+1     :     0.001008
      g-1     :     0.000370
      g+2     :    -0.000006
      g-2     :    -0.000000
      g+3     :     0.000006
      g-3     :     0.000008
      g+4     :     0.000000
      g-4     :     0.000000
      h0      :     0.000082  h :     0.000627
      h+1     :     0.000307
      h-1     :     0.000235
      h+2     :    -0.000001
      h-2     :    -0.000000
      h+3     :     0.000002
      h-3     :     0.000003
      h+4     :     0.000000
      h-4     :     0.000000
      h+5     :    -0.000000
      h-5     :    -0.000000

SPIN
  0 S s       :     0.004271  s :     0.004271
      pz      :     0.004549  p :     0.897696
      px      :     0.895484
      py      :    -0.002337
      dz2     :     0.002437  d :     0.012615
      dxz     :     0.008889
      dyz     :     0.000254
      dx2y2   :     0.001034
      dxy     :     0.000000
      f0      :    -0.000803  f :     0.000538
      f+1     :     0.000647
      f-1     :     0.000194
      f+2     :     0.000033
      f-2     :     0.000000
      f+3     :     0.000225
      f-3     :     0.000242
      g0      :    -0.000048  g :    -0.000250
      g+1     :    -0.000092
      g-1     :    -0.000113
      g+2     :    -0.000000
      g-2     :    -0.000000
      g+3     :     0.000003
      g-3     :     0.000003
      g+4     :    -0.000002
      g-4     :    -0.000000
      h0      :     0.000011  h :    -0.000003
      h+1     :    -0.000013
      h-1     :    -0.000000
      h+2     :    -0.000000
      h-2     :    -0.000000
      h+3     :     0.000000
      h-3     :     0.000000
      h+4     :    -0.000000
      h-4     :    -0.000000
      h+5     :    -0.000000
      h-5     :    -0.000001
  1 F s       :     0.000759  s :     0.000759
      pz      :    -0.010645  p :     0.079626
      px      :     0.090394
      py      :    -0.000123
      dz2     :    -0.000982  d :     0.001601
      dxz     :     0.001921
      dyz     :     0.000659
      dx2y2   :     0.000002
      dxy     :     0.000000
      f0      :    -0.000478  f :     0.001763
      f+1     :     0.001420
      f-1     :     0.000805
      f+2     :    -0.000009
      f-2     :    -0.000000
      f+3     :     0.000011
      f-3     :     0.000014
      g0      :    -0.000119  g :     0.001093
      g+1     :     0.000878
      g-1     :     0.000327
      g+2     :    -0.000007
      g-2     :    -0.000000
      g+3     :     0.000006
      g-3     :     0.000008
      g+4     :    -0.000000
      g-4     :    -0.000000
      h0      :    -0.000001  h :     0.000291
      h+1     :     0.000226
      h-1     :     0.000065
      h+2     :    -0.000002
      h-2     :    -0.000000
      h+3     :     0.000002
      h-3     :     0.000003
      h+4     :    -0.000000
      h-4     :    -0.000000
      h+5     :     0.000000
      h-5     :     0.000000


                     *******************************
                     * LOEWDIN POPULATION ANALYSIS *
                     *******************************

-------------------------------------------
LOEWDIN ATOMIC CHARGES AND SPIN POPULATIONS
-------------------------------------------
   0 S :    0.998759    0.671443
   1 F :   -0.998759    0.328557

----------------------------------------------------
LOEWDIN REDUCED ORBITAL CHARGES AND SPIN POPULATIONS
----------------------------------------------------
CHARGE
  0 S s       :     5.295885  s :     5.295885
      pz      :     2.658611  p :     8.939092
      px      :     2.824293
      py      :     3.456187
      dz2     :     0.192854  d :     0.427518
      dxz     :     0.106280
      dyz     :     0.127335
      dx2y2   :     0.001048
      dxy     :     0.000000
      f0      :     0.092221  f :     0.210399
      f+1     :     0.055756
      f-1     :     0.061924
      f+2     :     0.000045
      f-2     :     0.000000
      f+3     :     0.000214
      f-3     :     0.000239
      g0      :     0.037209  g :     0.093757
      g+1     :     0.025830
      g-1     :     0.030708
      g+2     :     0.000001
      g-2     :     0.000000
      g+3     :     0.000003
      g-3     :     0.000004
      g+4     :     0.000002
      g-4     :     0.000000
      h0      :     0.013763  h :     0.034591
      h+1     :     0.009745
      h-1     :     0.011081
      h+2     :     0.000000
      h-2     :     0.000000
      h+3     :     0.000000
      h-3     :     0.000000
      h+4     :     0.000000
      h-4     :     0.000000
      h+5     :     0.000000
      h-5     :     0.000001
  1 F s       :     3.658878  s :     3.658878
      pz      :     1.706857  p :     5.306853
      px      :     1.734782
      py      :     1.865215
      dz2     :     0.204694  d :     0.535035
      dxz     :     0.113273
      dyz     :     0.217045
      dx2y2   :     0.000023
      dxy     :     0.000000
      f0      :     0.088202  f :     0.299852
      f+1     :     0.074618
      f-1     :     0.136965
      f+2     :     0.000046
      f-2     :     0.000000
      f+3     :     0.000010
      f-3     :     0.000012
      g0      :     0.032937  g :     0.136496
      g+1     :     0.037908
      g-1     :     0.065559
      g+2     :     0.000061
      g-2     :     0.000000
      g+3     :     0.000013
      g-3     :     0.000017
      g+4     :     0.000000
      g-4     :     0.000000
      h0      :     0.016605  h :     0.061644
      h+1     :     0.017261
      h-1     :     0.027691
      h+2     :     0.000055
      h-2     :     0.000000
      h+3     :     0.000014
      h-3     :     0.000017
      h+4     :     0.000000
      h-4     :     0.000000
      h+5     :     0.000000
      h-5     :     0.000000

SPIN
  0 S s       :     0.001336  s :     0.001336
      pz      :    -0.002035  p :     0.636235
      px      :     0.637878
      py      :     0.000391
      dz2     :     0.003021  d :     0.022819
      dxz     :     0.019947
      dyz     :    -0.001015
      dx2y2   :     0.000867
      dxy     :     0.000000
      f0      :    -0.001097  f :     0.006164
      f+1     :     0.006668
      f-1     :     0.000124
      f+2     :     0.000037
      f-2     :     0.000000
      f+3     :     0.000208
      f-3     :     0.000224
      g0      :    -0.000088  g :     0.003762
      g+1     :     0.004008
      g-1     :    -0.000161
      g+2     :    -0.000000
      g-2     :    -0.000000
      g+3     :     0.000003
      g-3     :     0.000003
      g+4     :    -0.000002
      g-4     :    -0.000000
      h0      :    -0.000022  h :     0.001127
      h+1     :     0.001161
      h-1     :    -0.000011
      h+2     :    -0.000000
      h-2     :    -0.000000
      h+3     :    -0.000000
      h-3     :     0.000000
      h+4     :    -0.000000
      h-4     :    -0.000000
      h+5     :    -0.000000
      h-5     :    -0.000001
  1 F s       :     0.000750  s :     0.000750
      pz      :    -0.003941  p :     0.117966
      px      :     0.122214
      py      :    -0.000308
      dz2     :     0.001311  d :     0.095855
      dxz     :     0.095346
      dyz     :    -0.000820
      dx2y2   :     0.000018
      dxy     :     0.000000
      f0      :     0.000270  f :     0.068306
      f+1     :     0.067204
      f-1     :     0.000776
      f+2     :     0.000037
      f-2     :     0.000000
      f+3     :     0.000008
      f-3     :     0.000011
      g0      :    -0.000356  g :     0.032930
      g+1     :     0.032632
      g-1     :     0.000576
      g+2     :     0.000049
      g-2     :     0.000000
      g+3     :     0.000013
      g-3     :     0.000016
      g+4     :    -0.000000
      g-4     :    -0.000000
      h0      :    -0.000198  h :     0.012749
      h+1     :     0.012696
      h-1     :     0.000179
      h+2     :     0.000044
      h-2     :     0.000000
      h+3     :     0.000013
      h-3     :     0.000016
      h+4     :    -0.000000
      h-4     :    -0.000000
      h+5     :    -0.000000
      h-5     :    -0.000000


                      *****************************
                      * MAYER POPULATION ANALYSIS *
                      *****************************

  NA   - Mulliken gross atomic population
  ZA   - Total nuclear charge
  QA   - Mulliken gross atomic charge
  VA   - Mayer's total valence
  BVA  - Mayer's bonded valence
  FA   - Mayer's free valence

  ATOM       NA         ZA         QA         VA         BVA        FA
  0 S     15.9943    16.0000     0.0057     1.8002     0.9763     0.8239
  1 F      9.0057     9.0000    -0.0057     0.9952     0.9763     0.0189

  Mayer bond orders larger than 0.1
B(  0-S ,  1-F ) :   0.9763 

-------
TIMINGS
-------

Total SCF time: 0 days 0 hours 7 min 29 sec 

Total time                  ....     449.138 sec
Sum of individual times     ....     448.207 sec  ( 99.8%)

Fock matrix formation       ....     446.179 sec  ( 99.3%)
  XC integration            ....       7.528 sec  (  1.7% of F)
    Basis function eval.    ....       0.601 sec  (  8.0% of XC)
    Density eval.           ....       1.385 sec  ( 18.4% of XC)
    XC-Functional eval.     ....       0.114 sec  (  1.5% of XC)
    XC-Potential eval.      ....       4.799 sec  ( 63.7% of XC)
Diagonalization             ....       0.830 sec  (  0.2%)
Density matrix formation    ....       0.017 sec  (  0.0%)
Population analysis         ....       0.065 sec  (  0.0%)
Initial guess               ....       0.396 sec  (  0.1%)
Orbital Transformation      ....       0.000 sec  (  0.0%)
Orbital Orthonormalization  ....       0.000 sec  (  0.0%)
DIIS solution               ....       0.442 sec  (  0.1%)
Grid generation             ....       0.277 sec  (  0.1%)

-------------------------   --------------------
FINAL SINGLE POINT ENERGY      -497.780832700326
-------------------------   --------------------


                            ***************************************
                            *     ORCA property calculations      *
                            ***************************************

                                    ---------------------
                                    Active property flags
                                    ---------------------
   (+) Dipole Moment


------------------------------------------------------------------------------
                       ORCA ELECTRIC PROPERTIES CALCULATION
------------------------------------------------------------------------------

Dipole Moment Calculation                       ... on
Quadrupole Moment Calculation                   ... off
Polarizability Calculation                      ... off
GBWName                                         ... sf_pbe_00.gbw
Electron density file                           ... sf_pbe_00.scfp.tmp
The origin for moment calculation is the CENTER OF MASS  = ( 0.000000,  0.000000  1.125449)

-------------
DIPOLE MOMENT
-------------
                                X             Y             Z
Electronic contribution:     -0.00000       0.00000       0.70057
Nuclear contribution   :      0.00000       0.00000      -0.91396
                        -----------------------------------------
Total Dipole Moment    :     -0.00000       0.00000      -0.21339
                        -----------------------------------------
Magnitude (a.u.)       :      0.21339
Magnitude (Debye)      :      0.54240



--------------------
Rotational spectrum 
--------------------
 
Rotational constants in cm-1:     0.000000     0.551599     0.551599 
Rotational constants in MHz :     0.000000 16536.529748 16536.529748 

 Dipole components along the rotational axes: 
x,y,z [a.u.] :    -0.213391     0.000000    -0.000000 
x,y,z [Debye]:    -0.542398     0.000000    -0.000000 

 

Timings for individual modules:

Sum of individual times         ...      451.054 sec (=   7.518 min)
GTO integral calculation        ...        1.592 sec (=   0.027 min)   0.4 %
SCF iterations                  ...      449.462 sec (=   7.491 min)  99.6 %
                             ****ORCA TERMINATED NORMALLY****
TOTAL RUN TIME: 0 days 0 hours 7 minutes 31 seconds 815 msec
