
                                 *****************
                                 * O   R   C   A *
                                 *****************

           --- An Ab Initio, DFT and Semiempirical electronic structure package ---

                  #######################################################
                  #                        -***-                        #
                  #          Department of theory and spectroscopy      #
                  #               Directorship: Frank Neese             #
                  #        Max Planck Institute fuer Kohlenforschung    #
                  #                Kaiser Wilhelm Platz 1               #
                  #                 D-45470 Muelheim/Ruhr               #
                  #                      Germany                        #
                  #                                                     #
                  #                  All rights reserved                #
                  #                        -***-                        #
                  #######################################################


                         Program Version 4.1.2  - RELEASE  -


 With contributions from (in alphabetic order):
   Daniel Aravena         : Magnetic Properties
   Michael Atanasov       : Ab Initio Ligand Field Theory
   Alexander A. Auer      : GIAO ZORA
   Ute Becker             : Parallelization
   Giovanni Bistoni       : ED, Open-shell LED
   Martin Brehm           : Molecular dynamics
   Dmytro Bykov           : SCF Hessian
   Vijay G. Chilkuri      : MRCI spin determinant printing
   Dipayan Datta          : RHF DLPNO-CCSD density
   Achintya Kumar Dutta   : EOM-CC, STEOM-CC
   Dmitry Ganyushin       : Spin-Orbit,Spin-Spin,Magnetic field MRCI
   Miquel Garcia          : C-PCM Hessian
   Yang Guo               : DLPNO-NEVPT2, CIM, IAO-localization
   Andreas Hansen         : Spin unrestricted coupled pair/coupled cluster methods
   Benjamin Helmich-Paris : CASSCF linear response (MC-RPA)
   Lee Huntington         : MR-EOM, pCC
   Robert Izsak           : Overlap fitted RIJCOSX, COSX-SCS-MP3, EOM
   Christian Kollmar      : KDIIS, OOCD, Brueckner-CCSD(T), CCSD density
   Simone Kossmann        : Meta GGA functionals, TD-DFT gradient, OOMP2, MP2 Hessian
   Martin Krupicka        : AUTO-CI
   Lucas Lang             : DCDCAS
   Dagmar Lenk            : GEPOL surface, SMD
   Dimitrios Liakos       : Extrapolation schemes; parallel MDCI
   Dimitrios Manganas     : ROCIS; embedding schemes
   Dimitrios Pantazis     : SARC Basis sets
   Taras Petrenko         : DFT Hessian,TD-DFT gradient, ASA, ECA, R-Raman, ABS, FL, XAS/XES, NRVS
   Peter Pinski           : DLPNO-MP2, DLPNO-MP2 Gradient
   Christoph Reimann      : Effective Core Potentials
   Marius Retegan         : Local ZFS, SOC
   Christoph Riplinger    : Optimizer, TS searches, QM/MM, DLPNO-CCSD(T), (RO)-DLPNO pert. Triples
   Tobias Risthaus        : Range-separated hybrids, TD-DFT gradient, RPA, STAB
   Michael Roemelt        : Restricted open shell CIS
   Masaaki Saitow         : Open-shell DLPNO
   Barbara Sandhoefer     : DKH picture change effects
   Avijit Sen             : IP-ROCIS
   Kantharuban Sivalingam : CASSCF convergence, NEVPT2, FIC-MRCI
   Bernardo de Souza      : ESD, SOC TD-DFT
   Georgi Stoychev        : AutoAux, RI-MP2 NMR
   Willem Van den Heuvel  : Paramagnetic NMR
   Boris Wezisla          : Elementary symmetry handling
   Frank Wennmohs         : Technical directorship


 We gratefully acknowledge several colleagues who have allowed us to
 interface, adapt or use parts of their codes:
   Stefan Grimme, W. Hujo, H. Kruse,             : VdW corrections, initial TS optimization,
                  C. Bannwarth                     DFT functionals, gCP, sTDA/sTD-DF
   Ed Valeev                                     : LibInt (2-el integral package), F12 methods
   Garnet Chan, S. Sharma, J. Yang, R. Olivares  : DMRG
   Ulf Ekstrom                                   : XCFun DFT Library
   Mihaly Kallay                                 : mrcc  (arbitrary order and MRCC methods)
   Andreas Klamt, Michael Diedenhofen            : otool_cosmo (COSMO solvation model)
   Jiri Pittner, Ondrej Demel                    : Mk-CCSD
   Frank Weinhold                                : gennbo (NPA and NBO analysis)
   Christopher J. Cramer and Donald G. Truhlar   : smd solvation model
   Lars Goerigk                                  : TD-DFT with DH, B97 family of functionals
   V. Asgeirsson, H. Jonsson                     : NEB implementation
   FAccTs GmbH                                   : IRC, NEB, NEB-TS, Multilevel


 Your calculation uses the libint2 library for the computation of 2-el integrals
 For citations please refer to: http://libint.valeyev.net

 This ORCA versions uses:
   CBLAS   interface :  Fast vector & matrix operations
   LAPACKE interface :  Fast linear algebra routines
   SCALAPACK package :  Parallel linear algebra routines


----- Orbital basis set information -----
Your calculation utilizes the basis: aug-pc-4
   H, C-F              : F. Jensen, J. Chem. Phys. 115, 9113 (2001).
                         F. Jensen, J. Chem. Phys. 116, 7372 (2002).
                         F. Jensen, J. Chem. Phys. 117, 9234 (2002).
   Si-Cl               : F. Jensen, T. Helgaker, J. Chem. Phys. 121, 3463 (2004).
   He-B, Ne-Mg, Al, Ar : F. Jensen, J. Phys. Chem. A 111, 11198 (2007).
   K, Ca, Ga-Kr        : F. Jensen, J. Chem. Phys. 136, 094110 (2012).
   Sc-Zn               : F. Jensen, J. Chem. Phys. 138, 014107 (2013).

================================================================================
                                        WARNINGS
                       Please study these warnings very carefully!
================================================================================


INFO   : the flag for use of LIBINT has been found!

================================================================================
                                       INPUT FILE
================================================================================
NAME = ar_pbe.inp
|  1> !uks pbe nori aug-pc-4 grid7 nofinalgrid verytightscf
|  2> 
|  3> %maxcore 1500
|  4> 
|  5> %pal nprocs 1 end
|  6> 
|  7> %scf
|  8> 	maxiter 200
|  9> end
| 10> %elprop
| 11> 	dipole true
| 12> 	 polar 1
| 13> 	 maxiter 200
| 14> end
| 15> 
| 16> * xyz 0 1
| 17> Ar 0.0 0.0 0.0
| 18> *
| 19> 
| 20>                          ****END OF INPUT****
================================================================================

                       ****************************
                       * Single Point Calculation *
                       ****************************

---------------------------------
CARTESIAN COORDINATES (ANGSTROEM)
---------------------------------
  Ar     0.000000    0.000000    0.000000

----------------------------
CARTESIAN COORDINATES (A.U.)
----------------------------
  NO LB      ZA    FRAG     MASS         X           Y           Z
   0 Ar   18.0000    0    39.948    0.000000    0.000000    0.000000

--------------------------------
INTERNAL COORDINATES (ANGSTROEM)
--------------------------------
 Ar     0   0   0     0.000000000000     0.00000000     0.00000000

---------------------------
INTERNAL COORDINATES (A.U.)
---------------------------
 Ar     0   0   0     0.000000000000     0.00000000     0.00000000

---------------------
BASIS SET INFORMATION
---------------------
There are 1 groups of distinct atoms

 Group   1 Type Ar  : 44s27p7d4f3g2h contracted to 8s7p7d4f3g2h pattern {15121211111/111111111/1111111/1111/111/11}

Atom   0Ar   basis set group =>   1
------------------------------------------------------------------------------
                           ORCA GTO INTEGRAL CALCULATION
------------------------------------------------------------------------------

                         BASIS SET STATISTICS AND STARTUP INFO

 # of primitive gaussian shells          ...   87
 # of primitive gaussian functions       ...  237
 # of contracted shells                  ...   31
 # of contracted basis functions         ...  141
 Highest angular momentum                ...    5
 Maximum contraction depth               ...   15
 Integral package used                   ... LIBINT
 Integral threshhold            Thresh   ...  1.000e-12
 Primitive cut-off              TCut     ...  1.000e-14


------------------------------ INTEGRAL EVALUATION ----------------------------


 * One electron integrals 
 Pre-screening matrix                    ... done
 Shell pair data                         ... done (   0.000 sec)

-------------------------------------------------------------------------------
                                 ORCA SCF
-------------------------------------------------------------------------------

------------
SCF SETTINGS
------------
Hamiltonian:
 Density Functional     Method          .... DFT(GTOs)
 Exchange Functional    Exchange        .... PBE
   PBE kappa parameter   XKappa         ....  0.804000
   PBE mue parameter    XMuePBE         ....  0.219520
 Correlation Functional Correlation     .... PBE
   PBE beta parameter  CBetaPBE         ....  0.066725
 LDA part of GGA corr.  LDAOpt          .... PW91-LDA
 Gradients option       PostSCFGGA      .... off
   Density functional embedding theory  .... OFF
   NL short-range parameter             ....  6.400000


General Settings:
 Integral files         IntName         .... ar_pbe
 Hartree-Fock type      HFTyp           .... UHF
 Total Charge           Charge          ....    0
 Multiplicity           Mult            ....    1
 Number of Electrons    NEL             ....   18
 Basis Dimension        Dim             ....  141
 Nuclear Repulsion      ENuc            ....      0.0000000000 Eh

Convergence Acceleration:
 DIIS                   CNVDIIS         .... on
   Start iteration      DIISMaxIt       ....    12
   Startup error        DIISStart       ....  0.200000
   # of expansion vecs  DIISMaxEq       ....     5
   Bias factor          DIISBfac        ....   1.050
   Max. coefficient     DIISMaxC        ....  10.000
 Newton-Raphson         CNVNR           .... off
 SOSCF                  CNVSOSCF        .... off
 Level Shifting         CNVShift        .... on
   Level shift para.    LevelShift      ....    0.2500
   Turn off err/grad.   ShiftErr        ....    0.0010
 Zerner damping         CNVZerner       .... off
 Static damping         CNVDamp         .... on
   Fraction old density DampFac         ....    0.7000
   Max. Damping (<1)    DampMax         ....    0.9800
   Min. Damping (>=0)   DampMin         ....    0.0000
   Turn off err/grad.   DampErr         ....    0.1000
 Fernandez-Rico         CNVRico         .... off

SCF Procedure:
 Maximum # iterations   MaxIter         ....   200
 SCF integral mode      SCFMode         .... Direct
   Integral package                     .... LIBINT
 Reset frequency        DirectResetFreq ....    20
 Integral Threshold     Thresh          ....  1.000e-12 Eh
 Primitive CutOff       TCut            ....  1.000e-14 Eh

Convergence Tolerance:
 Convergence Check Mode ConvCheckMode   .... Total+1el-Energy
 Convergence forced     ConvForced      .... 0
 Energy Change          TolE            ....  1.000e-09 Eh
 1-El. energy change                    ....  1.000e-06 Eh
 DIIS Error             TolErr          ....  1.000e-08


Diagonalization of the overlap matrix:
Smallest eigenvalue                        ... 6.022e-04
Time for diagonalization                   ...    0.003 sec
Threshold for overlap eigenvalues          ... 1.000e-08
Number of eigenvalues below threshold      ... 0
Time for construction of square roots      ...    0.006 sec
Total time needed                          ...    0.010 sec

-------------------
DFT GRID GENERATION
-------------------

General Integration Accuracy     IntAcc      ...  5.670
Radial Grid Type                 RadialGrid  ... Gauss-Chebyshev
Angular Grid (max. acc.)         AngularGrid ... Lebedev-770
Angular grid pruning method      GridPruning ... 3 (G Style)
Weight generation scheme         WeightScheme... Becke
Basis function cutoff            BFCut       ...    1.0000e-12
Integration weight cutoff        WCut        ...    1.0000e-14
Grids for H and He will be reduced by one unit

# of grid points (after initial pruning)     ...  27312 (   0.0 sec)
# of grid points (after weights+screening)   ...  27312 (   0.0 sec)
Grid point division into batches done        ...    0.7 sec
Reduced shell lists constructed in    0.9 sec

Total number of grid points                  ...    27312
Total number of batches                      ...      427
Average number of points per batch           ...       63
Average number of grid points per atom       ...    27312
Average number of shells per batch           ...    24.46 (78.89%)
Average number of basis functions per batch  ...   112.89 (80.07%)
Average number of large shells per batch     ...    22.62 (92.48%)
Average number of large basis fcns per batch ...   104.69 (92.73%)
Maximum spatial batch extension              ...  15.91, 15.91, 15.91 au
Average spatial batch extension              ...   3.11,  3.10,  3.09 au

Time for grid setup =    0.889 sec

------------------------------
INITIAL GUESS: MODEL POTENTIAL
------------------------------
Loading Hartree-Fock densities                     ... done
Calculating cut-offs                               ... done
Setting up the integral package                    ... done
Initializing the effective Hamiltonian             ... done
Starting the Coulomb interaction                   ... done (   0.0 sec)
Reading the grid                                   ... done
Mapping shells                                     ... done
Starting the XC term evaluation                    ... done (   0.4 sec)
  promolecular density results
     # of electrons  =     18.000000001
     EX              =    -30.002389229
     EC              =     -0.708286542
     EX+EC           =    -30.710675771
Transforming the Hamiltonian                       ... done (   0.0 sec)
Diagonalizing the Hamiltonian                      ... done (   0.0 sec)
Back transforming the eigenvectors                 ... done (   0.0 sec)
Now organizing SCF variables                       ... done
                      ------------------
                      INITIAL GUESS DONE (   1.4 sec)
                      ------------------
--------------
SCF ITERATIONS
--------------
ITER       Energy         Delta-E        Max-DP      RMS-DP      [F,P]     Damp
               ***  Starting incremental Fock matrix formation  ***
  0   -527.3459004505   0.000000000000 0.00304407  0.00003757  0.0065581 0.7000
  1   -527.3459331522  -0.000032701683 0.00194762  0.00002832  0.0036326 0.7000
                               ***Turning on DIIS***
  2   -527.3459498736  -0.000016721384 0.00365364  0.00006425  0.0016333 0.0000
  3   -527.3459771022  -0.000027228633 0.00082799  0.00001116  0.0016762 0.0000
  4   -527.3459817199  -0.000004617641 0.00008200  0.00000208  0.0001904 0.0000
  5   -527.3459818021  -0.000000082194 0.00001804  0.00000027  0.0000239 0.0000
  6   -527.3459818032  -0.000000001136 0.00000050  0.00000001  0.0000016 0.0000
  7   -527.3459818032  -0.000000000006 0.00000008  0.00000000  0.0000002 0.0000
                 **** Energy Check signals convergence ****

               *****************************************************
               *                     SUCCESS                       *
               *           SCF CONVERGED AFTER   8 CYCLES          *
               *****************************************************


----------------
TOTAL SCF ENERGY
----------------

Total Energy       :         -527.34598180 Eh          -14349.81370 eV

Components:
Nuclear Repulsion  :            0.00000000 Eh               0.00000 eV
Electronic Energy  :         -527.34598180 Eh          -14349.81370 eV
One Electron Energy:         -728.34509810 Eh          -19819.27771 eV
Two Electron Energy:          200.99911629 Eh            5469.46402 eV

Virial components:
Potential Energy   :        -1054.26454230 Eh          -28687.99667 eV
Kinetic Energy     :          526.91856050 Eh           14338.18297 eV
Virial Ratio       :            2.00081117


DFT components:
N(Alpha)           :        8.999999995199 electrons
N(Beta)            :        8.999999995199 electrons
N(Total)           :       17.999999990397 electrons
E(X)               :      -29.984748948471 Eh       
E(C)               :       -0.704242368554 Eh       
E(XC)              :      -30.688991317025 Eh       
DFET-embed. en.    :        0.000000000000 Eh       

---------------
SCF CONVERGENCE
---------------

  Last Energy change         ...   -4.5475e-13  Tolerance :   1.0000e-09
  Last MAX-Density change    ...    2.1559e-08  Tolerance :   1.0000e-08
  Last RMS-Density change    ...    3.2518e-10  Tolerance :   1.0000e-09
  Last DIIS Error            ...    3.8184e-09  Tolerance :   1.0000e-08

             **** THE GBW FILE WAS UPDATED (ar_pbe.gbw) ****
             **** DENSITY FILE WAS UPDATED (ar_pbe.scfp.tmp) ****
             **** ENERGY FILE WAS UPDATED (ar_pbe.en.tmp) ****
----------------------
UHF SPIN CONTAMINATION
----------------------

Warning: in a DFT calculation there is little theoretical justification to 
         calculate <S**2> as in Hartree-Fock theory. We will do it anyways
         but you should keep in mind that the values have only limited relevance

Expectation value of <S**2>     :     0.000000
Ideal value S*(S+1) for S=0.0   :     0.000000
Deviation                       :     0.000000

----------------
ORBITAL ENERGIES
----------------
                 SPIN UP ORBITALS
  NO   OCC          E(Eh)            E(eV) 
   0   1.0000    -114.156144     -3106.3466 
   1   1.0000     -10.830190      -294.7045 
   2   1.0000      -8.442490      -229.7318 
   3   1.0000      -8.442490      -229.7318 
   4   1.0000      -8.442490      -229.7318 
   5   1.0000      -0.884216       -24.0607 
   6   1.0000      -0.377996       -10.2858 
   7   1.0000      -0.377996       -10.2858 
   8   1.0000      -0.377996       -10.2858 
   9   0.0000       0.008920         0.2427 
  10   0.0000       0.035368         0.9624 
  11   0.0000       0.035368         0.9624 
  12   0.0000       0.035368         0.9624 
  13   0.0000       0.138438         3.7671 
  14   0.0000       0.138438         3.7671 
  15   0.0000       0.138438         3.7671 
  16   0.0000       0.138438         3.7671 
  17   0.0000       0.138438         3.7671 
  18   0.0000       0.184584         5.0228 
  19   0.0000       0.184584         5.0228 
  20   0.0000       0.184584         5.0228 
  21   0.0000       0.339880         9.2486 
  22   0.0000       0.360012         9.7964 
  23   0.0000       0.360012         9.7964 
  24   0.0000       0.360012         9.7964 
  25   0.0000       0.360012         9.7964 
  26   0.0000       0.360012         9.7964 
  27   0.0000       0.379997        10.3403 
  28   0.0000       0.379997        10.3403 
  29   0.0000       0.379997        10.3403 
  30   0.0000       0.379997        10.3403 
  31   0.0000       0.379997        10.3403 
  32   0.0000       0.379997        10.3403 
  33   0.0000       0.379997        10.3403 
  34   0.0000       0.650212        17.6932 
  35   0.0000       0.650212        17.6932 
  36   0.0000       0.650212        17.6932 
  37   0.0000       0.650212        17.6932 
  38   0.0000       0.650212        17.6932 
  39   0.0000       0.650212        17.6932 
  40   0.0000       0.650212        17.6932 
  41   0.0000       0.650212        17.6932 
  42   0.0000       0.650212        17.6932 
  43   0.0000       0.655859        17.8468 
  44   0.0000       0.655859        17.8468 
  45   0.0000       0.655859        17.8468 
  46   0.0000       0.900771        24.5112 
  47   0.0000       0.900771        24.5112 
  48   0.0000       0.900771        24.5112 
  49   0.0000       0.900771        24.5112 
  50   0.0000       0.900771        24.5112 
  51   0.0000       0.972431        26.4612 
  52   0.0000       0.972431        26.4612 
  53   0.0000       0.972431        26.4612 
  54   0.0000       0.972431        26.4612 
  55   0.0000       0.972431        26.4612 
  56   0.0000       0.972431        26.4612 
  57   0.0000       0.972431        26.4612 
  58   0.0000       0.972431        26.4612 
  59   0.0000       0.972431        26.4612 
  60   0.0000       0.972431        26.4612 
  61   0.0000       0.972431        26.4612 
  62   0.0000       1.371883        37.3308 
  63   0.0000       1.445341        39.3297 
  64   0.0000       1.445341        39.3297 
  65   0.0000       1.445341        39.3297 
  66   0.0000       1.445341        39.3297 
  67   0.0000       1.445341        39.3297 
  68   0.0000       1.445341        39.3297 
  69   0.0000       1.445341        39.3297 
  70   0.0000       1.962449        53.4009 
  71   0.0000       1.962449        53.4009 
  72   0.0000       1.962449        53.4009 
  73   0.0000       2.247705        61.1632 
  74   0.0000       2.247705        61.1632 
  75   0.0000       2.247705        61.1632 
  76   0.0000       2.247705        61.1632 
  77   0.0000       2.247705        61.1632 
  78   0.0000       3.163378        86.0799 
  79   0.0000       3.163378        86.0799 
  80   0.0000       3.163378        86.0799 
  81   0.0000       3.163378        86.0799 
  82   0.0000       3.163378        86.0799 
  83   0.0000       3.163378        86.0799 
  84   0.0000       3.163378        86.0799 
  85   0.0000       3.163378        86.0799 
  86   0.0000       3.163378        86.0799 
  87   0.0000       3.861933       105.0886 
  88   0.0000       3.861933       105.0886 
  89   0.0000       3.861933       105.0886 
  90   0.0000       3.861933       105.0886 
  91   0.0000       3.861933       105.0886 
  92   0.0000       3.861933       105.0886 
  93   0.0000       3.861933       105.0886 
  94   0.0000       4.656096       126.6988 
  95   0.0000       5.737248       156.1185 
  96   0.0000       5.737248       156.1185 
  97   0.0000       5.737248       156.1185 
  98   0.0000       5.954302       162.0248 
  99   0.0000       5.954302       162.0248 
 100   0.0000       5.954302       162.0248 
 101   0.0000       5.954302       162.0248 
 102   0.0000       5.954302       162.0248 
 103   0.0000       6.119099       166.5091 
 104   0.0000       6.119099       166.5091 
 105   0.0000       6.119099       166.5091 
 106   0.0000       6.119099       166.5091 
 107   0.0000       6.119099       166.5091 
 108   0.0000       6.119099       166.5091 
 109   0.0000       6.119099       166.5091 
 110   0.0000       6.119099       166.5091 
 111   0.0000       6.119099       166.5091 
 112   0.0000       6.119099       166.5091 
 113   0.0000       6.119099       166.5091 
 114   0.0000       9.970374       271.3077 
 115   0.0000       9.970374       271.3077 
 116   0.0000       9.970374       271.3077 
 117   0.0000       9.970374       271.3077 
 118   0.0000       9.970374       271.3077 
 119   0.0000       9.970374       271.3077 
 120   0.0000       9.970374       271.3077 
 121   0.0000       9.970374       271.3077 
 122   0.0000       9.970374       271.3077 
 123   0.0000      14.077863       383.0781 
 124   0.0000      14.077863       383.0781 
 125   0.0000      14.077863       383.0781 
 126   0.0000      14.077863       383.0781 
 127   0.0000      14.077863       383.0781 
 128   0.0000      14.077863       383.0781 
 129   0.0000      14.077863       383.0781 
 130   0.0000      18.307891       498.1830 
 131   0.0000      18.307891       498.1830 
 132   0.0000      18.307891       498.1830 
 133   0.0000      18.307891       498.1830 
 134   0.0000      18.307891       498.1830 
 135   0.0000      48.553901      1321.2188 
 136   0.0000      69.093494      1880.1296 
 137   0.0000      69.093494      1880.1296 
 138   0.0000      69.093494      1880.1296 
 139   0.0000      69.093494      1880.1296 
 140   0.0000      69.093494      1880.1296 

                 SPIN DOWN ORBITALS
  NO   OCC          E(Eh)            E(eV) 
   0   1.0000    -114.156144     -3106.3466 
   1   1.0000     -10.830190      -294.7045 
   2   1.0000      -8.442490      -229.7318 
   3   1.0000      -8.442490      -229.7318 
   4   1.0000      -8.442490      -229.7318 
   5   1.0000      -0.884216       -24.0607 
   6   1.0000      -0.377996       -10.2858 
   7   1.0000      -0.377996       -10.2858 
   8   1.0000      -0.377996       -10.2858 
   9   0.0000       0.008920         0.2427 
  10   0.0000       0.035368         0.9624 
  11   0.0000       0.035368         0.9624 
  12   0.0000       0.035368         0.9624 
  13   0.0000       0.138438         3.7671 
  14   0.0000       0.138438         3.7671 
  15   0.0000       0.138438         3.7671 
  16   0.0000       0.138438         3.7671 
  17   0.0000       0.138438         3.7671 
  18   0.0000       0.184584         5.0228 
  19   0.0000       0.184584         5.0228 
  20   0.0000       0.184584         5.0228 
  21   0.0000       0.339880         9.2486 
  22   0.0000       0.360012         9.7964 
  23   0.0000       0.360012         9.7964 
  24   0.0000       0.360012         9.7964 
  25   0.0000       0.360012         9.7964 
  26   0.0000       0.360012         9.7964 
  27   0.0000       0.379997        10.3403 
  28   0.0000       0.379997        10.3403 
  29   0.0000       0.379997        10.3403 
  30   0.0000       0.379997        10.3403 
  31   0.0000       0.379997        10.3403 
  32   0.0000       0.379997        10.3403 
  33   0.0000       0.379997        10.3403 
  34   0.0000       0.650212        17.6932 
  35   0.0000       0.650212        17.6932 
  36   0.0000       0.650212        17.6932 
  37   0.0000       0.650212        17.6932 
  38   0.0000       0.650212        17.6932 
  39   0.0000       0.650212        17.6932 
  40   0.0000       0.650212        17.6932 
  41   0.0000       0.650212        17.6932 
  42   0.0000       0.650212        17.6932 
  43   0.0000       0.655859        17.8468 
  44   0.0000       0.655859        17.8468 
  45   0.0000       0.655859        17.8468 
  46   0.0000       0.900771        24.5112 
  47   0.0000       0.900771        24.5112 
  48   0.0000       0.900771        24.5112 
  49   0.0000       0.900771        24.5112 
  50   0.0000       0.900771        24.5112 
  51   0.0000       0.972431        26.4612 
  52   0.0000       0.972431        26.4612 
  53   0.0000       0.972431        26.4612 
  54   0.0000       0.972431        26.4612 
  55   0.0000       0.972431        26.4612 
  56   0.0000       0.972431        26.4612 
  57   0.0000       0.972431        26.4612 
  58   0.0000       0.972431        26.4612 
  59   0.0000       0.972431        26.4612 
  60   0.0000       0.972431        26.4612 
  61   0.0000       0.972431        26.4612 
  62   0.0000       1.371883        37.3308 
  63   0.0000       1.445341        39.3297 
  64   0.0000       1.445341        39.3297 
  65   0.0000       1.445341        39.3297 
  66   0.0000       1.445341        39.3297 
  67   0.0000       1.445341        39.3297 
  68   0.0000       1.445341        39.3297 
  69   0.0000       1.445341        39.3297 
  70   0.0000       1.962449        53.4009 
  71   0.0000       1.962449        53.4009 
  72   0.0000       1.962449        53.4009 
  73   0.0000       2.247705        61.1632 
  74   0.0000       2.247705        61.1632 
  75   0.0000       2.247705        61.1632 
  76   0.0000       2.247705        61.1632 
  77   0.0000       2.247705        61.1632 
  78   0.0000       3.163378        86.0799 
  79   0.0000       3.163378        86.0799 
  80   0.0000       3.163378        86.0799 
  81   0.0000       3.163378        86.0799 
  82   0.0000       3.163378        86.0799 
  83   0.0000       3.163378        86.0799 
  84   0.0000       3.163378        86.0799 
  85   0.0000       3.163378        86.0799 
  86   0.0000       3.163378        86.0799 
  87   0.0000       3.861933       105.0886 
  88   0.0000       3.861933       105.0886 
  89   0.0000       3.861933       105.0886 
  90   0.0000       3.861933       105.0886 
  91   0.0000       3.861933       105.0886 
  92   0.0000       3.861933       105.0886 
  93   0.0000       3.861933       105.0886 
  94   0.0000       4.656096       126.6988 
  95   0.0000       5.737248       156.1185 
  96   0.0000       5.737248       156.1185 
  97   0.0000       5.737248       156.1185 
  98   0.0000       5.954302       162.0248 
  99   0.0000       5.954302       162.0248 
 100   0.0000       5.954302       162.0248 
 101   0.0000       5.954302       162.0248 
 102   0.0000       5.954302       162.0248 
 103   0.0000       6.119099       166.5091 
 104   0.0000       6.119099       166.5091 
 105   0.0000       6.119099       166.5091 
 106   0.0000       6.119099       166.5091 
 107   0.0000       6.119099       166.5091 
 108   0.0000       6.119099       166.5091 
 109   0.0000       6.119099       166.5091 
 110   0.0000       6.119099       166.5091 
 111   0.0000       6.119099       166.5091 
 112   0.0000       6.119099       166.5091 
 113   0.0000       6.119099       166.5091 
 114   0.0000       9.970374       271.3077 
 115   0.0000       9.970374       271.3077 
 116   0.0000       9.970374       271.3077 
 117   0.0000       9.970374       271.3077 
 118   0.0000       9.970374       271.3077 
 119   0.0000       9.970374       271.3077 
 120   0.0000       9.970374       271.3077 
 121   0.0000       9.970374       271.3077 
 122   0.0000       9.970374       271.3077 
 123   0.0000      14.077863       383.0781 
 124   0.0000      14.077863       383.0781 
 125   0.0000      14.077863       383.0781 
 126   0.0000      14.077863       383.0781 
 127   0.0000      14.077863       383.0781 
 128   0.0000      14.077863       383.0781 
 129   0.0000      14.077863       383.0781 
 130   0.0000      18.307891       498.1830 
 131   0.0000      18.307891       498.1830 
 132   0.0000      18.307891       498.1830 
 133   0.0000      18.307891       498.1830 
 134   0.0000      18.307891       498.1830 
 135   0.0000      48.553901      1321.2188 
 136   0.0000      69.093494      1880.1296 
 137   0.0000      69.093494      1880.1296 
 138   0.0000      69.093494      1880.1296 
 139   0.0000      69.093494      1880.1296 
 140   0.0000      69.093494      1880.1296 

                    ********************************
                    * MULLIKEN POPULATION ANALYSIS *
                    ********************************

--------------------------------------------
MULLIKEN ATOMIC CHARGES AND SPIN POPULATIONS
--------------------------------------------
   0 Ar:    0.000000    0.000000
Sum of atomic charges         :    0.0000000
Sum of atomic spin populations:    0.0000000

-----------------------------------------------------
MULLIKEN REDUCED ORBITAL CHARGES AND SPIN POPULATIONS
-----------------------------------------------------
CHARGE
  0 Ars       :     6.000000  s :     6.000000
      pz      :     4.000000  p :    12.000000
      px      :     4.000000
      py      :     4.000000
      dz2     :     0.000000  d :     0.000000
      dxz     :     0.000000
      dyz     :     0.000000
      dx2y2   :     0.000000
      dxy     :     0.000000
      f0      :     0.000000  f :     0.000000
      f+1     :     0.000000
      f-1     :     0.000000
      f+2     :     0.000000
      f-2     :     0.000000
      f+3     :     0.000000
      f-3     :     0.000000
      g0      :     0.000000  g :     0.000000
      g+1     :     0.000000
      g-1     :     0.000000
      g+2     :     0.000000
      g-2     :     0.000000
      g+3     :     0.000000
      g-3     :     0.000000
      g+4     :     0.000000
      g-4     :     0.000000
      h0      :     0.000000  h :     0.000000
      h+1     :     0.000000
      h-1     :     0.000000
      h+2     :     0.000000
      h-2     :     0.000000
      h+3     :     0.000000
      h-3     :     0.000000
      h+4     :     0.000000
      h-4     :     0.000000
      h+5     :     0.000000
      h-5     :     0.000000

SPIN
  0 Ars       :     0.000000  s :     0.000000
      pz      :     0.000000  p :    -0.000000
      px      :    -0.000000
      py      :    -0.000000
      dz2     :     0.000000  d :    -0.000000
      dxz     :    -0.000000
      dyz     :    -0.000000
      dx2y2   :    -0.000000
      dxy     :    -0.000000
      f0      :    -0.000000  f :    -0.000000
      f+1     :    -0.000000
      f-1     :     0.000000
      f+2     :    -0.000000
      f-2     :     0.000000
      f+3     :    -0.000000
      f-3     :    -0.000000
      g0      :     0.000000  g :    -0.000000
      g+1     :    -0.000000
      g-1     :    -0.000000
      g+2     :    -0.000000
      g-2     :     0.000000
      g+3     :    -0.000000
      g-3     :    -0.000000
      g+4     :     0.000000
      g-4     :    -0.000000
      h0      :     0.000000  h :     0.000000
      h+1     :     0.000000
      h-1     :    -0.000000
      h+2     :     0.000000
      h-2     :    -0.000000
      h+3     :    -0.000000
      h-3     :     0.000000
      h+4     :     0.000000
      h-4     :     0.000000
      h+5     :    -0.000000
      h-5     :     0.000000


                     *******************************
                     * LOEWDIN POPULATION ANALYSIS *
                     *******************************

-------------------------------------------
LOEWDIN ATOMIC CHARGES AND SPIN POPULATIONS
-------------------------------------------
   0 Ar:    0.000000    0.000000

----------------------------------------------------
LOEWDIN REDUCED ORBITAL CHARGES AND SPIN POPULATIONS
----------------------------------------------------
CHARGE
  0 Ars       :     6.000000  s :     6.000000
      pz      :     4.000000  p :    12.000000
      px      :     4.000000
      py      :     4.000000
      dz2     :     0.000000  d :     0.000000
      dxz     :     0.000000
      dyz     :     0.000000
      dx2y2   :     0.000000
      dxy     :     0.000000
      f0      :     0.000000  f :     0.000000
      f+1     :     0.000000
      f-1     :     0.000000
      f+2     :     0.000000
      f-2     :     0.000000
      f+3     :     0.000000
      f-3     :     0.000000
      g0      :     0.000000  g :     0.000000
      g+1     :     0.000000
      g-1     :     0.000000
      g+2     :     0.000000
      g-2     :     0.000000
      g+3     :     0.000000
      g-3     :     0.000000
      g+4     :     0.000000
      g-4     :     0.000000
      h0      :     0.000000  h :     0.000000
      h+1     :     0.000000
      h-1     :     0.000000
      h+2     :     0.000000
      h-2     :     0.000000
      h+3     :     0.000000
      h-3     :     0.000000
      h+4     :     0.000000
      h-4     :     0.000000
      h+5     :     0.000000
      h-5     :     0.000000

SPIN
  0 Ars       :     0.000000  s :     0.000000
      pz      :     0.000000  p :    -0.000000
      px      :    -0.000000
      py      :    -0.000000
      dz2     :     0.000000  d :    -0.000000
      dxz     :    -0.000000
      dyz     :    -0.000000
      dx2y2   :    -0.000000
      dxy     :    -0.000000
      f0      :    -0.000000  f :    -0.000000
      f+1     :    -0.000000
      f-1     :     0.000000
      f+2     :    -0.000000
      f-2     :     0.000000
      f+3     :    -0.000000
      f-3     :    -0.000000
      g0      :     0.000000  g :    -0.000000
      g+1     :    -0.000000
      g-1     :    -0.000000
      g+2     :    -0.000000
      g-2     :     0.000000
      g+3     :    -0.000000
      g-3     :    -0.000000
      g+4     :     0.000000
      g-4     :    -0.000000
      h0      :     0.000000  h :     0.000000
      h+1     :     0.000000
      h-1     :    -0.000000
      h+2     :     0.000000
      h-2     :    -0.000000
      h+3     :    -0.000000
      h-3     :     0.000000
      h+4     :     0.000000
      h-4     :     0.000000
      h+5     :    -0.000000
      h-5     :     0.000000


                      *****************************
                      * MAYER POPULATION ANALYSIS *
                      *****************************

  NA   - Mulliken gross atomic population
  ZA   - Total nuclear charge
  QA   - Mulliken gross atomic charge
  VA   - Mayer's total valence
  BVA  - Mayer's bonded valence
  FA   - Mayer's free valence

  ATOM       NA         ZA         QA         VA         BVA        FA
  0 Ar    18.0000    18.0000     0.0000     0.0000     0.0000     0.0000

  Mayer bond orders larger than 0.1


-------
TIMINGS
-------

Total SCF time: 0 days 0 hours 0 min 32 sec 

Total time                  ....      32.943 sec
Sum of individual times     ....      32.540 sec  ( 98.8%)

Fock matrix formation       ....      30.929 sec  ( 93.9%)
  XC integration            ....       6.836 sec  ( 22.1% of F)
    Basis function eval.    ....       1.041 sec  ( 15.2% of XC)
    Density eval.           ....       1.372 sec  ( 20.1% of XC)
    XC-Functional eval.     ....       0.290 sec  (  4.2% of XC)
    XC-Potential eval.      ....       3.905 sec  ( 57.1% of XC)
Diagonalization             ....       0.088 sec  (  0.3%)
Density matrix formation    ....       0.003 sec  (  0.0%)
Population analysis         ....       0.029 sec  (  0.1%)
Initial guess               ....       0.544 sec  (  1.7%)
Orbital Transformation      ....       0.000 sec  (  0.0%)
Orbital Orthonormalization  ....       0.000 sec  (  0.0%)
DIIS solution               ....       0.058 sec  (  0.2%)
Grid generation             ....       0.889 sec  (  2.7%)

-------------------------   --------------------
FINAL SINGLE POINT ENERGY      -527.345981803205
-------------------------   --------------------


                            ***************************************
                            *     ORCA property calculations      *
                            ***************************************

                                    ---------------------
                                    Active property flags
                                    ---------------------
   (+) Dipole Moment
   (+) Polarizability


------------------------------------------------------------------------------
                       ORCA ELECTRIC PROPERTIES CALCULATION
------------------------------------------------------------------------------

Dipole Moment Calculation                       ... on
Quadrupole Moment Calculation                   ... off
Polarizability Calculation                      ... Analytic (CP-SCF)
GBWName                                         ... ar_pbe.gbw
Electron density file                           ... ar_pbe.scfp.tmp
The origin for moment calculation is the CENTER OF MASS  = ( 0.000000,  0.000000  0.000000)

-------------
DIPOLE MOMENT
-------------
                                X             Y             Z
Electronic contribution:     -0.00000      -0.00000      -0.00000
Nuclear contribution   :      0.00000       0.00000       0.00000
                        -----------------------------------------
Total Dipole Moment    :     -0.00000      -0.00000      -0.00000
                        -----------------------------------------
Magnitude (a.u.)       :      0.00000
Magnitude (Debye)      :      0.00000



--------------------
Rotational spectrum 
--------------------
 
Rotational constants in cm-1:     0.000000     0.000000     0.000000 
Rotational constants in MHz :     0.000000     0.000000     0.000000 

 Dipole components along the rotational axes: 
x,y,z [a.u.] :    -0.000000    -0.000000    -0.000000 
x,y,z [Debye]:    -0.000000    -0.000000    -0.000000 

 
Transforming and storing MO dipole integrals   ... done

                ... starting polarizability calculation

Opening the Dipole integral file               ... (ar_pbe.dmo.tmp) done
Reading Dipole-MO integrals                    ... done
Solving CP-SCF equations                       ... 
------------------------------------------------------------------------------
                           ORCA CP-SCF CALCULATION
------------------------------------------------------------------------------

Input orbitals are from        ... ar_pbe.gbw
Input Perturbation             ... ar_pbe.cpv.tmp
Wavefunction output            ... ar_pbe.cpu.tmp
Perturbation mode              ... Real perturbation (singlet)
Solver                         ... POPLE
Max. number of iterations      ... 200
Convergence tolerance          ... 1.000e-06
Integral handling              ... Direct
Number of perturbations        ... 3
Number of operators            ... 2
Orbital ranges used for CP-SCF:
 Operator 0:  Orbitals   0...  8  to   9...140
 Operator 1:  Orbitals   0...  8  to   9...140
DFT calculation                         ... on
Exchange functional (SCF)               ... PBE
Exchange functional (CP-SCF)            ... PBE
   PBE kappa parameter  XKappa (SCF)    ...  0.804000
   PBE kappa parameter  XKappa (CP-SCF) ...  0.804000
   PBE mue parameter   XMuePBE (SCF)    ...  0.219520
   PBE mue parameter   XMuePBE (CP-SCF) ...  0.219520
Correlation functional (SCF)            ... PBE
Correlation functional (CP-SCF)         ... PBE
   PBE beta parameter CBetaPBE (SCF)    ...  0.066725
   PBE beta parameter CBetaPBE (CP-SCF) ...  0.066725
 LDA part of GGA corr.  LDAOpt (SCF)    ... PW91-LDA
 LDA part of GGA corr.  LDAOpt (CP-SCF) ... PW91-LDA
Variables per vector in CP-SCF ... 2376
Number of vectors sought       ... 3
Recalculating density on grid  ... done
Calculating the xc-kernel      ... done
     CP-SCF ITERATION   0: 
     CP-SCF ITERATION   1:      0.003538760690
     CP-SCF ITERATION   2:      0.000004620750
     CP-SCF ITERATION   3:      0.000000003900
done
Reading CP-SCF coefficients                    ... done
Doing the polarizability tensor   ... done
Cleaning up                                    ... done

-------------------------
THE POLARIZABILITY TENSOR
-------------------------

The raw cartesian tensor (atomic units):
   11.92653     -0.00000     -0.00000  
   -0.00000     11.92653     -0.00000  
   -0.00000     -0.00000     11.92653  
diagonalized tensor: 
   11.92653     11.92653     11.92653  

    0.56750      0.82265     -0.03463  
    0.75676     -0.53770     -0.37174  
    0.32443     -0.18476      0.92769  

Isotropic polarizability :  11.92653


Timings for individual modules:

Sum of individual times         ...       67.992 sec (=   1.133 min)
GTO integral calculation        ...        0.927 sec (=   0.015 min)   1.4 %
SCF iterations                  ...       32.974 sec (=   0.550 min)  48.5 %
Solution of CP-SCF eqns.        ...       34.092 sec (=   0.568 min)  50.1 %
                             ****ORCA TERMINATED NORMALLY****
TOTAL RUN TIME: 0 days 0 hours 1 minutes 8 seconds 306 msec
