
                                 *****************
                                 * O   R   C   A *
                                 *****************

           --- An Ab Initio, DFT and Semiempirical electronic structure package ---

                  #######################################################
                  #                        -***-                        #
                  #          Department of theory and spectroscopy      #
                  #               Directorship: Frank Neese             #
                  #        Max Planck Institute fuer Kohlenforschung    #
                  #                Kaiser Wilhelm Platz 1               #
                  #                 D-45470 Muelheim/Ruhr               #
                  #                      Germany                        #
                  #                                                     #
                  #                  All rights reserved                #
                  #                        -***-                        #
                  #######################################################


                         Program Version 4.1.2  - RELEASE  -


 With contributions from (in alphabetic order):
   Daniel Aravena         : Magnetic Properties
   Michael Atanasov       : Ab Initio Ligand Field Theory
   Alexander A. Auer      : GIAO ZORA
   Ute Becker             : Parallelization
   Giovanni Bistoni       : ED, Open-shell LED
   Martin Brehm           : Molecular dynamics
   Dmytro Bykov           : SCF Hessian
   Vijay G. Chilkuri      : MRCI spin determinant printing
   Dipayan Datta          : RHF DLPNO-CCSD density
   Achintya Kumar Dutta   : EOM-CC, STEOM-CC
   Dmitry Ganyushin       : Spin-Orbit,Spin-Spin,Magnetic field MRCI
   Miquel Garcia          : C-PCM Hessian
   Yang Guo               : DLPNO-NEVPT2, CIM, IAO-localization
   Andreas Hansen         : Spin unrestricted coupled pair/coupled cluster methods
   Benjamin Helmich-Paris : CASSCF linear response (MC-RPA)
   Lee Huntington         : MR-EOM, pCC
   Robert Izsak           : Overlap fitted RIJCOSX, COSX-SCS-MP3, EOM
   Christian Kollmar      : KDIIS, OOCD, Brueckner-CCSD(T), CCSD density
   Simone Kossmann        : Meta GGA functionals, TD-DFT gradient, OOMP2, MP2 Hessian
   Martin Krupicka        : AUTO-CI
   Lucas Lang             : DCDCAS
   Dagmar Lenk            : GEPOL surface, SMD
   Dimitrios Liakos       : Extrapolation schemes; parallel MDCI
   Dimitrios Manganas     : ROCIS; embedding schemes
   Dimitrios Pantazis     : SARC Basis sets
   Taras Petrenko         : DFT Hessian,TD-DFT gradient, ASA, ECA, R-Raman, ABS, FL, XAS/XES, NRVS
   Peter Pinski           : DLPNO-MP2, DLPNO-MP2 Gradient
   Christoph Reimann      : Effective Core Potentials
   Marius Retegan         : Local ZFS, SOC
   Christoph Riplinger    : Optimizer, TS searches, QM/MM, DLPNO-CCSD(T), (RO)-DLPNO pert. Triples
   Tobias Risthaus        : Range-separated hybrids, TD-DFT gradient, RPA, STAB
   Michael Roemelt        : Restricted open shell CIS
   Masaaki Saitow         : Open-shell DLPNO
   Barbara Sandhoefer     : DKH picture change effects
   Avijit Sen             : IP-ROCIS
   Kantharuban Sivalingam : CASSCF convergence, NEVPT2, FIC-MRCI
   Bernardo de Souza      : ESD, SOC TD-DFT
   Georgi Stoychev        : AutoAux, RI-MP2 NMR
   Willem Van den Heuvel  : Paramagnetic NMR
   Boris Wezisla          : Elementary symmetry handling
   Frank Wennmohs         : Technical directorship


 We gratefully acknowledge several colleagues who have allowed us to
 interface, adapt or use parts of their codes:
   Stefan Grimme, W. Hujo, H. Kruse,             : VdW corrections, initial TS optimization,
                  C. Bannwarth                     DFT functionals, gCP, sTDA/sTD-DF
   Ed Valeev                                     : LibInt (2-el integral package), F12 methods
   Garnet Chan, S. Sharma, J. Yang, R. Olivares  : DMRG
   Ulf Ekstrom                                   : XCFun DFT Library
   Mihaly Kallay                                 : mrcc  (arbitrary order and MRCC methods)
   Andreas Klamt, Michael Diedenhofen            : otool_cosmo (COSMO solvation model)
   Jiri Pittner, Ondrej Demel                    : Mk-CCSD
   Frank Weinhold                                : gennbo (NPA and NBO analysis)
   Christopher J. Cramer and Donald G. Truhlar   : smd solvation model
   Lars Goerigk                                  : TD-DFT with DH, B97 family of functionals
   V. Asgeirsson, H. Jonsson                     : NEB implementation
   FAccTs GmbH                                   : IRC, NEB, NEB-TS, Multilevel


 Your calculation uses the libint2 library for the computation of 2-el integrals
 For citations please refer to: http://libint.valeyev.net

 This ORCA versions uses:
   CBLAS   interface :  Fast vector & matrix operations
   LAPACKE interface :  Fast linear algebra routines
   SCALAPACK package :  Parallel linear algebra routines


----- Orbital basis set information -----
Your calculation utilizes the basis: aug-pc-4
   H, C-F              : F. Jensen, J. Chem. Phys. 115, 9113 (2001).
                         F. Jensen, J. Chem. Phys. 116, 7372 (2002).
                         F. Jensen, J. Chem. Phys. 117, 9234 (2002).
   Si-Cl               : F. Jensen, T. Helgaker, J. Chem. Phys. 121, 3463 (2004).
   He-B, Ne-Mg, Al, Ar : F. Jensen, J. Phys. Chem. A 111, 11198 (2007).
   K, Ca, Ga-Kr        : F. Jensen, J. Chem. Phys. 136, 094110 (2012).
   Sc-Zn               : F. Jensen, J. Chem. Phys. 138, 014107 (2013).

================================================================================
                                        WARNINGS
                       Please study these warnings very carefully!
================================================================================


INFO   : the flag for use of LIBINT has been found!

================================================================================
                                       INPUT FILE
================================================================================
NAME = be_pbe.inp
|  1> !uks pbe nori aug-pc-4 grid7 nofinalgrid verytightscf
|  2> 
|  3> %maxcore 1500
|  4> 
|  5> %pal nprocs 1 end
|  6> 
|  7> %scf
|  8> 	maxiter 200
|  9> end
| 10> %elprop
| 11> 	dipole true
| 12> 	 polar 1
| 13> 	 maxiter 200
| 14> end
| 15> 
| 16> * xyz 0 1
| 17> Be 0.0 0.0 0.0
| 18> *
| 19> 
| 20>                          ****END OF INPUT****
================================================================================

                       ****************************
                       * Single Point Calculation *
                       ****************************

---------------------------------
CARTESIAN COORDINATES (ANGSTROEM)
---------------------------------
  Be     0.000000    0.000000    0.000000

----------------------------
CARTESIAN COORDINATES (A.U.)
----------------------------
  NO LB      ZA    FRAG     MASS         X           Y           Z
   0 Be    4.0000    0     9.012    0.000000    0.000000    0.000000

--------------------------------
INTERNAL COORDINATES (ANGSTROEM)
--------------------------------
 Be     0   0   0     0.000000000000     0.00000000     0.00000000

---------------------------
INTERNAL COORDINATES (A.U.)
---------------------------
 Be     0   0   0     0.000000000000     0.00000000     0.00000000

---------------------
BASIS SET INFORMATION
---------------------
There are 1 groups of distinct atoms

 Group   1 Type Be  : 31s9p4d3f2g contracted to 9s5p4d3f2g pattern {12121111111/51111/1111/111/11}

Atom   0Be   basis set group =>   1
------------------------------------------------------------------------------
                           ORCA GTO INTEGRAL CALCULATION
------------------------------------------------------------------------------

                         BASIS SET STATISTICS AND STARTUP INFO

 # of primitive gaussian shells          ...   49
 # of primitive gaussian functions       ...  117
 # of contracted shells                  ...   23
 # of contracted basis functions         ...   83
 Highest angular momentum                ...    4
 Maximum contraction depth               ...   12
 Integral package used                   ... LIBINT
 Integral threshhold            Thresh   ...  1.000e-12
 Primitive cut-off              TCut     ...  1.000e-14


------------------------------ INTEGRAL EVALUATION ----------------------------


 * One electron integrals 
 Pre-screening matrix                    ... done
 Shell pair data                         ... done (   0.000 sec)

-------------------------------------------------------------------------------
                                 ORCA SCF
-------------------------------------------------------------------------------

------------
SCF SETTINGS
------------
Hamiltonian:
 Density Functional     Method          .... DFT(GTOs)
 Exchange Functional    Exchange        .... PBE
   PBE kappa parameter   XKappa         ....  0.804000
   PBE mue parameter    XMuePBE         ....  0.219520
 Correlation Functional Correlation     .... PBE
   PBE beta parameter  CBetaPBE         ....  0.066725
 LDA part of GGA corr.  LDAOpt          .... PW91-LDA
 Gradients option       PostSCFGGA      .... off
   Density functional embedding theory  .... OFF
   NL short-range parameter             ....  6.400000


General Settings:
 Integral files         IntName         .... be_pbe
 Hartree-Fock type      HFTyp           .... UHF
 Total Charge           Charge          ....    0
 Multiplicity           Mult            ....    1
 Number of Electrons    NEL             ....    4
 Basis Dimension        Dim             ....   83
 Nuclear Repulsion      ENuc            ....      0.0000000000 Eh

Convergence Acceleration:
 DIIS                   CNVDIIS         .... on
   Start iteration      DIISMaxIt       ....    12
   Startup error        DIISStart       ....  0.200000
   # of expansion vecs  DIISMaxEq       ....     5
   Bias factor          DIISBfac        ....   1.050
   Max. coefficient     DIISMaxC        ....  10.000
 Newton-Raphson         CNVNR           .... off
 SOSCF                  CNVSOSCF        .... off
 Level Shifting         CNVShift        .... on
   Level shift para.    LevelShift      ....    0.2500
   Turn off err/grad.   ShiftErr        ....    0.0010
 Zerner damping         CNVZerner       .... off
 Static damping         CNVDamp         .... on
   Fraction old density DampFac         ....    0.7000
   Max. Damping (<1)    DampMax         ....    0.9800
   Min. Damping (>=0)   DampMin         ....    0.0000
   Turn off err/grad.   DampErr         ....    0.1000
 Fernandez-Rico         CNVRico         .... off

SCF Procedure:
 Maximum # iterations   MaxIter         ....   200
 SCF integral mode      SCFMode         .... Direct
   Integral package                     .... LIBINT
 Reset frequency        DirectResetFreq ....    20
 Integral Threshold     Thresh          ....  1.000e-12 Eh
 Primitive CutOff       TCut            ....  1.000e-14 Eh

Convergence Tolerance:
 Convergence Check Mode ConvCheckMode   .... Total+1el-Energy
 Convergence forced     ConvForced      .... 0
 Energy Change          TolE            ....  1.000e-09 Eh
 1-El. energy change                    ....  1.000e-06 Eh
 DIIS Error             TolErr          ....  1.000e-08


Diagonalization of the overlap matrix:
Smallest eigenvalue                        ... 2.166e-04
Time for diagonalization                   ...    0.002 sec
Threshold for overlap eigenvalues          ... 1.000e-08
Number of eigenvalues below threshold      ... 0
Time for construction of square roots      ...    0.004 sec
Total time needed                          ...    0.006 sec

-------------------
DFT GRID GENERATION
-------------------

General Integration Accuracy     IntAcc      ...  5.670
Radial Grid Type                 RadialGrid  ... Gauss-Chebyshev
Angular Grid (max. acc.)         AngularGrid ... Lebedev-770
Angular grid pruning method      GridPruning ... 3 (G Style)
Weight generation scheme         WeightScheme... Becke
Basis function cutoff            BFCut       ...    1.0000e-12
Integration weight cutoff        WCut        ...    1.0000e-14
Grids for H and He will be reduced by one unit

# of grid points (after initial pruning)     ...  24578 (   0.0 sec)
# of grid points (after weights+screening)   ...  24578 (   0.0 sec)
Grid point division into batches done        ...    0.6 sec
Reduced shell lists constructed in    0.7 sec

Total number of grid points                  ...    24578
Total number of batches                      ...      385
Average number of points per batch           ...       63
Average number of grid points per atom       ...    24578
Average number of shells per batch           ...    19.08 (82.96%)
Average number of basis functions per batch  ...    68.96 (83.08%)
Average number of large shells per batch     ...    17.76 (93.08%)
Average number of large basis fcns per batch ...    63.38 (91.91%)
Maximum spatial batch extension              ...  21.81, 21.81, 21.81 au
Average spatial batch extension              ...   4.58,  4.61,  4.59 au

Time for grid setup =    0.674 sec

------------------------------
INITIAL GUESS: MODEL POTENTIAL
------------------------------
Loading Hartree-Fock densities                     ... done
Calculating cut-offs                               ... done
Setting up the integral package                    ... done
Initializing the effective Hamiltonian             ... done
Starting the Coulomb interaction                   ... done (   0.0 sec)
Reading the grid                                   ... done
Mapping shells                                     ... done
Starting the XC term evaluation                    ... done (   0.2 sec)
  promolecular density results
     # of electrons  =      3.999999995
     EX              =     -2.636380046
     EC              =     -0.085384129
     EX+EC           =     -2.721764175
Transforming the Hamiltonian                       ... done (   0.0 sec)
Diagonalizing the Hamiltonian                      ... done (   0.0 sec)
Back transforming the eigenvectors                 ... done (   0.0 sec)
Now organizing SCF variables                       ... done
                      ------------------
                      INITIAL GUESS DONE (   1.0 sec)
                      ------------------
--------------
SCF ITERATIONS
--------------
ITER       Energy         Delta-E        Max-DP      RMS-DP      [F,P]     Damp
               ***  Starting incremental Fock matrix formation  ***
  0    -14.6299231423   0.000000000000 0.00147810  0.00003056  0.0048681 0.7000
  1    -14.6299270722  -0.000003929849 0.00148526  0.00002825  0.0033017 0.7000
                               ***Turning on DIIS***
  2    -14.6299301405  -0.000003068330 0.00389193  0.00007102  0.0022175 0.0000
  3    -14.6299367288  -0.000006588281 0.00066429  0.00001186  0.0001913 0.0000
  4    -14.6299367953  -0.000000066507 0.00005389  0.00000118  0.0000094 0.0000
  5    -14.6299367955  -0.000000000209 0.00000207  0.00000005  0.0000012 0.0000
                 **** Energy Check signals convergence ****

               *****************************************************
               *                     SUCCESS                       *
               *           SCF CONVERGED AFTER   6 CYCLES          *
               *****************************************************


----------------
TOTAL SCF ENERGY
----------------

Total Energy       :          -14.62993680 Eh            -398.10082 eV

Components:
Nuclear Repulsion  :            0.00000000 Eh               0.00000 eV
Electronic Energy  :          -14.62993680 Eh            -398.10082 eV
One Electron Energy:          -19.07943294 Eh            -519.17776 eV
Two Electron Energy:            4.44949615 Eh             121.07695 eV

Virial components:
Potential Energy   :          -29.18844559 Eh            -794.25798 eV
Kinetic Energy     :           14.55850880 Eh             396.15716 eV
Virial Ratio       :            2.00490627


DFT components:
N(Alpha)           :        1.999999998297 electrons
N(Beta)            :        1.999999998297 electrons
N(Total)           :        3.999999996593 electrons
E(X)               :       -2.633387246598 Eh       
E(C)               :       -0.085404700361 Eh       
E(XC)              :       -2.718791946959 Eh       
DFET-embed. en.    :        0.000000000000 Eh       

---------------
SCF CONVERGENCE
---------------

  Last Energy change         ...   -1.6129e-12  Tolerance :   1.0000e-09
  Last MAX-Density change    ...    2.6827e-07  Tolerance :   1.0000e-08
  Last RMS-Density change    ...    8.0061e-09  Tolerance :   1.0000e-09
  Last DIIS Error            ...    1.3320e-07  Tolerance :   1.0000e-08

             **** THE GBW FILE WAS UPDATED (be_pbe.gbw) ****
             **** DENSITY FILE WAS UPDATED (be_pbe.scfp.tmp) ****
             **** ENERGY FILE WAS UPDATED (be_pbe.en.tmp) ****
----------------------
UHF SPIN CONTAMINATION
----------------------

Warning: in a DFT calculation there is little theoretical justification to 
         calculate <S**2> as in Hartree-Fock theory. We will do it anyways
         but you should keep in mind that the values have only limited relevance

Expectation value of <S**2>     :    -0.000000
Ideal value S*(S+1) for S=0.0   :     0.000000
Deviation                       :    -0.000000

----------------
ORBITAL ENERGIES
----------------
                 SPIN UP ORBITALS
  NO   OCC          E(Eh)            E(eV) 
   0   1.0000      -3.902823      -106.2012 
   1   1.0000      -0.206114        -5.6087 
   2   0.0000      -0.074156        -2.0179 
   3   0.0000      -0.074156        -2.0179 
   4   0.0000      -0.074156        -2.0179 
   5   0.0000       0.001071         0.0292 
   6   0.0000       0.021394         0.5822 
   7   0.0000       0.021394         0.5822 
   8   0.0000       0.021394         0.5822 
   9   0.0000       0.057612         1.5677 
  10   0.0000       0.078991         2.1495 
  11   0.0000       0.078991         2.1495 
  12   0.0000       0.078991         2.1495 
  13   0.0000       0.078991         2.1495 
  14   0.0000       0.078991         2.1495 
  15   0.0000       0.120645         3.2829 
  16   0.0000       0.120645         3.2829 
  17   0.0000       0.120645         3.2829 
  18   0.0000       0.182136         4.9562 
  19   0.0000       0.182136         4.9562 
  20   0.0000       0.182136         4.9562 
  21   0.0000       0.182136         4.9562 
  22   0.0000       0.182136         4.9562 
  23   0.0000       0.182136         4.9562 
  24   0.0000       0.182136         4.9562 
  25   0.0000       0.216117         5.8808 
  26   0.0000       0.302980         8.2445 
  27   0.0000       0.302980         8.2445 
  28   0.0000       0.302980         8.2445 
  29   0.0000       0.302980         8.2445 
  30   0.0000       0.302980         8.2445 
  31   0.0000       0.302980         8.2445 
  32   0.0000       0.302980         8.2445 
  33   0.0000       0.302980         8.2445 
  34   0.0000       0.302980         8.2445 
  35   0.0000       0.448759        12.2114 
  36   0.0000       0.448759        12.2114 
  37   0.0000       0.448759        12.2114 
  38   0.0000       0.448759        12.2114 
  39   0.0000       0.448759        12.2114 
  40   0.0000       0.460109        12.5202 
  41   0.0000       0.460109        12.5202 
  42   0.0000       0.460109        12.5202 
  43   0.0000       0.598439        16.2844 
  44   0.0000       0.998636        27.1743 
  45   0.0000       0.998636        27.1743 
  46   0.0000       0.998636        27.1743 
  47   0.0000       0.998636        27.1743 
  48   0.0000       0.998636        27.1743 
  49   0.0000       0.998636        27.1743 
  50   0.0000       0.998636        27.1743 
  51   0.0000       1.470790        40.0222 
  52   0.0000       1.539435        41.8901 
  53   0.0000       1.539435        41.8901 
  54   0.0000       1.539435        41.8901 
  55   0.0000       1.743118        47.4327 
  56   0.0000       1.743118        47.4327 
  57   0.0000       1.743118        47.4327 
  58   0.0000       1.743118        47.4327 
  59   0.0000       1.743118        47.4327 
  60   0.0000       3.295835        89.6842 
  61   0.0000       3.295835        89.6842 
  62   0.0000       3.295835        89.6842 
  63   0.0000       3.295835        89.6842 
  64   0.0000       3.295835        89.6842 
  65   0.0000       3.295835        89.6842 
  66   0.0000       3.295835        89.6842 
  67   0.0000       3.672257        99.9272 
  68   0.0000       3.743450       101.8644 
  69   0.0000       3.743450       101.8644 
  70   0.0000       3.743450       101.8644 
  71   0.0000       3.743450       101.8644 
  72   0.0000       3.743450       101.8644 
  73   0.0000       3.743450       101.8644 
  74   0.0000       3.743450       101.8644 
  75   0.0000       3.743450       101.8644 
  76   0.0000       3.743450       101.8644 
  77   0.0000       9.570501       260.4266 
  78   0.0000       9.570501       260.4266 
  79   0.0000       9.570501       260.4266 
  80   0.0000       9.570501       260.4266 
  81   0.0000       9.570501       260.4266 
  82   0.0000      18.722129       509.4550 

                 SPIN DOWN ORBITALS
  NO   OCC          E(Eh)            E(eV) 
   0   1.0000      -3.902823      -106.2012 
   1   1.0000      -0.206114        -5.6087 
   2   0.0000      -0.074156        -2.0179 
   3   0.0000      -0.074156        -2.0179 
   4   0.0000      -0.074156        -2.0179 
   5   0.0000       0.001071         0.0292 
   6   0.0000       0.021394         0.5822 
   7   0.0000       0.021394         0.5822 
   8   0.0000       0.021394         0.5822 
   9   0.0000       0.057612         1.5677 
  10   0.0000       0.078991         2.1495 
  11   0.0000       0.078991         2.1495 
  12   0.0000       0.078991         2.1495 
  13   0.0000       0.078991         2.1495 
  14   0.0000       0.078991         2.1495 
  15   0.0000       0.120645         3.2829 
  16   0.0000       0.120645         3.2829 
  17   0.0000       0.120645         3.2829 
  18   0.0000       0.182136         4.9562 
  19   0.0000       0.182136         4.9562 
  20   0.0000       0.182136         4.9562 
  21   0.0000       0.182136         4.9562 
  22   0.0000       0.182136         4.9562 
  23   0.0000       0.182136         4.9562 
  24   0.0000       0.182136         4.9562 
  25   0.0000       0.216117         5.8808 
  26   0.0000       0.302980         8.2445 
  27   0.0000       0.302980         8.2445 
  28   0.0000       0.302980         8.2445 
  29   0.0000       0.302980         8.2445 
  30   0.0000       0.302980         8.2445 
  31   0.0000       0.302980         8.2445 
  32   0.0000       0.302980         8.2445 
  33   0.0000       0.302980         8.2445 
  34   0.0000       0.302980         8.2445 
  35   0.0000       0.448759        12.2114 
  36   0.0000       0.448759        12.2114 
  37   0.0000       0.448759        12.2114 
  38   0.0000       0.448759        12.2114 
  39   0.0000       0.448759        12.2114 
  40   0.0000       0.460109        12.5202 
  41   0.0000       0.460109        12.5202 
  42   0.0000       0.460109        12.5202 
  43   0.0000       0.598439        16.2844 
  44   0.0000       0.998636        27.1743 
  45   0.0000       0.998636        27.1743 
  46   0.0000       0.998636        27.1743 
  47   0.0000       0.998636        27.1743 
  48   0.0000       0.998636        27.1743 
  49   0.0000       0.998636        27.1743 
  50   0.0000       0.998636        27.1743 
  51   0.0000       1.470790        40.0222 
  52   0.0000       1.539435        41.8901 
  53   0.0000       1.539435        41.8901 
  54   0.0000       1.539435        41.8901 
  55   0.0000       1.743118        47.4327 
  56   0.0000       1.743118        47.4327 
  57   0.0000       1.743118        47.4327 
  58   0.0000       1.743118        47.4327 
  59   0.0000       1.743118        47.4327 
  60   0.0000       3.295835        89.6842 
  61   0.0000       3.295835        89.6842 
  62   0.0000       3.295835        89.6842 
  63   0.0000       3.295835        89.6842 
  64   0.0000       3.295835        89.6842 
  65   0.0000       3.295835        89.6842 
  66   0.0000       3.295835        89.6842 
  67   0.0000       3.672257        99.9272 
  68   0.0000       3.743450       101.8644 
  69   0.0000       3.743450       101.8644 
  70   0.0000       3.743450       101.8644 
  71   0.0000       3.743450       101.8644 
  72   0.0000       3.743450       101.8644 
  73   0.0000       3.743450       101.8644 
  74   0.0000       3.743450       101.8644 
  75   0.0000       3.743450       101.8644 
  76   0.0000       3.743450       101.8644 
  77   0.0000       9.570501       260.4266 
  78   0.0000       9.570501       260.4266 
  79   0.0000       9.570501       260.4266 
  80   0.0000       9.570501       260.4266 
  81   0.0000       9.570501       260.4266 
  82   0.0000      18.722129       509.4550 

                    ********************************
                    * MULLIKEN POPULATION ANALYSIS *
                    ********************************

--------------------------------------------
MULLIKEN ATOMIC CHARGES AND SPIN POPULATIONS
--------------------------------------------
   0 Be:   -0.000000   -0.000000
Sum of atomic charges         :   -0.0000000
Sum of atomic spin populations:   -0.0000000

-----------------------------------------------------
MULLIKEN REDUCED ORBITAL CHARGES AND SPIN POPULATIONS
-----------------------------------------------------
CHARGE
  0 Bes       :     4.000000  s :     4.000000
      pz      :     0.000000  p :     0.000000
      px      :     0.000000
      py      :     0.000000
      dz2     :     0.000000  d :     0.000000
      dxz     :     0.000000
      dyz     :     0.000000
      dx2y2   :     0.000000
      dxy     :     0.000000
      f0      :     0.000000  f :     0.000000
      f+1     :     0.000000
      f-1     :     0.000000
      f+2     :     0.000000
      f-2     :     0.000000
      f+3     :     0.000000
      f-3     :     0.000000
      g0      :     0.000000  g :     0.000000
      g+1     :     0.000000
      g-1     :     0.000000
      g+2     :     0.000000
      g-2     :     0.000000
      g+3     :     0.000000
      g-3     :     0.000000
      g+4     :     0.000000
      g-4     :     0.000000

SPIN
  0 Bes       :    -0.000000  s :    -0.000000
      pz      :     0.000000  p :    -0.000000
      px      :    -0.000000
      py      :    -0.000000
      dz2     :    -0.000000  d :    -0.000000
      dxz     :     0.000000
      dyz     :    -0.000000
      dx2y2   :     0.000000
      dxy     :    -0.000000
      f0      :    -0.000000  f :    -0.000000
      f+1     :     0.000000
      f-1     :    -0.000000
      f+2     :    -0.000000
      f-2     :    -0.000000
      f+3     :    -0.000000
      f-3     :    -0.000000
      g0      :     0.000000  g :     0.000000
      g+1     :     0.000000
      g-1     :    -0.000000
      g+2     :     0.000000
      g-2     :     0.000000
      g+3     :     0.000000
      g-3     :     0.000000
      g+4     :    -0.000000
      g-4     :     0.000000


                     *******************************
                     * LOEWDIN POPULATION ANALYSIS *
                     *******************************

-------------------------------------------
LOEWDIN ATOMIC CHARGES AND SPIN POPULATIONS
-------------------------------------------
   0 Be:   -0.000000   -0.000000

----------------------------------------------------
LOEWDIN REDUCED ORBITAL CHARGES AND SPIN POPULATIONS
----------------------------------------------------
CHARGE
  0 Bes       :     4.000000  s :     4.000000
      pz      :     0.000000  p :     0.000000
      px      :     0.000000
      py      :     0.000000
      dz2     :     0.000000  d :     0.000000
      dxz     :     0.000000
      dyz     :     0.000000
      dx2y2   :     0.000000
      dxy     :     0.000000
      f0      :     0.000000  f :     0.000000
      f+1     :     0.000000
      f-1     :     0.000000
      f+2     :     0.000000
      f-2     :     0.000000
      f+3     :     0.000000
      f-3     :     0.000000
      g0      :     0.000000  g :     0.000000
      g+1     :     0.000000
      g-1     :     0.000000
      g+2     :     0.000000
      g-2     :     0.000000
      g+3     :     0.000000
      g-3     :     0.000000
      g+4     :     0.000000
      g-4     :     0.000000

SPIN
  0 Bes       :    -0.000000  s :    -0.000000
      pz      :     0.000000  p :    -0.000000
      px      :    -0.000000
      py      :    -0.000000
      dz2     :    -0.000000  d :    -0.000000
      dxz     :     0.000000
      dyz     :    -0.000000
      dx2y2   :     0.000000
      dxy     :    -0.000000
      f0      :    -0.000000  f :    -0.000000
      f+1     :     0.000000
      f-1     :    -0.000000
      f+2     :    -0.000000
      f-2     :    -0.000000
      f+3     :    -0.000000
      f-3     :    -0.000000
      g0      :     0.000000  g :     0.000000
      g+1     :     0.000000
      g-1     :    -0.000000
      g+2     :     0.000000
      g-2     :     0.000000
      g+3     :     0.000000
      g-3     :     0.000000
      g+4     :    -0.000000
      g-4     :     0.000000


                      *****************************
                      * MAYER POPULATION ANALYSIS *
                      *****************************

  NA   - Mulliken gross atomic population
  ZA   - Total nuclear charge
  QA   - Mulliken gross atomic charge
  VA   - Mayer's total valence
  BVA  - Mayer's bonded valence
  FA   - Mayer's free valence

  ATOM       NA         ZA         QA         VA         BVA        FA
  0 Be     4.0000     4.0000    -0.0000    -0.0000     0.0000    -0.0000

  Mayer bond orders larger than 0.1


-------
TIMINGS
-------

Total SCF time: 0 days 0 hours 0 min 5 sec 

Total time                  ....       5.154 sec
Sum of individual times     ....       4.858 sec  ( 94.2%)

Fock matrix formation       ....       3.835 sec  ( 74.4%)
  XC integration            ....       2.142 sec  ( 55.8% of F)
    Basis function eval.    ....       0.394 sec  ( 18.4% of XC)
    Density eval.           ....       0.434 sec  ( 20.3% of XC)
    XC-Functional eval.     ....       0.183 sec  (  8.6% of XC)
    XC-Potential eval.      ....       1.015 sec  ( 47.4% of XC)
Diagonalization             ....       0.024 sec  (  0.5%)
Density matrix formation    ....       0.001 sec  (  0.0%)
Population analysis         ....       0.018 sec  (  0.3%)
Initial guess               ....       0.291 sec  (  5.6%)
Orbital Transformation      ....       0.000 sec  (  0.0%)
Orbital Orthonormalization  ....       0.000 sec  (  0.0%)
DIIS solution               ....       0.015 sec  (  0.3%)
Grid generation             ....       0.674 sec  ( 13.1%)

-------------------------   --------------------
FINAL SINGLE POINT ENERGY       -14.629936795482
-------------------------   --------------------


                            ***************************************
                            *     ORCA property calculations      *
                            ***************************************

                                    ---------------------
                                    Active property flags
                                    ---------------------
   (+) Dipole Moment
   (+) Polarizability


------------------------------------------------------------------------------
                       ORCA ELECTRIC PROPERTIES CALCULATION
------------------------------------------------------------------------------

Dipole Moment Calculation                       ... on
Quadrupole Moment Calculation                   ... off
Polarizability Calculation                      ... Analytic (CP-SCF)
GBWName                                         ... be_pbe.gbw
Electron density file                           ... be_pbe.scfp.tmp
The origin for moment calculation is the CENTER OF MASS  = ( 0.000000,  0.000000  0.000000)

-------------
DIPOLE MOMENT
-------------
                                X             Y             Z
Electronic contribution:     -0.00000       0.00000      -0.00000
Nuclear contribution   :      0.00000       0.00000       0.00000
                        -----------------------------------------
Total Dipole Moment    :     -0.00000       0.00000      -0.00000
                        -----------------------------------------
Magnitude (a.u.)       :      0.00000
Magnitude (Debye)      :      0.00000



--------------------
Rotational spectrum 
--------------------
 
Rotational constants in cm-1:     0.000000     0.000000     0.000000 
Rotational constants in MHz :     0.000000     0.000000     0.000000 

 Dipole components along the rotational axes: 
x,y,z [a.u.] :    -0.000000     0.000000    -0.000000 
x,y,z [Debye]:    -0.000000     0.000000    -0.000000 

 
Transforming and storing MO dipole integrals   ... done

                ... starting polarizability calculation

Opening the Dipole integral file               ... (be_pbe.dmo.tmp) done
Reading Dipole-MO integrals                    ... done
Solving CP-SCF equations                       ... 
------------------------------------------------------------------------------
                           ORCA CP-SCF CALCULATION
------------------------------------------------------------------------------

Input orbitals are from        ... be_pbe.gbw
Input Perturbation             ... be_pbe.cpv.tmp
Wavefunction output            ... be_pbe.cpu.tmp
Perturbation mode              ... Real perturbation (singlet)
Solver                         ... POPLE
Max. number of iterations      ... 200
Convergence tolerance          ... 1.000e-06
Integral handling              ... Direct
Number of perturbations        ... 3
Number of operators            ... 2
Orbital ranges used for CP-SCF:
 Operator 0:  Orbitals   0...  1  to   2... 82
 Operator 1:  Orbitals   0...  1  to   2... 82
DFT calculation                         ... on
Exchange functional (SCF)               ... PBE
Exchange functional (CP-SCF)            ... PBE
   PBE kappa parameter  XKappa (SCF)    ...  0.804000
   PBE kappa parameter  XKappa (CP-SCF) ...  0.804000
   PBE mue parameter   XMuePBE (SCF)    ...  0.219520
   PBE mue parameter   XMuePBE (CP-SCF) ...  0.219520
Correlation functional (SCF)            ... PBE
Correlation functional (CP-SCF)         ... PBE
   PBE beta parameter CBetaPBE (SCF)    ...  0.066725
   PBE beta parameter CBetaPBE (CP-SCF) ...  0.066725
 LDA part of GGA corr.  LDAOpt (SCF)    ... PW91-LDA
 LDA part of GGA corr.  LDAOpt (CP-SCF) ... PW91-LDA
Variables per vector in CP-SCF ... 324
Number of vectors sought       ... 3
Recalculating density on grid  ... done
Calculating the xc-kernel      ... done
     CP-SCF ITERATION   0: 
     CP-SCF ITERATION   1:      0.001663600640
     CP-SCF ITERATION   2:      0.000006594169
     CP-SCF ITERATION   3:      0.000000001247
done
Reading CP-SCF coefficients                    ... done
Doing the polarizability tensor   ... done
Cleaning up                                    ... done

-------------------------
THE POLARIZABILITY TENSOR
-------------------------

The raw cartesian tensor (atomic units):
   42.87292     -0.00000     -0.00000  
   -0.00000     42.87292     -0.00000  
   -0.00000     -0.00000     42.87292  
diagonalized tensor: 
   42.87292     42.87292     42.87292  

    0.99241     -0.12098     -0.02188  
    0.11785      0.98680     -0.11106  
    0.03503      0.10764      0.99357  

Isotropic polarizability :  42.87292


Timings for individual modules:

Sum of individual times         ...       11.230 sec (=   0.187 min)
GTO integral calculation        ...        0.389 sec (=   0.006 min)   3.5 %
SCF iterations                  ...        5.186 sec (=   0.086 min)  46.2 %
Solution of CP-SCF eqns.        ...        5.655 sec (=   0.094 min)  50.4 %
                             ****ORCA TERMINATED NORMALLY****
TOTAL RUN TIME: 0 days 0 hours 0 minutes 11 seconds 466 msec
