
                                 *****************
                                 * O   R   C   A *
                                 *****************

           --- An Ab Initio, DFT and Semiempirical electronic structure package ---

                  #######################################################
                  #                        -***-                        #
                  #          Department of theory and spectroscopy      #
                  #               Directorship: Frank Neese             #
                  #        Max Planck Institute fuer Kohlenforschung    #
                  #                Kaiser Wilhelm Platz 1               #
                  #                 D-45470 Muelheim/Ruhr               #
                  #                      Germany                        #
                  #                                                     #
                  #                  All rights reserved                #
                  #                        -***-                        #
                  #######################################################


                         Program Version 4.1.2  - RELEASE  -


 With contributions from (in alphabetic order):
   Daniel Aravena         : Magnetic Properties
   Michael Atanasov       : Ab Initio Ligand Field Theory
   Alexander A. Auer      : GIAO ZORA
   Ute Becker             : Parallelization
   Giovanni Bistoni       : ED, Open-shell LED
   Martin Brehm           : Molecular dynamics
   Dmytro Bykov           : SCF Hessian
   Vijay G. Chilkuri      : MRCI spin determinant printing
   Dipayan Datta          : RHF DLPNO-CCSD density
   Achintya Kumar Dutta   : EOM-CC, STEOM-CC
   Dmitry Ganyushin       : Spin-Orbit,Spin-Spin,Magnetic field MRCI
   Miquel Garcia          : C-PCM Hessian
   Yang Guo               : DLPNO-NEVPT2, CIM, IAO-localization
   Andreas Hansen         : Spin unrestricted coupled pair/coupled cluster methods
   Benjamin Helmich-Paris : CASSCF linear response (MC-RPA)
   Lee Huntington         : MR-EOM, pCC
   Robert Izsak           : Overlap fitted RIJCOSX, COSX-SCS-MP3, EOM
   Christian Kollmar      : KDIIS, OOCD, Brueckner-CCSD(T), CCSD density
   Simone Kossmann        : Meta GGA functionals, TD-DFT gradient, OOMP2, MP2 Hessian
   Martin Krupicka        : AUTO-CI
   Lucas Lang             : DCDCAS
   Dagmar Lenk            : GEPOL surface, SMD
   Dimitrios Liakos       : Extrapolation schemes; parallel MDCI
   Dimitrios Manganas     : ROCIS; embedding schemes
   Dimitrios Pantazis     : SARC Basis sets
   Taras Petrenko         : DFT Hessian,TD-DFT gradient, ASA, ECA, R-Raman, ABS, FL, XAS/XES, NRVS
   Peter Pinski           : DLPNO-MP2, DLPNO-MP2 Gradient
   Christoph Reimann      : Effective Core Potentials
   Marius Retegan         : Local ZFS, SOC
   Christoph Riplinger    : Optimizer, TS searches, QM/MM, DLPNO-CCSD(T), (RO)-DLPNO pert. Triples
   Tobias Risthaus        : Range-separated hybrids, TD-DFT gradient, RPA, STAB
   Michael Roemelt        : Restricted open shell CIS
   Masaaki Saitow         : Open-shell DLPNO
   Barbara Sandhoefer     : DKH picture change effects
   Avijit Sen             : IP-ROCIS
   Kantharuban Sivalingam : CASSCF convergence, NEVPT2, FIC-MRCI
   Bernardo de Souza      : ESD, SOC TD-DFT
   Georgi Stoychev        : AutoAux, RI-MP2 NMR
   Willem Van den Heuvel  : Paramagnetic NMR
   Boris Wezisla          : Elementary symmetry handling
   Frank Wennmohs         : Technical directorship


 We gratefully acknowledge several colleagues who have allowed us to
 interface, adapt or use parts of their codes:
   Stefan Grimme, W. Hujo, H. Kruse,             : VdW corrections, initial TS optimization,
                  C. Bannwarth                     DFT functionals, gCP, sTDA/sTD-DF
   Ed Valeev                                     : LibInt (2-el integral package), F12 methods
   Garnet Chan, S. Sharma, J. Yang, R. Olivares  : DMRG
   Ulf Ekstrom                                   : XCFun DFT Library
   Mihaly Kallay                                 : mrcc  (arbitrary order and MRCC methods)
   Andreas Klamt, Michael Diedenhofen            : otool_cosmo (COSMO solvation model)
   Jiri Pittner, Ondrej Demel                    : Mk-CCSD
   Frank Weinhold                                : gennbo (NPA and NBO analysis)
   Christopher J. Cramer and Donald G. Truhlar   : smd solvation model
   Lars Goerigk                                  : TD-DFT with DH, B97 family of functionals
   V. Asgeirsson, H. Jonsson                     : NEB implementation
   FAccTs GmbH                                   : IRC, NEB, NEB-TS, Multilevel


 Your calculation uses the libint2 library for the computation of 2-el integrals
 For citations please refer to: http://libint.valeyev.net

 This ORCA versions uses:
   CBLAS   interface :  Fast vector & matrix operations
   LAPACKE interface :  Fast linear algebra routines
   SCALAPACK package :  Parallel linear algebra routines


----- Orbital basis set information -----
Your calculation utilizes the basis: aug-pc-4
   H, C-F              : F. Jensen, J. Chem. Phys. 115, 9113 (2001).
                         F. Jensen, J. Chem. Phys. 116, 7372 (2002).
                         F. Jensen, J. Chem. Phys. 117, 9234 (2002).
   Si-Cl               : F. Jensen, T. Helgaker, J. Chem. Phys. 121, 3463 (2004).
   He-B, Ne-Mg, Al, Ar : F. Jensen, J. Phys. Chem. A 111, 11198 (2007).
   K, Ca, Ga-Kr        : F. Jensen, J. Chem. Phys. 136, 094110 (2012).
   Sc-Zn               : F. Jensen, J. Chem. Phys. 138, 014107 (2013).

================================================================================
                                        WARNINGS
                       Please study these warnings very carefully!
================================================================================


INFO   : the flag for use of LIBINT has been found!

================================================================================
                                       INPUT FILE
================================================================================
NAME = beh2_pbe.inp
|  1> !uks pbe nori aug-pc-4 grid7 nofinalgrid verytightscf
|  2> 
|  3> %maxcore 1500
|  4> 
|  5> %pal nprocs 1 end
|  6> 
|  7> %scf
|  8> 	maxiter 200
|  9> end
| 10> %elprop
| 11> 	dipole true
| 12> 	 polar 1
| 13> 	 maxiter 200
| 14> end
| 15> 
| 16> * xyz 0 1
| 17> Be 0.0000 0.0000 0.0000
| 18> H 0.0000 0.0000 1.3264
| 19> H 0.0000 0.0000 -1.3264
| 20> *
| 21> 
| 22>                          ****END OF INPUT****
================================================================================

                       ****************************
                       * Single Point Calculation *
                       ****************************

---------------------------------
CARTESIAN COORDINATES (ANGSTROEM)
---------------------------------
  Be     0.000000    0.000000    0.000000
  H      0.000000    0.000000    1.326400
  H      0.000000    0.000000   -1.326400

----------------------------
CARTESIAN COORDINATES (A.U.)
----------------------------
  NO LB      ZA    FRAG     MASS         X           Y           Z
   0 Be    4.0000    0     9.012    0.000000    0.000000    0.000000
   1 H     1.0000    0     1.008    0.000000    0.000000    2.506533
   2 H     1.0000    0     1.008    0.000000    0.000000   -2.506533

--------------------------------
INTERNAL COORDINATES (ANGSTROEM)
--------------------------------
 Be     0   0   0     0.000000000000     0.00000000     0.00000000
 H      1   0   0     1.326400000000     0.00000000     0.00000000
 H      1   2   0     1.326400000000   179.99999915     0.00000000

---------------------------
INTERNAL COORDINATES (A.U.)
---------------------------
 Be     0   0   0     0.000000000000     0.00000000     0.00000000
 H      1   0   0     2.506532744033     0.00000000     0.00000000
 H      1   2   0     2.506532744033   179.99999915     0.00000000

---------------------
BASIS SET INFORMATION
---------------------
There are 2 groups of distinct atoms

 Group   1 Type Be  : 31s9p4d3f2g contracted to 9s5p4d3f2g pattern {12121111111/51111/1111/111/11}
 Group   2 Type H   : 12s7p4d3f2g contracted to 8s7p4d3f2g pattern {51111111/1111111/1111/111/11}

Atom   0Be   basis set group =>   1
Atom   1H    basis set group =>   2
Atom   2H    basis set group =>   2
------------------------------------------------------------------------------
                           ORCA GTO INTEGRAL CALCULATION
------------------------------------------------------------------------------

                         BASIS SET STATISTICS AND STARTUP INFO

 # of primitive gaussian shells          ...  105
 # of primitive gaussian functions       ...  301
 # of contracted shells                  ...   71
 # of contracted basis functions         ...  259
 Highest angular momentum                ...    4
 Maximum contraction depth               ...   12
 Integral package used                   ... LIBINT
 Integral threshhold            Thresh   ...  1.000e-12
 Primitive cut-off              TCut     ...  1.000e-14


------------------------------ INTEGRAL EVALUATION ----------------------------


 * One electron integrals 
 Pre-screening matrix                    ... done
 Shell pair data                         ... done (   0.001 sec)

-------------------------------------------------------------------------------
                                 ORCA SCF
-------------------------------------------------------------------------------

------------
SCF SETTINGS
------------
Hamiltonian:
 Density Functional     Method          .... DFT(GTOs)
 Exchange Functional    Exchange        .... PBE
   PBE kappa parameter   XKappa         ....  0.804000
   PBE mue parameter    XMuePBE         ....  0.219520
 Correlation Functional Correlation     .... PBE
   PBE beta parameter  CBetaPBE         ....  0.066725
 LDA part of GGA corr.  LDAOpt          .... PW91-LDA
 Gradients option       PostSCFGGA      .... off
   Density functional embedding theory  .... OFF
   NL short-range parameter             ....  6.400000


General Settings:
 Integral files         IntName         .... beh2_pbe
 Hartree-Fock type      HFTyp           .... UHF
 Total Charge           Charge          ....    0
 Multiplicity           Mult            ....    1
 Number of Electrons    NEL             ....    6
 Basis Dimension        Dim             ....  259
 Nuclear Repulsion      ENuc            ....      3.3911386238 Eh

Convergence Acceleration:
 DIIS                   CNVDIIS         .... on
   Start iteration      DIISMaxIt       ....    12
   Startup error        DIISStart       ....  0.200000
   # of expansion vecs  DIISMaxEq       ....     5
   Bias factor          DIISBfac        ....   1.050
   Max. coefficient     DIISMaxC        ....  10.000
 Newton-Raphson         CNVNR           .... off
 SOSCF                  CNVSOSCF        .... off
 Level Shifting         CNVShift        .... on
   Level shift para.    LevelShift      ....    0.2500
   Turn off err/grad.   ShiftErr        ....    0.0010
 Zerner damping         CNVZerner       .... off
 Static damping         CNVDamp         .... on
   Fraction old density DampFac         ....    0.7000
   Max. Damping (<1)    DampMax         ....    0.9800
   Min. Damping (>=0)   DampMin         ....    0.0000
   Turn off err/grad.   DampErr         ....    0.1000
 Fernandez-Rico         CNVRico         .... off

SCF Procedure:
 Maximum # iterations   MaxIter         ....   200
 SCF integral mode      SCFMode         .... Direct
   Integral package                     .... LIBINT
 Reset frequency        DirectResetFreq ....    20
 Integral Threshold     Thresh          ....  1.000e-12 Eh
 Primitive CutOff       TCut            ....  1.000e-14 Eh

Convergence Tolerance:
 Convergence Check Mode ConvCheckMode   .... Total+1el-Energy
 Convergence forced     ConvForced      .... 0
 Energy Change          TolE            ....  1.000e-09 Eh
 1-El. energy change                    ....  1.000e-06 Eh
 DIIS Error             TolErr          ....  1.000e-08


Diagonalization of the overlap matrix:
Smallest eigenvalue                        ... 2.656e-07
Time for diagonalization                   ...    0.014 sec
Threshold for overlap eigenvalues          ... 1.000e-08
Number of eigenvalues below threshold      ... 0
Time for construction of square roots      ...    0.010 sec
Total time needed                          ...    0.025 sec

-------------------
DFT GRID GENERATION
-------------------

General Integration Accuracy     IntAcc      ...  5.670
Radial Grid Type                 RadialGrid  ... Gauss-Chebyshev
Angular Grid (max. acc.)         AngularGrid ... Lebedev-770
Angular grid pruning method      GridPruning ... 3 (G Style)
Weight generation scheme         WeightScheme... Becke
Basis function cutoff            BFCut       ...    1.0000e-12
Integration weight cutoff        WCut        ...    1.0000e-14
Grids for H and He will be reduced by one unit

# of grid points (after initial pruning)     ...  60250 (   0.0 sec)
# of grid points (after weights+screening)   ...  59532 (   0.0 sec)
nearest neighbour list constructed           ...    0.0 sec
Grid point re-assignment to atoms done       ...    0.0 sec
Grid point division into batches done        ...    1.1 sec
Reduced shell lists constructed in    1.7 sec

Total number of grid points                  ...    59532
Total number of batches                      ...      931
Average number of points per batch           ...       63
Average number of grid points per atom       ...    19844
Average number of shells per batch           ...    53.67 (75.60%)
Average number of basis functions per batch  ...   196.80 (75.99%)
Average number of large shells per batch     ...    48.80 (90.91%)
Average number of large basis fcns per batch ...   178.69 (90.80%)
Maximum spatial batch extension              ...  25.91, 25.91, 20.51 au
Average spatial batch extension              ...   2.95,  2.95,  2.40 au

Time for grid setup =    1.717 sec

------------------------------
INITIAL GUESS: MODEL POTENTIAL
------------------------------
Loading Hartree-Fock densities                     ... done
Calculating cut-offs                               ... done
Setting up the integral package                    ... done
Initializing the effective Hamiltonian             ... done
Starting the Coulomb interaction                   ... done (   0.0 sec)
Reading the grid                                   ... done
Mapping shells                                     ... done
Starting the XC term evaluation                    ... done (   2.2 sec)
  promolecular density results
     # of electrons  =      5.999021228
     EX              =     -3.231384430
     EC              =     -0.136177032
     EX+EC           =     -3.367561462
Transforming the Hamiltonian                       ... done (   0.0 sec)
Diagonalizing the Hamiltonian                      ... done (   0.0 sec)
Back transforming the eigenvectors                 ... done (   0.0 sec)
Now organizing SCF variables                       ... done
                      ------------------
                      INITIAL GUESS DONE (   4.1 sec)
                      ------------------
--------------
SCF ITERATIONS
--------------
ITER       Energy         Delta-E        Max-DP      RMS-DP      [F,P]     Damp
               ***  Starting incremental Fock matrix formation  ***
  0    -15.8488523112   0.000000000000 0.00584280  0.00009849  0.1105004 0.7000
  1    -15.8548646883  -0.006012377122 0.00546274  0.00008208  0.0755517 0.7000
                               ***Turning on DIIS***
  2    -15.8587573450  -0.003892656751 0.01378744  0.00020206  0.0457026 0.0000
  3    -15.8650868077  -0.006329462705 0.00370874  0.00004226  0.0201652 0.0000
  4    -15.8656089322  -0.000522124412 0.00132015  0.00001683  0.0052889 0.0000
  5    -15.8656611927  -0.000052260519 0.00047043  0.00000660  0.0018136 0.0000
  6    -15.8656671511  -0.000005958452 0.00026712  0.00000304  0.0006569 0.0000
  7    -15.8656681082  -0.000000957110 0.00004932  0.00000081  0.0000173 0.0000
  8    -15.8656681089  -0.000000000624 0.00008418  0.00000135  0.0000054 0.0000
  9    -15.8656681089  -0.000000000046 0.00001216  0.00000017  0.0000010 0.0000
                 **** Energy Check signals convergence ****

               *****************************************************
               *                     SUCCESS                       *
               *           SCF CONVERGED AFTER  10 CYCLES          *
               *****************************************************


----------------
TOTAL SCF ENERGY
----------------

Total Energy       :          -15.86566811 Eh            -431.72678 eV

Components:
Nuclear Repulsion  :            3.39113862 Eh              92.27757 eV
Electronic Energy  :          -19.25680673 Eh            -524.00435 eV
One Electron Energy:          -27.11276800 Eh            -737.77593 eV
Two Electron Energy:            7.85596127 Eh             213.77157 eV

Virial components:
Potential Energy   :          -31.63149709 Eh            -860.73679 eV
Kinetic Energy     :           15.76582898 Eh             429.01002 eV
Virial Ratio       :            2.00633263


DFT components:
N(Alpha)           :        3.000000205332 electrons
N(Beta)            :        3.000000205332 electrons
N(Total)           :        6.000000410664 electrons
E(X)               :       -3.387499927326 Eh       
E(C)               :       -0.137112718436 Eh       
E(XC)              :       -3.524612645761 Eh       
DFET-embed. en.    :        0.000000000000 Eh       

---------------
SCF CONVERGENCE
---------------

  Last Energy change         ...   -1.4531e-12  Tolerance :   1.0000e-09
  Last MAX-Density change    ...    1.2832e-04  Tolerance :   1.0000e-08
  Last RMS-Density change    ...    2.0885e-06  Tolerance :   1.0000e-09
  Last DIIS Error            ...    3.6097e-08  Tolerance :   1.0000e-08

             **** THE GBW FILE WAS UPDATED (beh2_pbe.gbw) ****
             **** DENSITY FILE WAS UPDATED (beh2_pbe.scfp.tmp) ****
             **** ENERGY FILE WAS UPDATED (beh2_pbe.en.tmp) ****
----------------------
UHF SPIN CONTAMINATION
----------------------

Warning: in a DFT calculation there is little theoretical justification to 
         calculate <S**2> as in Hartree-Fock theory. We will do it anyways
         but you should keep in mind that the values have only limited relevance

Expectation value of <S**2>     :     0.000000
Ideal value S*(S+1) for S=0.0   :     0.000000
Deviation                       :     0.000000

----------------
ORBITAL ENERGIES
----------------
                 SPIN UP ORBITALS
  NO   OCC          E(Eh)            E(eV) 
   0   1.0000      -3.847401      -104.6931 
   1   1.0000      -0.309325        -8.4172 
   2   1.0000      -0.275337        -7.4923 
   3   0.0000      -0.059926        -1.6307 
   4   0.0000      -0.059926        -1.6307 
   5   0.0000      -0.000011        -0.0003 
   6   0.0000       0.013100         0.3565 
   7   0.0000       0.025438         0.6922 
   8   0.0000       0.025438         0.6922 
   9   0.0000       0.027140         0.7385 
  10   0.0000       0.037249         1.0136 
  11   0.0000       0.048991         1.3331 
  12   0.0000       0.062590         1.7032 
  13   0.0000       0.062590         1.7032 
  14   0.0000       0.070330         1.9138 
  15   0.0000       0.074243         2.0202 
  16   0.0000       0.074243         2.0202 
  17   0.0000       0.097962         2.6657 
  18   0.0000       0.104160         2.8343 
  19   0.0000       0.104160         2.8343 
  20   0.0000       0.128124         3.4864 
  21   0.0000       0.136271         3.7081 
  22   0.0000       0.155449         4.2300 
  23   0.0000       0.155449         4.2300 
  24   0.0000       0.160299         4.3620 
  25   0.0000       0.160299         4.3620 
  26   0.0000       0.167936         4.5698 
  27   0.0000       0.167936         4.5698 
  28   0.0000       0.172770         4.7013 
  29   0.0000       0.173710         4.7269 
  30   0.0000       0.173710         4.7269 
  31   0.0000       0.174992         4.7618 
  32   0.0000       0.174992         4.7618 
  33   0.0000       0.181496         4.9388 
  34   0.0000       0.209780         5.7084 
  35   0.0000       0.209780         5.7084 
  36   0.0000       0.219473         5.9722 
  37   0.0000       0.261686         7.1208 
  38   0.0000       0.261686         7.1208 
  39   0.0000       0.265703         7.2302 
  40   0.0000       0.265703         7.2302 
  41   0.0000       0.278971         7.5912 
  42   0.0000       0.294669         8.0183 
  43   0.0000       0.294669         8.0183 
  44   0.0000       0.297748         8.1021 
  45   0.0000       0.297748         8.1021 
  46   0.0000       0.308323         8.3899 
  47   0.0000       0.331778         9.0281 
  48   0.0000       0.338223         9.2035 
  49   0.0000       0.338223         9.2035 
  50   0.0000       0.351204         9.5567 
  51   0.0000       0.356395         9.6980 
  52   0.0000       0.356395         9.6980 
  53   0.0000       0.363820         9.9000 
  54   0.0000       0.363820         9.9000 
  55   0.0000       0.379188        10.3182 
  56   0.0000       0.379188        10.3182 
  57   0.0000       0.389212        10.5910 
  58   0.0000       0.425099        11.5675 
  59   0.0000       0.429222        11.6797 
  60   0.0000       0.429222        11.6797 
  61   0.0000       0.454325        12.3628 
  62   0.0000       0.454325        12.3628 
  63   0.0000       0.463204        12.6044 
  64   0.0000       0.463204        12.6044 
  65   0.0000       0.465276        12.6608 
  66   0.0000       0.465276        12.6608 
  67   0.0000       0.477137        12.9836 
  68   0.0000       0.488549        13.2941 
  69   0.0000       0.505628        13.7589 
  70   0.0000       0.505628        13.7589 
  71   0.0000       0.535475        14.5710 
  72   0.0000       0.535475        14.5710 
  73   0.0000       0.548878        14.9357 
  74   0.0000       0.548878        14.9357 
  75   0.0000       0.551640        15.0109 
  76   0.0000       0.551640        15.0109 
  77   0.0000       0.552011        15.0210 
  78   0.0000       0.552011        15.0210 
  79   0.0000       0.598600        16.2887 
  80   0.0000       0.598600        16.2887 
  81   0.0000       0.628580        17.1045 
  82   0.0000       0.636071        17.3084 
  83   0.0000       0.636071        17.3084 
  84   0.0000       0.668194        18.1825 
  85   0.0000       0.670966        18.2579 
  86   0.0000       0.670966        18.2579 
  87   0.0000       0.719402        19.5759 
  88   0.0000       0.719402        19.5759 
  89   0.0000       0.724526        19.7154 
  90   0.0000       0.735999        20.0275 
  91   0.0000       0.735999        20.0275 
  92   0.0000       0.767945        20.8969 
  93   0.0000       0.772361        21.0170 
  94   0.0000       0.782399        21.2902 
  95   0.0000       0.782399        21.2902 
  96   0.0000       0.798881        21.7387 
  97   0.0000       0.798881        21.7387 
  98   0.0000       0.803762        21.8715 
  99   0.0000       0.838884        22.8272 
 100   0.0000       0.838884        22.8272 
 101   0.0000       0.859051        23.3760 
 102   0.0000       0.867177        23.5971 
 103   0.0000       0.867177        23.5971 
 104   0.0000       0.903907        24.5966 
 105   0.0000       0.994418        27.0595 
 106   0.0000       0.994418        27.0595 
 107   0.0000       1.105767        30.0894 
 108   0.0000       1.105767        30.0894 
 109   0.0000       1.145352        31.1666 
 110   0.0000       1.145352        31.1666 
 111   0.0000       1.185726        32.2652 
 112   0.0000       1.248427        33.9714 
 113   0.0000       1.248427        33.9714 
 114   0.0000       1.376525        37.4571 
 115   0.0000       1.376525        37.4571 
 116   0.0000       1.401253        38.1300 
 117   0.0000       1.401253        38.1300 
 118   0.0000       1.434151        39.0252 
 119   0.0000       1.483071        40.3564 
 120   0.0000       1.483071        40.3564 
 121   0.0000       1.496592        40.7243 
 122   0.0000       1.535498        41.7830 
 123   0.0000       1.557218        42.3740 
 124   0.0000       1.654651        45.0253 
 125   0.0000       1.695470        46.1361 
 126   0.0000       1.695470        46.1361 
 127   0.0000       1.754588        47.7448 
 128   0.0000       1.754588        47.7448 
 129   0.0000       1.797706        48.9181 
 130   0.0000       2.010606        54.7114 
 131   0.0000       2.023427        55.0602 
 132   0.0000       2.023427        55.0602 
 133   0.0000       2.136644        58.1410 
 134   0.0000       2.136644        58.1410 
 135   0.0000       2.322002        63.1849 
 136   0.0000       2.357319        64.1459 
 137   0.0000       2.357319        64.1459 
 138   0.0000       2.827109        76.9295 
 139   0.0000       2.827109        76.9295 
 140   0.0000       2.844275        77.3967 
 141   0.0000       2.844275        77.3967 
 142   0.0000       2.848531        77.5125 
 143   0.0000       2.883665        78.4685 
 144   0.0000       2.883665        78.4685 
 145   0.0000       2.914615        79.3107 
 146   0.0000       3.317454        90.2725 
 147   0.0000       3.317454        90.2725 
 148   0.0000       3.434834        93.4666 
 149   0.0000       3.434834        93.4666 
 150   0.0000       3.461666        94.1967 
 151   0.0000       3.461666        94.1967 
 152   0.0000       3.492379        95.0325 
 153   0.0000       3.492379        95.0325 
 154   0.0000       3.555620        96.7533 
 155   0.0000       3.555620        96.7533 
 156   0.0000       3.561784        96.9211 
 157   0.0000       3.574496        97.2670 
 158   0.0000       3.574496        97.2670 
 159   0.0000       3.597181        97.8843 
 160   0.0000       3.597181        97.8843 
 161   0.0000       3.624492        98.6274 
 162   0.0000       3.663317        99.6839 
 163   0.0000       3.663317        99.6839 
 164   0.0000       3.698666       100.6458 
 165   0.0000       3.801861       103.4539 
 166   0.0000       3.804728       103.5319 
 167   0.0000       3.804728       103.5319 
 168   0.0000       3.980144       108.3052 
 169   0.0000       4.195180       114.1567 
 170   0.0000       4.195180       114.1567 
 171   0.0000       4.245742       115.5325 
 172   0.0000       4.245742       115.5325 
 173   0.0000       4.252815       115.7250 
 174   0.0000       4.343659       118.1970 
 175   0.0000       4.343659       118.1970 
 176   0.0000       4.641387       126.2986 
 177   0.0000       4.828541       131.3913 
 178   0.0000       4.828541       131.3913 
 179   0.0000       5.036246       137.0432 
 180   0.0000       5.370638       146.1425 
 181   0.0000       5.370638       146.1425 
 182   0.0000       5.515145       150.0747 
 183   0.0000       5.567732       151.5057 
 184   0.0000       5.567732       151.5057 
 185   0.0000       5.630855       153.2234 
 186   0.0000       5.630855       153.2234 
 187   0.0000       5.709603       155.3662 
 188   0.0000       6.214329       169.1005 
 189   0.0000       8.484026       230.8621 
 190   0.0000       8.484026       230.8621 
 191   0.0000       8.485417       230.8999 
 192   0.0000       8.485417       230.8999 
 193   0.0000       8.760240       238.3782 
 194   0.0000       8.760240       238.3782 
 195   0.0000       8.763899       238.4778 
 196   0.0000       8.763899       238.4778 
 197   0.0000       9.056363       246.4362 
 198   0.0000       9.097740       247.5621 
 199   0.0000       9.097740       247.5621 
 200   0.0000       9.304975       253.2012 
 201   0.0000       9.304975       253.2012 
 202   0.0000       9.376777       255.1551 
 203   0.0000       9.559456       260.1260 
 204   0.0000       9.729803       264.7614 
 205   0.0000       9.827772       267.4273 
 206   0.0000       9.827772       267.4273 
 207   0.0000      10.860863       295.5391 
 208   0.0000      10.860863       295.5391 
 209   0.0000      11.277100       306.8655 
 210   0.0000      11.319244       308.0123 
 211   0.0000      12.297357       334.6281 
 212   0.0000      12.297357       334.6281 
 213   0.0000      12.321215       335.2773 
 214   0.0000      12.321215       335.2773 
 215   0.0000      12.353637       336.1596 
 216   0.0000      12.486249       339.7681 
 217   0.0000      12.486249       339.7681 
 218   0.0000      12.634942       343.8143 
 219   0.0000      12.634942       343.8143 
 220   0.0000      12.931891       351.8946 
 221   0.0000      12.931891       351.8946 
 222   0.0000      12.980486       353.2170 
 223   0.0000      12.980486       353.2170 
 224   0.0000      13.288108       361.5878 
 225   0.0000      14.225580       387.0977 
 226   0.0000      16.776785       456.5195 
 227   0.0000      16.776785       456.5195 
 228   0.0000      16.789518       456.8660 
 229   0.0000      16.789523       456.8661 
 230   0.0000      16.790578       456.8949 
 231   0.0000      16.790583       456.8950 
 232   0.0000      16.817434       457.6257 
 233   0.0000      16.817434       457.6257 
 234   0.0000      16.859420       458.7681 
 235   0.0000      16.859421       458.7682 
 236   0.0000      16.950810       461.2550 
 237   0.0000      17.152197       466.7350 
 238   0.0000      17.152198       466.7350 
 239   0.0000      17.221115       468.6104 
 240   0.0000      17.221115       468.6104 
 241   0.0000      17.567772       478.0434 
 242   0.0000      17.962801       488.7927 
 243   0.0000      17.962801       488.7927 
 244   0.0000      20.643519       561.7387 
 245   0.0000      23.396574       636.6531 
 246   0.0000      23.396574       636.6531 
 247   0.0000      23.407271       636.9442 
 248   0.0000      23.407271       636.9442 
 249   0.0000      24.149178       657.1325 
 250   0.0000      24.634867       670.3488 
 251   0.0000      39.485648      1074.4591 
 252   0.0000      39.796917      1082.9292 
 253   0.0000      91.009832      2476.5034 
 254   0.0000      91.009832      2476.5034 
 255   0.0000      91.029176      2477.0298 
 256   0.0000      91.029176      2477.0298 
 257   0.0000      91.570320      2491.7551 
 258   0.0000      91.813825      2498.3812 

                 SPIN DOWN ORBITALS
  NO   OCC          E(Eh)            E(eV) 
   0   1.0000      -3.847401      -104.6931 
   1   1.0000      -0.309325        -8.4172 
   2   1.0000      -0.275337        -7.4923 
   3   0.0000      -0.059926        -1.6307 
   4   0.0000      -0.059926        -1.6307 
   5   0.0000      -0.000011        -0.0003 
   6   0.0000       0.013100         0.3565 
   7   0.0000       0.025438         0.6922 
   8   0.0000       0.025438         0.6922 
   9   0.0000       0.027140         0.7385 
  10   0.0000       0.037249         1.0136 
  11   0.0000       0.048991         1.3331 
  12   0.0000       0.062590         1.7032 
  13   0.0000       0.062590         1.7032 
  14   0.0000       0.070330         1.9138 
  15   0.0000       0.074243         2.0202 
  16   0.0000       0.074243         2.0202 
  17   0.0000       0.097962         2.6657 
  18   0.0000       0.104160         2.8343 
  19   0.0000       0.104160         2.8343 
  20   0.0000       0.128124         3.4864 
  21   0.0000       0.136271         3.7081 
  22   0.0000       0.155449         4.2300 
  23   0.0000       0.155449         4.2300 
  24   0.0000       0.160299         4.3620 
  25   0.0000       0.160299         4.3620 
  26   0.0000       0.167936         4.5698 
  27   0.0000       0.167936         4.5698 
  28   0.0000       0.172770         4.7013 
  29   0.0000       0.173710         4.7269 
  30   0.0000       0.173710         4.7269 
  31   0.0000       0.174992         4.7618 
  32   0.0000       0.174992         4.7618 
  33   0.0000       0.181496         4.9388 
  34   0.0000       0.209780         5.7084 
  35   0.0000       0.209780         5.7084 
  36   0.0000       0.219473         5.9722 
  37   0.0000       0.261686         7.1208 
  38   0.0000       0.261686         7.1208 
  39   0.0000       0.265703         7.2302 
  40   0.0000       0.265703         7.2302 
  41   0.0000       0.278971         7.5912 
  42   0.0000       0.294669         8.0183 
  43   0.0000       0.294669         8.0183 
  44   0.0000       0.297748         8.1021 
  45   0.0000       0.297748         8.1021 
  46   0.0000       0.308323         8.3899 
  47   0.0000       0.331778         9.0281 
  48   0.0000       0.338223         9.2035 
  49   0.0000       0.338223         9.2035 
  50   0.0000       0.351204         9.5567 
  51   0.0000       0.356395         9.6980 
  52   0.0000       0.356395         9.6980 
  53   0.0000       0.363820         9.9000 
  54   0.0000       0.363820         9.9000 
  55   0.0000       0.379188        10.3182 
  56   0.0000       0.379188        10.3182 
  57   0.0000       0.389212        10.5910 
  58   0.0000       0.425099        11.5675 
  59   0.0000       0.429222        11.6797 
  60   0.0000       0.429222        11.6797 
  61   0.0000       0.454325        12.3628 
  62   0.0000       0.454325        12.3628 
  63   0.0000       0.463204        12.6044 
  64   0.0000       0.463204        12.6044 
  65   0.0000       0.465276        12.6608 
  66   0.0000       0.465276        12.6608 
  67   0.0000       0.477137        12.9836 
  68   0.0000       0.488549        13.2941 
  69   0.0000       0.505628        13.7589 
  70   0.0000       0.505628        13.7589 
  71   0.0000       0.535475        14.5710 
  72   0.0000       0.535475        14.5710 
  73   0.0000       0.548878        14.9357 
  74   0.0000       0.548878        14.9357 
  75   0.0000       0.551640        15.0109 
  76   0.0000       0.551640        15.0109 
  77   0.0000       0.552011        15.0210 
  78   0.0000       0.552011        15.0210 
  79   0.0000       0.598600        16.2887 
  80   0.0000       0.598600        16.2887 
  81   0.0000       0.628580        17.1045 
  82   0.0000       0.636071        17.3084 
  83   0.0000       0.636071        17.3084 
  84   0.0000       0.668194        18.1825 
  85   0.0000       0.670966        18.2579 
  86   0.0000       0.670966        18.2579 
  87   0.0000       0.719402        19.5759 
  88   0.0000       0.719402        19.5759 
  89   0.0000       0.724526        19.7154 
  90   0.0000       0.735999        20.0275 
  91   0.0000       0.735999        20.0275 
  92   0.0000       0.767945        20.8969 
  93   0.0000       0.772361        21.0170 
  94   0.0000       0.782399        21.2902 
  95   0.0000       0.782399        21.2902 
  96   0.0000       0.798881        21.7387 
  97   0.0000       0.798881        21.7387 
  98   0.0000       0.803762        21.8715 
  99   0.0000       0.838884        22.8272 
 100   0.0000       0.838884        22.8272 
 101   0.0000       0.859051        23.3760 
 102   0.0000       0.867177        23.5971 
 103   0.0000       0.867177        23.5971 
 104   0.0000       0.903907        24.5966 
 105   0.0000       0.994418        27.0595 
 106   0.0000       0.994418        27.0595 
 107   0.0000       1.105767        30.0894 
 108   0.0000       1.105767        30.0894 
 109   0.0000       1.145352        31.1666 
 110   0.0000       1.145352        31.1666 
 111   0.0000       1.185726        32.2652 
 112   0.0000       1.248427        33.9714 
 113   0.0000       1.248427        33.9714 
 114   0.0000       1.376525        37.4571 
 115   0.0000       1.376525        37.4571 
 116   0.0000       1.401253        38.1300 
 117   0.0000       1.401253        38.1300 
 118   0.0000       1.434151        39.0252 
 119   0.0000       1.483071        40.3564 
 120   0.0000       1.483071        40.3564 
 121   0.0000       1.496592        40.7243 
 122   0.0000       1.535498        41.7830 
 123   0.0000       1.557218        42.3740 
 124   0.0000       1.654651        45.0253 
 125   0.0000       1.695470        46.1361 
 126   0.0000       1.695470        46.1361 
 127   0.0000       1.754588        47.7448 
 128   0.0000       1.754588        47.7448 
 129   0.0000       1.797706        48.9181 
 130   0.0000       2.010606        54.7114 
 131   0.0000       2.023427        55.0602 
 132   0.0000       2.023427        55.0602 
 133   0.0000       2.136644        58.1410 
 134   0.0000       2.136644        58.1410 
 135   0.0000       2.322002        63.1849 
 136   0.0000       2.357319        64.1459 
 137   0.0000       2.357319        64.1459 
 138   0.0000       2.827109        76.9295 
 139   0.0000       2.827109        76.9295 
 140   0.0000       2.844275        77.3967 
 141   0.0000       2.844275        77.3967 
 142   0.0000       2.848531        77.5125 
 143   0.0000       2.883665        78.4685 
 144   0.0000       2.883665        78.4685 
 145   0.0000       2.914615        79.3107 
 146   0.0000       3.317454        90.2725 
 147   0.0000       3.317454        90.2725 
 148   0.0000       3.434834        93.4666 
 149   0.0000       3.434834        93.4666 
 150   0.0000       3.461666        94.1967 
 151   0.0000       3.461666        94.1967 
 152   0.0000       3.492379        95.0325 
 153   0.0000       3.492379        95.0325 
 154   0.0000       3.555620        96.7533 
 155   0.0000       3.555620        96.7533 
 156   0.0000       3.561784        96.9211 
 157   0.0000       3.574496        97.2670 
 158   0.0000       3.574496        97.2670 
 159   0.0000       3.597181        97.8843 
 160   0.0000       3.597181        97.8843 
 161   0.0000       3.624492        98.6274 
 162   0.0000       3.663317        99.6839 
 163   0.0000       3.663317        99.6839 
 164   0.0000       3.698666       100.6458 
 165   0.0000       3.801861       103.4539 
 166   0.0000       3.804728       103.5319 
 167   0.0000       3.804728       103.5319 
 168   0.0000       3.980144       108.3052 
 169   0.0000       4.195180       114.1567 
 170   0.0000       4.195180       114.1567 
 171   0.0000       4.245742       115.5325 
 172   0.0000       4.245742       115.5325 
 173   0.0000       4.252815       115.7250 
 174   0.0000       4.343659       118.1970 
 175   0.0000       4.343659       118.1970 
 176   0.0000       4.641387       126.2986 
 177   0.0000       4.828541       131.3913 
 178   0.0000       4.828541       131.3913 
 179   0.0000       5.036246       137.0432 
 180   0.0000       5.370638       146.1425 
 181   0.0000       5.370638       146.1425 
 182   0.0000       5.515145       150.0747 
 183   0.0000       5.567732       151.5057 
 184   0.0000       5.567732       151.5057 
 185   0.0000       5.630855       153.2234 
 186   0.0000       5.630855       153.2234 
 187   0.0000       5.709603       155.3662 
 188   0.0000       6.214329       169.1005 
 189   0.0000       8.484026       230.8621 
 190   0.0000       8.484026       230.8621 
 191   0.0000       8.485417       230.8999 
 192   0.0000       8.485417       230.8999 
 193   0.0000       8.760240       238.3782 
 194   0.0000       8.760240       238.3782 
 195   0.0000       8.763899       238.4778 
 196   0.0000       8.763899       238.4778 
 197   0.0000       9.056363       246.4362 
 198   0.0000       9.097740       247.5621 
 199   0.0000       9.097740       247.5621 
 200   0.0000       9.304975       253.2012 
 201   0.0000       9.304975       253.2012 
 202   0.0000       9.376777       255.1551 
 203   0.0000       9.559456       260.1260 
 204   0.0000       9.729803       264.7614 
 205   0.0000       9.827772       267.4273 
 206   0.0000       9.827772       267.4273 
 207   0.0000      10.860863       295.5391 
 208   0.0000      10.860863       295.5391 
 209   0.0000      11.277100       306.8655 
 210   0.0000      11.319244       308.0123 
 211   0.0000      12.297357       334.6281 
 212   0.0000      12.297357       334.6281 
 213   0.0000      12.321215       335.2773 
 214   0.0000      12.321215       335.2773 
 215   0.0000      12.353637       336.1596 
 216   0.0000      12.486249       339.7681 
 217   0.0000      12.486249       339.7681 
 218   0.0000      12.634942       343.8143 
 219   0.0000      12.634942       343.8143 
 220   0.0000      12.931891       351.8946 
 221   0.0000      12.931891       351.8946 
 222   0.0000      12.980486       353.2170 
 223   0.0000      12.980486       353.2170 
 224   0.0000      13.288108       361.5878 
 225   0.0000      14.225580       387.0977 
 226   0.0000      16.776785       456.5195 
 227   0.0000      16.776785       456.5195 
 228   0.0000      16.789518       456.8660 
 229   0.0000      16.789523       456.8661 
 230   0.0000      16.790578       456.8949 
 231   0.0000      16.790583       456.8950 
 232   0.0000      16.817434       457.6257 
 233   0.0000      16.817434       457.6257 
 234   0.0000      16.859420       458.7681 
 235   0.0000      16.859421       458.7682 
 236   0.0000      16.950810       461.2550 
 237   0.0000      17.152197       466.7350 
 238   0.0000      17.152198       466.7350 
 239   0.0000      17.221115       468.6104 
 240   0.0000      17.221115       468.6104 
 241   0.0000      17.567772       478.0434 
 242   0.0000      17.962801       488.7927 
 243   0.0000      17.962801       488.7927 
 244   0.0000      20.643519       561.7387 
 245   0.0000      23.396574       636.6531 
 246   0.0000      23.396574       636.6531 
 247   0.0000      23.407271       636.9442 
 248   0.0000      23.407271       636.9442 
 249   0.0000      24.149178       657.1325 
 250   0.0000      24.634867       670.3488 
 251   0.0000      39.485648      1074.4591 
 252   0.0000      39.796917      1082.9292 
 253   0.0000      91.009832      2476.5034 
 254   0.0000      91.009832      2476.5034 
 255   0.0000      91.029176      2477.0298 
 256   0.0000      91.029176      2477.0298 
 257   0.0000      91.570320      2491.7551 
 258   0.0000      91.813825      2498.3812 

                    ********************************
                    * MULLIKEN POPULATION ANALYSIS *
                    ********************************

--------------------------------------------
MULLIKEN ATOMIC CHARGES AND SPIN POPULATIONS
--------------------------------------------
   0 Be:    0.522571    0.000000
   1 H :   -0.261263   -0.000000
   2 H :   -0.261308   -0.000000
Sum of atomic charges         :    0.0000000
Sum of atomic spin populations:    0.0000000

-----------------------------------------------------
MULLIKEN REDUCED ORBITAL CHARGES AND SPIN POPULATIONS
-----------------------------------------------------
CHARGE
  0 Bes       :     2.900128  s :     2.900128
      pz      :     0.536421  p :     0.536421
      px      :     0.000000
      py      :     0.000000
      dz2     :     0.038602  d :     0.038602
      dxz     :    -0.000000
      dyz     :    -0.000000
      dx2y2   :     0.000000
      dxy     :    -0.000000
      f0      :     0.002289  f :     0.002289
      f+1     :     0.000000
      f-1     :    -0.000000
      f+2     :     0.000000
      f-2     :     0.000000
      f+3     :     0.000000
      f-3     :     0.000000
      g0      :    -0.000011  g :    -0.000011
      g+1     :     0.000000
      g-1     :     0.000000
      g+2     :     0.000000
      g-2     :     0.000000
      g+3     :     0.000000
      g-3     :     0.000000
      g+4     :     0.000000
      g-4     :     0.000000
  1 H s       :     1.244019  s :     1.244019
      pz      :    -0.000588  p :    -0.000588
      px      :     0.000000
      py      :     0.000000
      dz2     :     0.013069  d :     0.013069
      dxz     :    -0.000000
      dyz     :    -0.000000
      dx2y2   :    -0.000000
      dxy     :     0.000000
      f0      :     0.004339  f :     0.004339
      f+1     :     0.000000
      f-1     :     0.000000
      f+2     :     0.000000
      f-2     :     0.000000
      f+3     :     0.000000
      f-3     :     0.000000
      g0      :     0.000423  g :     0.000423
      g+1     :    -0.000000
      g-1     :    -0.000000
      g+2     :    -0.000000
      g-2     :    -0.000000
      g+3     :     0.000000
      g-3     :     0.000000
      g+4     :     0.000000
      g-4     :     0.000000
  2 H s       :     1.244058  s :     1.244058
      pz      :    -0.000583  p :    -0.000583
      px      :     0.000000
      py      :     0.000000
      dz2     :     0.013070  d :     0.013070
      dxz     :    -0.000000
      dyz     :    -0.000000
      dx2y2   :     0.000000
      dxy     :     0.000000
      f0      :     0.004339  f :     0.004339
      f+1     :     0.000000
      f-1     :     0.000000
      f+2     :     0.000000
      f-2     :    -0.000000
      f+3     :    -0.000000
      f-3     :    -0.000000
      g0      :     0.000423  g :     0.000423
      g+1     :    -0.000000
      g-1     :    -0.000000
      g+2     :     0.000000
      g-2     :    -0.000000
      g+3     :    -0.000000
      g-3     :    -0.000000
      g+4     :     0.000000
      g-4     :     0.000000

SPIN
  0 Bes       :     0.000000  s :     0.000000
      pz      :     0.000000  p :     0.000000
      px      :     0.000000
      py      :     0.000000
      dz2     :    -0.000000  d :    -0.000000
      dxz     :     0.000000
      dyz     :     0.000000
      dx2y2   :    -0.000000
      dxy     :     0.000000
      f0      :    -0.000000  f :    -0.000000
      f+1     :     0.000000
      f-1     :    -0.000000
      f+2     :    -0.000000
      f-2     :    -0.000000
      f+3     :     0.000000
      f-3     :    -0.000000
      g0      :     0.000000  g :     0.000000
      g+1     :    -0.000000
      g-1     :    -0.000000
      g+2     :    -0.000000
      g-2     :    -0.000000
      g+3     :    -0.000000
      g-3     :     0.000000
      g+4     :     0.000000
      g-4     :     0.000000
  1 H s       :    -0.000000  s :    -0.000000
      pz      :     0.000000  p :     0.000000
      px      :    -0.000000
      py      :    -0.000000
      dz2     :     0.000000  d :     0.000000
      dxz     :     0.000000
      dyz     :     0.000000
      dx2y2   :     0.000000
      dxy     :     0.000000
      f0      :     0.000000  f :     0.000000
      f+1     :    -0.000000
      f-1     :    -0.000000
      f+2     :    -0.000000
      f-2     :    -0.000000
      f+3     :    -0.000000
      f-3     :    -0.000000
      g0      :     0.000000  g :     0.000000
      g+1     :     0.000000
      g-1     :     0.000000
      g+2     :     0.000000
      g-2     :     0.000000
      g+3     :    -0.000000
      g-3     :    -0.000000
      g+4     :    -0.000000
      g-4     :    -0.000000
  2 H s       :    -0.000000  s :    -0.000000
      pz      :     0.000000  p :     0.000000
      px      :    -0.000000
      py      :    -0.000000
      dz2     :     0.000000  d :     0.000000
      dxz     :     0.000000
      dyz     :     0.000000
      dx2y2   :    -0.000000
      dxy     :    -0.000000
      f0      :     0.000000  f :     0.000000
      f+1     :    -0.000000
      f-1     :     0.000000
      f+2     :     0.000000
      f-2     :    -0.000000
      f+3     :     0.000000
      f-3     :     0.000000
      g0      :     0.000000  g :     0.000000
      g+1     :     0.000000
      g-1     :     0.000000
      g+2     :     0.000000
      g-2     :    -0.000000
      g+3     :     0.000000
      g-3     :     0.000000
      g+4     :    -0.000000
      g-4     :    -0.000000


                     *******************************
                     * LOEWDIN POPULATION ANALYSIS *
                     *******************************

-------------------------------------------
LOEWDIN ATOMIC CHARGES AND SPIN POPULATIONS
-------------------------------------------
   0 Be:    0.534971    0.000000
   1 H :   -0.267485   -0.000000
   2 H :   -0.267485    0.000000

----------------------------------------------------
LOEWDIN REDUCED ORBITAL CHARGES AND SPIN POPULATIONS
----------------------------------------------------
CHARGE
  0 Bes       :     2.590411  s :     2.590411
      pz      :     0.788068  p :     0.788068
      px      :     0.000000
      py      :     0.000000
      dz2     :     0.058314  d :     0.058314
      dxz     :     0.000000
      dyz     :     0.000000
      dx2y2   :     0.000000
      dxy     :     0.000000
      f0      :     0.025809  f :     0.025809
      f+1     :     0.000000
      f-1     :     0.000000
      f+2     :     0.000000
      f-2     :     0.000000
      f+3     :     0.000000
      f-3     :     0.000000
      g0      :     0.002427  g :     0.002427
      g+1     :     0.000000
      g-1     :     0.000000
      g+2     :     0.000000
      g-2     :     0.000000
      g+3     :     0.000000
      g-3     :     0.000000
      g+4     :     0.000000
      g-4     :     0.000000
  1 H s       :     1.000716  s :     1.000716
      pz      :     0.108592  p :     0.108592
      px      :     0.000000
      py      :     0.000000
      dz2     :     0.086283  d :     0.086283
      dxz     :     0.000000
      dyz     :     0.000000
      dx2y2   :     0.000000
      dxy     :     0.000000
      f0      :     0.050060  f :     0.050060
      f+1     :     0.000000
      f-1     :     0.000000
      f+2     :     0.000000
      f-2     :     0.000000
      f+3     :     0.000000
      f-3     :     0.000000
      g0      :     0.021834  g :     0.021834
      g+1     :     0.000000
      g-1     :     0.000000
      g+2     :     0.000000
      g-2     :     0.000000
      g+3     :     0.000000
      g-3     :     0.000000
      g+4     :     0.000000
      g-4     :     0.000000
  2 H s       :     1.000716  s :     1.000716
      pz      :     0.108592  p :     0.108592
      px      :     0.000000
      py      :     0.000000
      dz2     :     0.086283  d :     0.086283
      dxz     :     0.000000
      dyz     :     0.000000
      dx2y2   :     0.000000
      dxy     :     0.000000
      f0      :     0.050060  f :     0.050060
      f+1     :     0.000000
      f-1     :     0.000000
      f+2     :     0.000000
      f-2     :     0.000000
      f+3     :     0.000000
      f-3     :     0.000000
      g0      :     0.021834  g :     0.021834
      g+1     :     0.000000
      g-1     :     0.000000
      g+2     :     0.000000
      g-2     :     0.000000
      g+3     :     0.000000
      g-3     :     0.000000
      g+4     :     0.000000
      g-4     :     0.000000

SPIN
  0 Bes       :     0.000000  s :     0.000000
      pz      :     0.000000  p :     0.000000
      px      :     0.000000
      py      :     0.000000
      dz2     :     0.000000  d :     0.000000
      dxz     :    -0.000000
      dyz     :     0.000000
      dx2y2   :     0.000000
      dxy     :     0.000000
      f0      :     0.000000  f :     0.000000
      f+1     :     0.000000
      f-1     :    -0.000000
      f+2     :    -0.000000
      f-2     :    -0.000000
      f+3     :     0.000000
      f-3     :    -0.000000
      g0      :     0.000000  g :     0.000000
      g+1     :    -0.000000
      g-1     :    -0.000000
      g+2     :    -0.000000
      g-2     :    -0.000000
      g+3     :    -0.000000
      g-3     :    -0.000000
      g+4     :     0.000000
      g-4     :     0.000000
  1 H s       :    -0.000000  s :    -0.000000
      pz      :    -0.000000  p :    -0.000000
      px      :    -0.000000
      py      :    -0.000000
      dz2     :    -0.000000  d :    -0.000000
      dxz     :     0.000000
      dyz     :     0.000000
      dx2y2   :    -0.000000
      dxy     :    -0.000000
      f0      :    -0.000000  f :    -0.000000
      f+1     :    -0.000000
      f-1     :    -0.000000
      f+2     :    -0.000000
      f-2     :     0.000000
      f+3     :    -0.000000
      f-3     :    -0.000000
      g0      :     0.000000  g :     0.000000
      g+1     :    -0.000000
      g-1     :    -0.000000
      g+2     :    -0.000000
      g-2     :     0.000000
      g+3     :    -0.000000
      g-3     :     0.000000
      g+4     :    -0.000000
      g-4     :    -0.000000
  2 H s       :     0.000000  s :     0.000000
      pz      :     0.000000  p :     0.000000
      px      :    -0.000000
      py      :    -0.000000
      dz2     :     0.000000  d :     0.000000
      dxz     :     0.000000
      dyz     :    -0.000000
      dx2y2   :    -0.000000
      dxy     :    -0.000000
      f0      :     0.000000  f :     0.000000
      f+1     :    -0.000000
      f-1     :     0.000000
      f+2     :     0.000000
      f-2     :    -0.000000
      f+3     :     0.000000
      f-3     :     0.000000
      g0      :    -0.000000  g :    -0.000000
      g+1     :    -0.000000
      g-1     :    -0.000000
      g+2     :    -0.000000
      g-2     :    -0.000000
      g+3     :     0.000000
      g-3     :     0.000000
      g+4     :    -0.000000
      g-4     :    -0.000000


                      *****************************
                      * MAYER POPULATION ANALYSIS *
                      *****************************

  NA   - Mulliken gross atomic population
  ZA   - Total nuclear charge
  QA   - Mulliken gross atomic charge
  VA   - Mayer's total valence
  BVA  - Mayer's bonded valence
  FA   - Mayer's free valence

  ATOM       NA         ZA         QA         VA         BVA        FA
  0 Be     3.4774     4.0000     0.5226     1.7923     1.7923     0.0000
  1 H      1.2613     1.0000    -0.2613     0.9286     0.9286     0.0000
  2 H      1.2613     1.0000    -0.2613     0.9287     0.9287     0.0000

  Mayer bond orders larger than 0.1
B(  0-Be,  1-H ) :   0.8961 B(  0-Be,  2-H ) :   0.8962 

-------
TIMINGS
-------

Total SCF time: 0 days 0 hours 7 min 54 sec 

Total time                  ....     474.031 sec
Sum of individual times     ....     473.496 sec  ( 99.9%)

Fock matrix formation       ....     468.596 sec  ( 98.9%)
  XC integration            ....      45.917 sec  (  9.8% of F)
    Basis function eval.    ....       4.463 sec  (  9.7% of XC)
    Density eval.           ....      10.029 sec  ( 21.8% of XC)
    XC-Functional eval.     ....       0.830 sec  (  1.8% of XC)
    XC-Potential eval.      ....      29.810 sec  ( 64.9% of XC)
Diagonalization             ....       0.467 sec  (  0.1%)
Density matrix formation    ....       0.008 sec  (  0.0%)
Population analysis         ....       0.052 sec  (  0.0%)
Initial guess               ....       2.370 sec  (  0.5%)
Orbital Transformation      ....       0.000 sec  (  0.0%)
Orbital Orthonormalization  ....       0.000 sec  (  0.0%)
DIIS solution               ....       0.286 sec  (  0.1%)
Grid generation             ....       1.717 sec  (  0.4%)

-------------------------   --------------------
FINAL SINGLE POINT ENERGY       -15.865668108909
-------------------------   --------------------


                            ***************************************
                            *     ORCA property calculations      *
                            ***************************************

                                    ---------------------
                                    Active property flags
                                    ---------------------
   (+) Dipole Moment
   (+) Polarizability


------------------------------------------------------------------------------
                       ORCA ELECTRIC PROPERTIES CALCULATION
------------------------------------------------------------------------------

Dipole Moment Calculation                       ... on
Quadrupole Moment Calculation                   ... off
Polarizability Calculation                      ... Analytic (CP-SCF)
GBWName                                         ... beh2_pbe.gbw
Electron density file                           ... beh2_pbe.scfp.tmp
The origin for moment calculation is the CENTER OF MASS  = ( 0.000000,  0.000000  0.000000)

-------------
DIPOLE MOMENT
-------------
                                X             Y             Z
Electronic contribution:      0.00000      -0.00000       0.00000
Nuclear contribution   :      0.00000       0.00000       0.00000
                        -----------------------------------------
Total Dipole Moment    :      0.00000      -0.00000       0.00000
                        -----------------------------------------
Magnitude (a.u.)       :      0.00000
Magnitude (Debye)      :      0.00000



--------------------
Rotational spectrum 
--------------------
 
Rotational constants in cm-1:     0.000000     4.752885     4.752885 
Rotational constants in MHz :     0.000000 142487.920971 142487.920971 

 Dipole components along the rotational axes: 
x,y,z [a.u.] :     0.000000    -0.000000     0.000000 
x,y,z [Debye]:     0.000000    -0.000000     0.000000 

 
Transforming and storing MO dipole integrals   ... done

                ... starting polarizability calculation

Opening the Dipole integral file               ... (beh2_pbe.dmo.tmp) done
Reading Dipole-MO integrals                    ... done
Solving CP-SCF equations                       ... 
------------------------------------------------------------------------------
                           ORCA CP-SCF CALCULATION
------------------------------------------------------------------------------

Input orbitals are from        ... beh2_pbe.gbw
Input Perturbation             ... beh2_pbe.cpv.tmp
Wavefunction output            ... beh2_pbe.cpu.tmp
Perturbation mode              ... Real perturbation (singlet)
Solver                         ... POPLE
Max. number of iterations      ... 200
Convergence tolerance          ... 1.000e-06
Integral handling              ... Direct
Number of perturbations        ... 3
Number of operators            ... 2
Orbital ranges used for CP-SCF:
 Operator 0:  Orbitals   0...  2  to   3...258
 Operator 1:  Orbitals   0...  2  to   3...258
DFT calculation                         ... on
Exchange functional (SCF)               ... PBE
Exchange functional (CP-SCF)            ... PBE
   PBE kappa parameter  XKappa (SCF)    ...  0.804000
   PBE kappa parameter  XKappa (CP-SCF) ...  0.804000
   PBE mue parameter   XMuePBE (SCF)    ...  0.219520
   PBE mue parameter   XMuePBE (CP-SCF) ...  0.219520
Correlation functional (SCF)            ... PBE
Correlation functional (CP-SCF)         ... PBE
   PBE beta parameter CBetaPBE (SCF)    ...  0.066725
   PBE beta parameter CBetaPBE (CP-SCF) ...  0.066725
 LDA part of GGA corr.  LDAOpt (SCF)    ... PW91-LDA
 LDA part of GGA corr.  LDAOpt (CP-SCF) ... PW91-LDA
Variables per vector in CP-SCF ... 1536
Number of vectors sought       ... 3
Recalculating density on grid  ... done
Calculating the xc-kernel      ... done
     CP-SCF ITERATION   0: 
     CP-SCF ITERATION   1:      0.010869357993
     CP-SCF ITERATION   2:      0.000050305117
     CP-SCF ITERATION   3:      0.000000385102
done
Reading CP-SCF coefficients                    ... done
Doing the polarizability tensor   ... done
Cleaning up                                    ... done

-------------------------
THE POLARIZABILITY TENSOR
-------------------------

The raw cartesian tensor (atomic units):
   21.51463      0.00000      0.00000  
    0.00000     21.51463      0.00000  
    0.00000      0.00000     21.64282  
diagonalized tensor: 
   21.51463     21.51463     21.64282  

    0.98877     -0.14947      0.00000  
   -0.14947     -0.98877      0.00000  
   -0.00000      0.00000      1.00000  

Isotropic polarizability :  21.55736


Timings for individual modules:

Sum of individual times         ...      775.293 sec (=  12.922 min)
GTO integral calculation        ...        0.644 sec (=   0.011 min)   0.1 %
SCF iterations                  ...      474.063 sec (=   7.901 min)  61.1 %
Solution of CP-SCF eqns.        ...      300.586 sec (=   5.010 min)  38.8 %
                             ****ORCA TERMINATED NORMALLY****
TOTAL RUN TIME: 0 days 0 hours 12 minutes 55 seconds 649 msec
