
                                 *****************
                                 * O   R   C   A *
                                 *****************

           --- An Ab Initio, DFT and Semiempirical electronic structure package ---

                  #######################################################
                  #                        -***-                        #
                  #          Department of theory and spectroscopy      #
                  #               Directorship: Frank Neese             #
                  #        Max Planck Institute fuer Kohlenforschung    #
                  #                Kaiser Wilhelm Platz 1               #
                  #                 D-45470 Muelheim/Ruhr               #
                  #                      Germany                        #
                  #                                                     #
                  #                  All rights reserved                #
                  #                        -***-                        #
                  #######################################################


                         Program Version 4.1.2  - RELEASE  -


 With contributions from (in alphabetic order):
   Daniel Aravena         : Magnetic Properties
   Michael Atanasov       : Ab Initio Ligand Field Theory
   Alexander A. Auer      : GIAO ZORA
   Ute Becker             : Parallelization
   Giovanni Bistoni       : ED, Open-shell LED
   Martin Brehm           : Molecular dynamics
   Dmytro Bykov           : SCF Hessian
   Vijay G. Chilkuri      : MRCI spin determinant printing
   Dipayan Datta          : RHF DLPNO-CCSD density
   Achintya Kumar Dutta   : EOM-CC, STEOM-CC
   Dmitry Ganyushin       : Spin-Orbit,Spin-Spin,Magnetic field MRCI
   Miquel Garcia          : C-PCM Hessian
   Yang Guo               : DLPNO-NEVPT2, CIM, IAO-localization
   Andreas Hansen         : Spin unrestricted coupled pair/coupled cluster methods
   Benjamin Helmich-Paris : CASSCF linear response (MC-RPA)
   Lee Huntington         : MR-EOM, pCC
   Robert Izsak           : Overlap fitted RIJCOSX, COSX-SCS-MP3, EOM
   Christian Kollmar      : KDIIS, OOCD, Brueckner-CCSD(T), CCSD density
   Simone Kossmann        : Meta GGA functionals, TD-DFT gradient, OOMP2, MP2 Hessian
   Martin Krupicka        : AUTO-CI
   Lucas Lang             : DCDCAS
   Dagmar Lenk            : GEPOL surface, SMD
   Dimitrios Liakos       : Extrapolation schemes; parallel MDCI
   Dimitrios Manganas     : ROCIS; embedding schemes
   Dimitrios Pantazis     : SARC Basis sets
   Taras Petrenko         : DFT Hessian,TD-DFT gradient, ASA, ECA, R-Raman, ABS, FL, XAS/XES, NRVS
   Peter Pinski           : DLPNO-MP2, DLPNO-MP2 Gradient
   Christoph Reimann      : Effective Core Potentials
   Marius Retegan         : Local ZFS, SOC
   Christoph Riplinger    : Optimizer, TS searches, QM/MM, DLPNO-CCSD(T), (RO)-DLPNO pert. Triples
   Tobias Risthaus        : Range-separated hybrids, TD-DFT gradient, RPA, STAB
   Michael Roemelt        : Restricted open shell CIS
   Masaaki Saitow         : Open-shell DLPNO
   Barbara Sandhoefer     : DKH picture change effects
   Avijit Sen             : IP-ROCIS
   Kantharuban Sivalingam : CASSCF convergence, NEVPT2, FIC-MRCI
   Bernardo de Souza      : ESD, SOC TD-DFT
   Georgi Stoychev        : AutoAux, RI-MP2 NMR
   Willem Van den Heuvel  : Paramagnetic NMR
   Boris Wezisla          : Elementary symmetry handling
   Frank Wennmohs         : Technical directorship


 We gratefully acknowledge several colleagues who have allowed us to
 interface, adapt or use parts of their codes:
   Stefan Grimme, W. Hujo, H. Kruse,             : VdW corrections, initial TS optimization,
                  C. Bannwarth                     DFT functionals, gCP, sTDA/sTD-DF
   Ed Valeev                                     : LibInt (2-el integral package), F12 methods
   Garnet Chan, S. Sharma, J. Yang, R. Olivares  : DMRG
   Ulf Ekstrom                                   : XCFun DFT Library
   Mihaly Kallay                                 : mrcc  (arbitrary order and MRCC methods)
   Andreas Klamt, Michael Diedenhofen            : otool_cosmo (COSMO solvation model)
   Jiri Pittner, Ondrej Demel                    : Mk-CCSD
   Frank Weinhold                                : gennbo (NPA and NBO analysis)
   Christopher J. Cramer and Donald G. Truhlar   : smd solvation model
   Lars Goerigk                                  : TD-DFT with DH, B97 family of functionals
   V. Asgeirsson, H. Jonsson                     : NEB implementation
   FAccTs GmbH                                   : IRC, NEB, NEB-TS, Multilevel


 Your calculation uses the libint2 library for the computation of 2-el integrals
 For citations please refer to: http://libint.valeyev.net

 This ORCA versions uses:
   CBLAS   interface :  Fast vector & matrix operations
   LAPACKE interface :  Fast linear algebra routines
   SCALAPACK package :  Parallel linear algebra routines


----- Orbital basis set information -----
Your calculation utilizes the basis: aug-pc-4
   H, C-F              : F. Jensen, J. Chem. Phys. 115, 9113 (2001).
                         F. Jensen, J. Chem. Phys. 116, 7372 (2002).
                         F. Jensen, J. Chem. Phys. 117, 9234 (2002).
   Si-Cl               : F. Jensen, T. Helgaker, J. Chem. Phys. 121, 3463 (2004).
   He-B, Ne-Mg, Al, Ar : F. Jensen, J. Phys. Chem. A 111, 11198 (2007).
   K, Ca, Ga-Kr        : F. Jensen, J. Chem. Phys. 136, 094110 (2012).
   Sc-Zn               : F. Jensen, J. Chem. Phys. 138, 014107 (2013).

================================================================================
                                        WARNINGS
                       Please study these warnings very carefully!
================================================================================


INFO   : the flag for use of LIBINT has been found!

================================================================================
                                       INPUT FILE
================================================================================
NAME = beh_pbe.inp
|  1> !uks pbe nori aug-pc-4 grid7 nofinalgrid verytightscf
|  2> 
|  3> %maxcore 1500
|  4> 
|  5> %pal nprocs 1 end
|  6> 
|  7> %scf
|  8> 	maxiter 200
|  9> end
| 10> %elprop
| 11> 	dipole true
| 12> 	 polar 1
| 13> 	 maxiter 200
| 14> end
| 15> 
| 16> * xyz 0 2
| 17> H 0 0 0
| 18> Be 0 0 1.3426
| 19> *
| 20> 
| 21>                          ****END OF INPUT****
================================================================================

                       ****************************
                       * Single Point Calculation *
                       ****************************

---------------------------------
CARTESIAN COORDINATES (ANGSTROEM)
---------------------------------
  H      0.000000    0.000000    0.000000
  Be     0.000000    0.000000    1.342600

----------------------------
CARTESIAN COORDINATES (A.U.)
----------------------------
  NO LB      ZA    FRAG     MASS         X           Y           Z
   0 H     1.0000    0     1.008    0.000000    0.000000    0.000000
   1 Be    4.0000    0     9.012    0.000000    0.000000    2.537146

--------------------------------
INTERNAL COORDINATES (ANGSTROEM)
--------------------------------
 H      0   0   0     0.000000000000     0.00000000     0.00000000
 Be     1   0   0     1.342600000000     0.00000000     0.00000000

---------------------------
INTERNAL COORDINATES (A.U.)
---------------------------
 H      0   0   0     0.000000000000     0.00000000     0.00000000
 Be     1   0   0     2.537146307403     0.00000000     0.00000000

---------------------
BASIS SET INFORMATION
---------------------
There are 2 groups of distinct atoms

 Group   1 Type H   : 12s7p4d3f2g contracted to 8s7p4d3f2g pattern {51111111/1111111/1111/111/11}
 Group   2 Type Be  : 31s9p4d3f2g contracted to 9s5p4d3f2g pattern {12121111111/51111/1111/111/11}

Atom   0H    basis set group =>   1
Atom   1Be   basis set group =>   2
------------------------------------------------------------------------------
                           ORCA GTO INTEGRAL CALCULATION
------------------------------------------------------------------------------

                         BASIS SET STATISTICS AND STARTUP INFO

 # of primitive gaussian shells          ...   77
 # of primitive gaussian functions       ...  209
 # of contracted shells                  ...   47
 # of contracted basis functions         ...  171
 Highest angular momentum                ...    4
 Maximum contraction depth               ...   12
 Integral package used                   ... LIBINT
 Integral threshhold            Thresh   ...  1.000e-12
 Primitive cut-off              TCut     ...  1.000e-14


------------------------------ INTEGRAL EVALUATION ----------------------------


 * One electron integrals 
 Pre-screening matrix                    ... done
 Shell pair data                         ... done (   0.000 sec)

-------------------------------------------------------------------------------
                                 ORCA SCF
-------------------------------------------------------------------------------

------------
SCF SETTINGS
------------
Hamiltonian:
 Density Functional     Method          .... DFT(GTOs)
 Exchange Functional    Exchange        .... PBE
   PBE kappa parameter   XKappa         ....  0.804000
   PBE mue parameter    XMuePBE         ....  0.219520
 Correlation Functional Correlation     .... PBE
   PBE beta parameter  CBetaPBE         ....  0.066725
 LDA part of GGA corr.  LDAOpt          .... PW91-LDA
 Gradients option       PostSCFGGA      .... off
   Density functional embedding theory  .... OFF
   NL short-range parameter             ....  6.400000


General Settings:
 Integral files         IntName         .... beh_pbe
 Hartree-Fock type      HFTyp           .... UHF
 Total Charge           Charge          ....    0
 Multiplicity           Mult            ....    2
 Number of Electrons    NEL             ....    5
 Basis Dimension        Dim             ....  171
 Nuclear Repulsion      ENuc            ....      1.5765744326 Eh

Convergence Acceleration:
 DIIS                   CNVDIIS         .... on
   Start iteration      DIISMaxIt       ....    12
   Startup error        DIISStart       ....  0.200000
   # of expansion vecs  DIISMaxEq       ....     5
   Bias factor          DIISBfac        ....   1.050
   Max. coefficient     DIISMaxC        ....  10.000
 Newton-Raphson         CNVNR           .... off
 SOSCF                  CNVSOSCF        .... off
 Level Shifting         CNVShift        .... on
   Level shift para.    LevelShift      ....    0.2500
   Turn off err/grad.   ShiftErr        ....    0.0010
 Zerner damping         CNVZerner       .... off
 Static damping         CNVDamp         .... on
   Fraction old density DampFac         ....    0.7000
   Max. Damping (<1)    DampMax         ....    0.9800
   Min. Damping (>=0)   DampMin         ....    0.0000
   Turn off err/grad.   DampErr         ....    0.1000
 Fernandez-Rico         CNVRico         .... off

SCF Procedure:
 Maximum # iterations   MaxIter         ....   200
 SCF integral mode      SCFMode         .... Direct
   Integral package                     .... LIBINT
 Reset frequency        DirectResetFreq ....    20
 Integral Threshold     Thresh          ....  1.000e-12 Eh
 Primitive CutOff       TCut            ....  1.000e-14 Eh

Convergence Tolerance:
 Convergence Check Mode ConvCheckMode   .... Total+1el-Energy
 Convergence forced     ConvForced      .... 0
 Energy Change          TolE            ....  1.000e-09 Eh
 1-El. energy change                    ....  1.000e-06 Eh
 DIIS Error             TolErr          ....  1.000e-08


Diagonalization of the overlap matrix:
Smallest eigenvalue                        ... 1.012e-05
Time for diagonalization                   ...    0.006 sec
Threshold for overlap eigenvalues          ... 1.000e-08
Number of eigenvalues below threshold      ... 0
Time for construction of square roots      ...    0.005 sec
Total time needed                          ...    0.011 sec

-------------------
DFT GRID GENERATION
-------------------

General Integration Accuracy     IntAcc      ...  5.670
Radial Grid Type                 RadialGrid  ... Gauss-Chebyshev
Angular Grid (max. acc.)         AngularGrid ... Lebedev-770
Angular grid pruning method      GridPruning ... 3 (G Style)
Weight generation scheme         WeightScheme... Becke
Basis function cutoff            BFCut       ...    1.0000e-12
Integration weight cutoff        WCut        ...    1.0000e-14
Grids for H and He will be reduced by one unit

# of grid points (after initial pruning)     ...  42414 (   0.0 sec)
# of grid points (after weights+screening)   ...  42219 (   0.0 sec)
nearest neighbour list constructed           ...    0.0 sec
Grid point re-assignment to atoms done       ...    0.0 sec
Grid point division into batches done        ...    0.8 sec
Reduced shell lists constructed in    1.1 sec

Total number of grid points                  ...    42219
Total number of batches                      ...      660
Average number of points per batch           ...       63
Average number of grid points per atom       ...    21110
Average number of shells per batch           ...    38.04 (80.94%)
Average number of basis functions per batch  ...   139.22 (81.41%)
Average number of large shells per batch     ...    35.34 (92.88%)
Average number of large basis fcns per batch ...   129.63 (93.11%)
Maximum spatial batch extension              ...  41.36, 41.36, 29.33 au
Average spatial batch extension              ...   3.62,  3.63,  3.28 au

Time for grid setup =    1.094 sec

------------------------------
INITIAL GUESS: MODEL POTENTIAL
------------------------------
Loading Hartree-Fock densities                     ... done
Calculating cut-offs                               ... done
Setting up the integral package                    ... done
Initializing the effective Hamiltonian             ... done
Starting the Coulomb interaction                   ... done (   0.0 sec)
Reading the grid                                   ... done
Mapping shells                                     ... done
Starting the XC term evaluation                    ... done (   0.8 sec)
  promolecular density results
     # of electrons  =      4.999510619
     EX              =     -2.932878505
     EC              =     -0.110615573
     EX+EC           =     -3.043494078
Transforming the Hamiltonian                       ... done (   0.0 sec)
Diagonalizing the Hamiltonian                      ... done (   0.0 sec)
Back transforming the eigenvectors                 ... done (   0.0 sec)
Now organizing SCF variables                       ... done
                      ------------------
                      INITIAL GUESS DONE (   2.0 sec)
                      ------------------
--------------
SCF ITERATIONS
--------------
ITER       Energy         Delta-E        Max-DP      RMS-DP      [F,P]     Damp
               ***  Starting incremental Fock matrix formation  ***
  0    -15.2043548531   0.000000000000 0.01703321  0.00014257  0.1156984 0.7000
  1    -15.2095884592  -0.005233606081 0.01484948  0.00012089  0.0760052 0.7000
                               ***Turning on DIIS***
  2    -15.2129012824  -0.003312823187 0.03022771  0.00027117  0.0423875 0.0000
  3    -15.2175747316  -0.004673449169 0.00507023  0.00007960  0.0287612 0.0000
  4    -15.2183298144  -0.000755082810 0.00291998  0.00004355  0.0087113 0.0000
  5    -15.2184417036  -0.000111889199 0.00317989  0.00003308  0.0025976 0.0000
  6    -15.2184589559  -0.000017252299 0.00473080  0.00004249  0.0009671 0.0000
  7    -15.2184630626  -0.000004106770 0.00024777  0.00000211  0.0001943 0.0000
  8    -15.2184631223  -0.000000059656 0.00006318  0.00000050  0.0000107 0.0000
  9    -15.2184631233  -0.000000001046 0.00000457  0.00000006  0.0000031 0.0000
                 **** Energy Check signals convergence ****

               *****************************************************
               *                     SUCCESS                       *
               *           SCF CONVERGED AFTER  10 CYCLES          *
               *****************************************************


----------------
TOTAL SCF ENERGY
----------------

Total Energy       :          -15.21846312 Eh            -414.11543 eV

Components:
Nuclear Repulsion  :            1.57657443 Eh              42.90077 eV
Electronic Energy  :          -16.79503756 Eh            -457.01621 eV
One Electron Energy:          -22.79707958 Eh            -620.34007 eV
Two Electron Energy:            6.00204202 Eh             163.32387 eV

Virial components:
Potential Energy   :          -30.35665326 Eh            -826.04653 eV
Kinetic Energy     :           15.13819014 Eh             411.93110 eV
Virial Ratio       :            2.00530268


DFT components:
N(Alpha)           :        3.000000153968 electrons
N(Beta)            :        2.000000124985 electrons
N(Total)           :        5.000000278953 electrons
E(X)               :       -3.029255670655 Eh       
E(C)               :       -0.102892387406 Eh       
E(XC)              :       -3.132148058061 Eh       
DFET-embed. en.    :        0.000000000000 Eh       

---------------
SCF CONVERGENCE
---------------

  Last Energy change         ...   -6.3887e-11  Tolerance :   1.0000e-09
  Last MAX-Density change    ...    5.1146e-06  Tolerance :   1.0000e-08
  Last RMS-Density change    ...    5.0595e-08  Tolerance :   1.0000e-09
  Last DIIS Error            ...    6.1752e-07  Tolerance :   1.0000e-08

             **** THE GBW FILE WAS UPDATED (beh_pbe.gbw) ****
             **** DENSITY FILE WAS UPDATED (beh_pbe.scfp.tmp) ****
             **** ENERGY FILE WAS UPDATED (beh_pbe.en.tmp) ****
----------------------
UHF SPIN CONTAMINATION
----------------------

Warning: in a DFT calculation there is little theoretical justification to 
         calculate <S**2> as in Hartree-Fock theory. We will do it anyways
         but you should keep in mind that the values have only limited relevance

Expectation value of <S**2>     :     0.750679
Ideal value S*(S+1) for S=0.5   :     0.750000
Deviation                       :     0.000679

----------------
ORBITAL ENERGIES
----------------
                 SPIN UP ORBITALS
  NO   OCC          E(Eh)            E(eV) 
   0   1.0000      -3.886246      -105.7501 
   1   1.0000      -0.306034        -8.3276 
   2   1.0000      -0.172782        -4.7016 
   3   0.0000      -0.080272        -2.1843 
   4   0.0000      -0.080272        -2.1843 
   5   0.0000      -0.003643        -0.0991 
   6   0.0000       0.010696         0.2911 
   7   0.0000       0.018786         0.5112 
   8   0.0000       0.018786         0.5112 
   9   0.0000       0.034559         0.9404 
  10   0.0000       0.044186         1.2024 
  11   0.0000       0.063901         1.7388 
  12   0.0000       0.063901         1.7388 
  13   0.0000       0.069466         1.8903 
  14   0.0000       0.069466         1.8903 
  15   0.0000       0.070198         1.9102 
  16   0.0000       0.099490         2.7073 
  17   0.0000       0.099490         2.7073 
  18   0.0000       0.105686         2.8759 
  19   0.0000       0.124852         3.3974 
  20   0.0000       0.143658         3.9091 
  21   0.0000       0.152244         4.1428 
  22   0.0000       0.152244         4.1428 
  23   0.0000       0.162122         4.4116 
  24   0.0000       0.162122         4.4116 
  25   0.0000       0.164271         4.4700 
  26   0.0000       0.164271         4.4700 
  27   0.0000       0.195244         5.3129 
  28   0.0000       0.195244         5.3129 
  29   0.0000       0.208716         5.6795 
  30   0.0000       0.236604         6.4383 
  31   0.0000       0.236604         6.4383 
  32   0.0000       0.240308         6.5391 
  33   0.0000       0.285888         7.7794 
  34   0.0000       0.285888         7.7794 
  35   0.0000       0.289854         7.8873 
  36   0.0000       0.289854         7.8873 
  37   0.0000       0.289937         7.8896 
  38   0.0000       0.289937         7.8896 
  39   0.0000       0.290790         7.9128 
  40   0.0000       0.290790         7.9128 
  41   0.0000       0.293042         7.9741 
  42   0.0000       0.293042         7.9741 
  43   0.0000       0.299862         8.1597 
  44   0.0000       0.307359         8.3637 
  45   0.0000       0.346444         9.4272 
  46   0.0000       0.368148        10.0178 
  47   0.0000       0.368148        10.0178 
  48   0.0000       0.396111        10.7787 
  49   0.0000       0.396111        10.7787 
  50   0.0000       0.409386        11.1400 
  51   0.0000       0.442526        12.0418 
  52   0.0000       0.442526        12.0418 
  53   0.0000       0.478912        13.0319 
  54   0.0000       0.478912        13.0319 
  55   0.0000       0.505719        13.7613 
  56   0.0000       0.511907        13.9297 
  57   0.0000       0.511907        13.9297 
  58   0.0000       0.527974        14.3669 
  59   0.0000       0.527974        14.3669 
  60   0.0000       0.532182        14.4814 
  61   0.0000       0.532182        14.4814 
  62   0.0000       0.537633        14.6297 
  63   0.0000       0.575595        15.6627 
  64   0.0000       0.575595        15.6627 
  65   0.0000       0.645376        17.5616 
  66   0.0000       0.645376        17.5616 
  67   0.0000       0.655309        17.8319 
  68   0.0000       0.716939        19.5089 
  69   0.0000       0.718116        19.5409 
  70   0.0000       0.718116        19.5409 
  71   0.0000       0.734229        19.9794 
  72   0.0000       0.790566        21.5124 
  73   0.0000       0.790566        21.5124 
  74   0.0000       0.988217        26.8907 
  75   0.0000       0.988217        26.8907 
  76   0.0000       0.994569        27.0636 
  77   0.0000       1.079101        29.3638 
  78   0.0000       1.079101        29.3638 
  79   0.0000       1.174386        31.9567 
  80   0.0000       1.186779        32.2939 
  81   0.0000       1.186779        32.2939 
  82   0.0000       1.235553        33.6211 
  83   0.0000       1.235553        33.6211 
  84   0.0000       1.290633        35.1199 
  85   0.0000       1.290633        35.1199 
  86   0.0000       1.351114        36.7657 
  87   0.0000       1.466971        39.9183 
  88   0.0000       1.564207        42.5642 
  89   0.0000       1.611113        43.8406 
  90   0.0000       1.611113        43.8406 
  91   0.0000       1.733676        47.1757 
  92   0.0000       1.733676        47.1757 
  93   0.0000       1.802791        49.0564 
  94   0.0000       1.958110        53.2829 
  95   0.0000       1.987305        54.0773 
  96   0.0000       1.987305        54.0773 
  97   0.0000       2.002509        54.4910 
  98   0.0000       2.002509        54.4910 
  99   0.0000       2.687813        73.1391 
 100   0.0000       2.782035        75.7030 
 101   0.0000       2.782035        75.7030 
 102   0.0000       2.894835        78.7725 
 103   0.0000       2.894835        78.7725 
 104   0.0000       3.306820        89.9831 
 105   0.0000       3.355091        91.2967 
 106   0.0000       3.355091        91.2967 
 107   0.0000       3.368269        91.6553 
 108   0.0000       3.368269        91.6553 
 109   0.0000       3.371547        91.7444 
 110   0.0000       3.371547        91.7444 
 111   0.0000       3.433884        93.4407 
 112   0.0000       3.433884        93.4407 
 113   0.0000       3.494438        95.0885 
 114   0.0000       3.657433        99.5238 
 115   0.0000       3.657433        99.5238 
 116   0.0000       3.749321       102.0242 
 117   0.0000       3.752673       102.1154 
 118   0.0000       3.752673       102.1154 
 119   0.0000       3.832341       104.2833 
 120   0.0000       3.832341       104.2833 
 121   0.0000       3.930163       106.9452 
 122   0.0000       3.997967       108.7902 
 123   0.0000       3.997967       108.7902 
 124   0.0000       4.149729       112.9199 
 125   0.0000       4.458840       121.3312 
 126   0.0000       4.478335       121.8617 
 127   0.0000       4.478335       121.8617 
 128   0.0000       4.776788       129.9830 
 129   0.0000       4.776788       129.9830 
 130   0.0000       5.344194       145.4229 
 131   0.0000       5.401378       146.9790 
 132   0.0000       5.401378       146.9790 
 133   0.0000       8.344620       227.0687 
 134   0.0000       8.344620       227.0687 
 135   0.0000       8.722572       237.3533 
 136   0.0000       8.733971       237.6634 
 137   0.0000       8.733971       237.6634 
 138   0.0000       8.992633       244.7020 
 139   0.0000       8.992633       244.7020 
 140   0.0000       9.442895       256.9542 
 141   0.0000       9.715184       264.3636 
 142   0.0000       9.715184       264.3636 
 143   0.0000      10.094687       274.6904 
 144   0.0000      10.094687       274.6904 
 145   0.0000      10.133603       275.7494 
 146   0.0000      10.765425       292.9421 
 147   0.0000      12.287706       334.3655 
 148   0.0000      12.287706       334.3655 
 149   0.0000      12.517446       340.6170 
 150   0.0000      12.517447       340.6170 
 151   0.0000      12.782283       347.8236 
 152   0.0000      12.782283       347.8236 
 153   0.0000      13.356615       363.4520 
 154   0.0000      16.779319       456.5885 
 155   0.0000      16.779325       456.5887 
 156   0.0000      16.783120       456.6919 
 157   0.0000      16.783120       456.6919 
 158   0.0000      16.913394       460.2368 
 159   0.0000      16.936234       460.8584 
 160   0.0000      16.936235       460.8584 
 161   0.0000      17.361385       472.4273 
 162   0.0000      17.361385       472.4273 
 163   0.0000      19.329564       525.9842 
 164   0.0000      23.221179       631.8804 
 165   0.0000      23.221179       631.8804 
 166   0.0000      23.924175       651.0099 
 167   0.0000      38.613904      1050.7377 
 168   0.0000      90.893372      2473.3344 
 169   0.0000      90.893372      2473.3344 
 170   0.0000      91.409159      2487.3697 

                 SPIN DOWN ORBITALS
  NO   OCC          E(Eh)            E(eV) 
   0   1.0000      -3.877267      -105.5058 
   1   1.0000      -0.294946        -8.0259 
   2   0.0000      -0.088399        -2.4054 
   3   0.0000      -0.050536        -1.3752 
   4   0.0000      -0.050536        -1.3752 
   5   0.0000       0.005788         0.1575 
   6   0.0000       0.024899         0.6775 
   7   0.0000       0.028163         0.7664 
   8   0.0000       0.028163         0.7664 
   9   0.0000       0.040948         1.1143 
  10   0.0000       0.058526         1.5926 
  11   0.0000       0.085308         2.3213 
  12   0.0000       0.085308         2.3213 
  13   0.0000       0.086687         2.3589 
  14   0.0000       0.086687         2.3589 
  15   0.0000       0.103424         2.8143 
  16   0.0000       0.116060         3.1582 
  17   0.0000       0.116060         3.1582 
  18   0.0000       0.117822         3.2061 
  19   0.0000       0.145074         3.9477 
  20   0.0000       0.161145         4.3850 
  21   0.0000       0.170027         4.6267 
  22   0.0000       0.170027         4.6267 
  23   0.0000       0.181127         4.9287 
  24   0.0000       0.181127         4.9287 
  25   0.0000       0.185956         5.0601 
  26   0.0000       0.185956         5.0601 
  27   0.0000       0.225051         6.1240 
  28   0.0000       0.225051         6.1240 
  29   0.0000       0.234957         6.3935 
  30   0.0000       0.247242         6.7278 
  31   0.0000       0.247242         6.7278 
  32   0.0000       0.266590         7.2543 
  33   0.0000       0.303708         8.2643 
  34   0.0000       0.303708         8.2643 
  35   0.0000       0.311972         8.4892 
  36   0.0000       0.311972         8.4892 
  37   0.0000       0.315036         8.5726 
  38   0.0000       0.315036         8.5726 
  39   0.0000       0.317585         8.6419 
  40   0.0000       0.317585         8.6419 
  41   0.0000       0.319070         8.6823 
  42   0.0000       0.319070         8.6823 
  43   0.0000       0.323084         8.7916 
  44   0.0000       0.348882         9.4936 
  45   0.0000       0.368271        10.0212 
  46   0.0000       0.397242        10.8095 
  47   0.0000       0.397242        10.8095 
  48   0.0000       0.418624        11.3914 
  49   0.0000       0.418624        11.3914 
  50   0.0000       0.425005        11.5650 
  51   0.0000       0.449815        12.2401 
  52   0.0000       0.449815        12.2401 
  53   0.0000       0.490991        13.3605 
  54   0.0000       0.490991        13.3605 
  55   0.0000       0.527061        14.3421 
  56   0.0000       0.528212        14.3734 
  57   0.0000       0.528212        14.3734 
  58   0.0000       0.536652        14.6030 
  59   0.0000       0.536652        14.6030 
  60   0.0000       0.573131        15.5957 
  61   0.0000       0.573131        15.5957 
  62   0.0000       0.575223        15.6526 
  63   0.0000       0.579639        15.7728 
  64   0.0000       0.579639        15.7728 
  65   0.0000       0.656793        17.8722 
  66   0.0000       0.656793        17.8722 
  67   0.0000       0.677441        18.4341 
  68   0.0000       0.737411        20.0660 
  69   0.0000       0.737411        20.0660 
  70   0.0000       0.743255        20.2250 
  71   0.0000       0.763055        20.7638 
  72   0.0000       0.824396        22.4330 
  73   0.0000       0.824396        22.4330 
  74   0.0000       1.021379        27.7931 
  75   0.0000       1.021379        27.7931 
  76   0.0000       1.051751        28.6196 
  77   0.0000       1.125434        30.6246 
  78   0.0000       1.125434        30.6246 
  79   0.0000       1.208269        32.8787 
  80   0.0000       1.222756        33.2729 
  81   0.0000       1.222756        33.2729 
  82   0.0000       1.272062        34.6146 
  83   0.0000       1.272062        34.6146 
  84   0.0000       1.303061        35.4581 
  85   0.0000       1.303061        35.4581 
  86   0.0000       1.364803        37.1382 
  87   0.0000       1.484819        40.4040 
  88   0.0000       1.623099        44.1668 
  89   0.0000       1.642008        44.6813 
  90   0.0000       1.642008        44.6813 
  91   0.0000       1.772403        48.2295 
  92   0.0000       1.772403        48.2295 
  93   0.0000       1.857177        50.5363 
  94   0.0000       1.984897        54.0118 
  95   0.0000       2.008320        54.6492 
  96   0.0000       2.008320        54.6492 
  97   0.0000       2.034640        55.3654 
  98   0.0000       2.034640        55.3654 
  99   0.0000       2.727965        74.2317 
 100   0.0000       2.794058        76.0302 
 101   0.0000       2.794058        76.0302 
 102   0.0000       2.925508        79.6071 
 103   0.0000       2.925508        79.6071 
 104   0.0000       3.330994        90.6410 
 105   0.0000       3.365680        91.5848 
 106   0.0000       3.365680        91.5848 
 107   0.0000       3.386725        92.1575 
 108   0.0000       3.386725        92.1575 
 109   0.0000       3.396449        92.4221 
 110   0.0000       3.396449        92.4221 
 111   0.0000       3.466911        94.3394 
 112   0.0000       3.466911        94.3394 
 113   0.0000       3.515589        95.6640 
 114   0.0000       3.709694       100.9459 
 115   0.0000       3.709694       100.9459 
 116   0.0000       3.787251       103.0563 
 117   0.0000       3.787251       103.0563 
 118   0.0000       3.803913       103.5097 
 119   0.0000       3.883662       105.6798 
 120   0.0000       3.883662       105.6798 
 121   0.0000       3.962792       107.8331 
 122   0.0000       4.038407       109.8906 
 123   0.0000       4.038407       109.8906 
 124   0.0000       4.173516       113.5672 
 125   0.0000       4.509718       122.7157 
 126   0.0000       4.521499       123.0363 
 127   0.0000       4.521499       123.0363 
 128   0.0000       4.812340       130.9504 
 129   0.0000       4.812340       130.9504 
 130   0.0000       5.369806       146.1199 
 131   0.0000       5.422920       147.5651 
 132   0.0000       5.422920       147.5651 
 133   0.0000       8.363959       227.5949 
 134   0.0000       8.363959       227.5949 
 135   0.0000       8.743061       237.9108 
 136   0.0000       8.753187       238.1863 
 137   0.0000       8.753187       238.1863 
 138   0.0000       9.012237       245.2354 
 139   0.0000       9.012237       245.2354 
 140   0.0000       9.466809       257.6050 
 141   0.0000       9.727218       264.6911 
 142   0.0000       9.727218       264.6911 
 143   0.0000      10.117475       275.3105 
 144   0.0000      10.117475       275.3105 
 145   0.0000      10.158201       276.4187 
 146   0.0000      10.788467       293.5691 
 147   0.0000      12.307020       334.8910 
 148   0.0000      12.307020       334.8910 
 149   0.0000      12.536965       341.1482 
 150   0.0000      12.536966       341.1482 
 151   0.0000      12.802151       348.3643 
 152   0.0000      12.802151       348.3643 
 153   0.0000      13.376888       364.0036 
 154   0.0000      16.799283       457.1317 
 155   0.0000      16.799289       457.1319 
 156   0.0000      16.803316       457.2415 
 157   0.0000      16.803316       457.2415 
 158   0.0000      16.934306       460.8059 
 159   0.0000      16.957087       461.4258 
 160   0.0000      16.957087       461.4258 
 161   0.0000      17.383043       473.0166 
 162   0.0000      17.383043       473.0166 
 163   0.0000      19.343342       526.3591 
 164   0.0000      23.246420       632.5673 
 165   0.0000      23.246420       632.5673 
 166   0.0000      23.949702       651.7045 
 167   0.0000      38.634689      1051.3033 
 168   0.0000      90.918923      2474.0297 
 169   0.0000      90.918923      2474.0297 
 170   0.0000      91.434623      2488.0626 

                    ********************************
                    * MULLIKEN POPULATION ANALYSIS *
                    ********************************

--------------------------------------------
MULLIKEN ATOMIC CHARGES AND SPIN POPULATIONS
--------------------------------------------
   0 H :   -0.170271    0.098068
   1 Be:    0.170271    0.901932
Sum of atomic charges         :   -0.0000000
Sum of atomic spin populations:    1.0000000

-----------------------------------------------------
MULLIKEN REDUCED ORBITAL CHARGES AND SPIN POPULATIONS
-----------------------------------------------------
CHARGE
  0 H s       :     1.152884  s :     1.152884
      pz      :    -0.001153  p :    -0.001153
      px      :    -0.000000
      py      :    -0.000000
      dz2     :     0.014387  d :     0.014387
      dxz     :    -0.000000
      dyz     :    -0.000000
      dx2y2   :    -0.000000
      dxy     :    -0.000000
      f0      :     0.003803  f :     0.003803
      f+1     :    -0.000000
      f-1     :     0.000000
      f+2     :     0.000000
      f-2     :     0.000000
      f+3     :    -0.000000
      f-3     :    -0.000000
      g0      :     0.000350  g :     0.000350
      g+1     :    -0.000000
      g-1     :     0.000000
      g+2     :    -0.000000
      g-2     :    -0.000000
      g+3     :    -0.000000
      g-3     :    -0.000000
      g+4     :     0.000000
      g-4     :     0.000000
  1 Bes       :     3.203232  s :     3.203232
      pz      :     0.613039  p :     0.613039
      px      :     0.000000
      py      :     0.000000
      dz2     :     0.011173  d :     0.011173
      dxz     :     0.000000
      dyz     :     0.000000
      dx2y2   :     0.000000
      dxy     :    -0.000000
      f0      :     0.001980  f :     0.001980
      f+1     :     0.000000
      f-1     :     0.000000
      f+2     :     0.000000
      f-2     :     0.000000
      f+3     :     0.000000
      f-3     :     0.000000
      g0      :     0.000306  g :     0.000306
      g+1     :    -0.000000
      g-1     :    -0.000000
      g+2     :     0.000000
      g-2     :     0.000000
      g+3     :     0.000000
      g-3     :     0.000000
      g+4     :     0.000000
      g-4     :     0.000000

SPIN
  0 H s       :     0.088804  s :     0.088804
      pz      :    -0.008271  p :    -0.008271
      px      :    -0.000000
      py      :    -0.000000
      dz2     :     0.013737  d :     0.013737
      dxz     :    -0.000000
      dyz     :    -0.000000
      dx2y2   :     0.000000
      dxy     :     0.000000
      f0      :     0.003449  f :     0.003449
      f+1     :    -0.000000
      f-1     :    -0.000000
      f+2     :    -0.000000
      f-2     :    -0.000000
      f+3     :    -0.000000
      f-3     :    -0.000000
      g0      :     0.000349  g :     0.000349
      g+1     :     0.000000
      g-1     :     0.000000
      g+2     :    -0.000000
      g-2     :    -0.000000
      g+3     :    -0.000000
      g-3     :    -0.000000
      g+4     :    -0.000000
      g-4     :     0.000000
  1 Bes       :     0.560812  s :     0.560812
      pz      :     0.341662  p :     0.341662
      px      :     0.000000
      py      :     0.000000
      dz2     :    -0.001687  d :    -0.001687
      dxz     :    -0.000000
      dyz     :     0.000000
      dx2y2   :     0.000000
      dxy     :     0.000000
      f0      :     0.000978  f :     0.000978
      f+1     :     0.000000
      f-1     :     0.000000
      f+2     :    -0.000000
      f-2     :     0.000000
      f+3     :     0.000000
      f-3     :     0.000000
      g0      :     0.000167  g :     0.000167
      g+1     :    -0.000000
      g-1     :    -0.000000
      g+2     :     0.000000
      g-2     :     0.000000
      g+3     :     0.000000
      g-3     :     0.000000
      g+4     :     0.000000
      g-4     :     0.000000


                     *******************************
                     * LOEWDIN POPULATION ANALYSIS *
                     *******************************

-------------------------------------------
LOEWDIN ATOMIC CHARGES AND SPIN POPULATIONS
-------------------------------------------
   0 H :   -0.400784    0.258004
   1 Be:    0.400784    0.741996

----------------------------------------------------
LOEWDIN REDUCED ORBITAL CHARGES AND SPIN POPULATIONS
----------------------------------------------------
CHARGE
  0 H s       :     1.140365  s :     1.140365
      pz      :     0.168620  p :     0.168620
      px      :     0.000000
      py      :     0.000000
      dz2     :     0.069814  d :     0.069814
      dxz     :     0.000000
      dyz     :     0.000000
      dx2y2   :     0.000000
      dxy     :     0.000000
      f0      :     0.018045  f :     0.018045
      f+1     :     0.000000
      f-1     :     0.000000
      f+2     :     0.000000
      f-2     :     0.000000
      f+3     :     0.000000
      f-3     :     0.000000
      g0      :     0.003940  g :     0.003940
      g+1     :     0.000000
      g-1     :     0.000000
      g+2     :     0.000000
      g-2     :     0.000000
      g+3     :     0.000000
      g-3     :     0.000000
      g+4     :     0.000000
      g-4     :     0.000000
  1 Bes       :     2.841929  s :     2.841929
      pz      :     0.708092  p :     0.708092
      px      :     0.000000
      py      :     0.000000
      dz2     :     0.038138  d :     0.038138
      dxz     :     0.000000
      dyz     :     0.000000
      dx2y2   :     0.000000
      dxy     :     0.000000
      f0      :     0.010062  f :     0.010062
      f+1     :     0.000000
      f-1     :     0.000000
      f+2     :     0.000000
      f-2     :     0.000000
      f+3     :     0.000000
      f-3     :     0.000000
      g0      :     0.000996  g :     0.000996
      g+1     :     0.000000
      g-1     :     0.000000
      g+2     :     0.000000
      g-2     :     0.000000
      g+3     :     0.000000
      g-3     :     0.000000
      g+4     :     0.000000
      g-4     :     0.000000

SPIN
  0 H s       :     0.081366  s :     0.081366
      pz      :     0.112358  p :     0.112358
      px      :     0.000000
      py      :     0.000000
      dz2     :     0.048839  d :     0.048839
      dxz     :     0.000000
      dyz     :     0.000000
      dx2y2   :     0.000000
      dxy     :     0.000000
      f0      :     0.012993  f :     0.012993
      f+1     :     0.000000
      f-1     :     0.000000
      f+2     :    -0.000000
      f-2     :    -0.000000
      f+3     :     0.000000
      f-3     :     0.000000
      g0      :     0.002448  g :     0.002448
      g+1     :    -0.000000
      g-1     :     0.000000
      g+2     :     0.000000
      g-2     :     0.000000
      g+3     :     0.000000
      g-3     :     0.000000
      g+4     :    -0.000000
      g-4     :     0.000000
  1 Bes       :     0.325242  s :     0.325242
      pz      :     0.407914  p :     0.407914
      px      :     0.000000
      py      :     0.000000
      dz2     :     0.006289  d :     0.006289
      dxz     :    -0.000000
      dyz     :     0.000000
      dx2y2   :    -0.000000
      dxy     :     0.000000
      f0      :     0.002383  f :     0.002383
      f+1     :     0.000000
      f-1     :     0.000000
      f+2     :     0.000000
      f-2     :     0.000000
      f+3     :     0.000000
      f-3     :     0.000000
      g0      :     0.000168  g :     0.000168
      g+1     :    -0.000000
      g-1     :     0.000000
      g+2     :     0.000000
      g-2     :     0.000000
      g+3     :     0.000000
      g-3     :     0.000000
      g+4     :     0.000000
      g-4     :     0.000000


                      *****************************
                      * MAYER POPULATION ANALYSIS *
                      *****************************

  NA   - Mulliken gross atomic population
  ZA   - Total nuclear charge
  QA   - Mulliken gross atomic charge
  VA   - Mayer's total valence
  BVA  - Mayer's bonded valence
  FA   - Mayer's free valence

  ATOM       NA         ZA         QA         VA         BVA        FA
  0 H      1.1703     1.0000    -0.1703     0.9077     0.9127    -0.0050
  1 Be     3.8297     4.0000     0.1703     1.8326     0.9127     0.9199

  Mayer bond orders larger than 0.1
B(  0-H ,  1-Be) :   0.9127 

-------
TIMINGS
-------

Total SCF time: 0 days 0 hours 2 min 5 sec 

Total time                  ....     125.196 sec
Sum of individual times     ....     124.841 sec  ( 99.7%)

Fock matrix formation       ....     122.488 sec  ( 97.8%)
  XC integration            ....      18.090 sec  ( 14.8% of F)
    Basis function eval.    ....       2.202 sec  ( 12.2% of XC)
    Density eval.           ....       3.578 sec  ( 19.8% of XC)
    XC-Functional eval.     ....       0.581 sec  (  3.2% of XC)
    XC-Potential eval.      ....      11.359 sec  ( 62.8% of XC)
Diagonalization             ....       0.167 sec  (  0.1%)
Density matrix formation    ....       0.004 sec  (  0.0%)
Population analysis         ....       0.031 sec  (  0.0%)
Initial guess               ....       0.953 sec  (  0.8%)
Orbital Transformation      ....       0.000 sec  (  0.0%)
Orbital Orthonormalization  ....       0.000 sec  (  0.0%)
DIIS solution               ....       0.104 sec  (  0.1%)
Grid generation             ....       1.094 sec  (  0.9%)

-------------------------   --------------------
FINAL SINGLE POINT ENERGY       -15.218463123402
-------------------------   --------------------


                            ***************************************
                            *     ORCA property calculations      *
                            ***************************************

                                    ---------------------
                                    Active property flags
                                    ---------------------
   (+) Dipole Moment
   (+) Polarizability


------------------------------------------------------------------------------
                       ORCA ELECTRIC PROPERTIES CALCULATION
------------------------------------------------------------------------------

Dipole Moment Calculation                       ... on
Quadrupole Moment Calculation                   ... off
Polarizability Calculation                      ... Analytic (CP-SCF)
GBWName                                         ... beh_pbe.gbw
Electron density file                           ... beh_pbe.scfp.tmp
The origin for moment calculation is the CENTER OF MASS  = ( 0.000000,  0.000000  2.281912)

-------------
DIPOLE MOMENT
-------------
                                X             Y             Z
Electronic contribution:     -0.00000      -0.00000       1.35677
Nuclear contribution   :      0.00000       0.00000      -1.26098
                        -----------------------------------------
Total Dipole Moment    :     -0.00000      -0.00000       0.09579
                        -----------------------------------------
Magnitude (a.u.)       :      0.09579
Magnitude (Debye)      :      0.24349



--------------------
Rotational spectrum 
--------------------
 
Rotational constants in cm-1:     0.000000    10.315484    10.315484 
Rotational constants in MHz :     0.000000 309250.438866 309250.438866 

 Dipole components along the rotational axes: 
x,y,z [a.u.] :     0.095794    -0.000000    -0.000000 
x,y,z [Debye]:     0.243489    -0.000000    -0.000000 

 
Transforming and storing MO dipole integrals   ... done

                ... starting polarizability calculation

Opening the Dipole integral file               ... (beh_pbe.dmo.tmp) done
Reading Dipole-MO integrals                    ... done
Solving CP-SCF equations                       ... 
------------------------------------------------------------------------------
                           ORCA CP-SCF CALCULATION
------------------------------------------------------------------------------

Input orbitals are from        ... beh_pbe.gbw
Input Perturbation             ... beh_pbe.cpv.tmp
Wavefunction output            ... beh_pbe.cpu.tmp
Perturbation mode              ... Real perturbation (singlet)
Solver                         ... POPLE
Max. number of iterations      ... 200
Convergence tolerance          ... 1.000e-06
Integral handling              ... Direct
Number of perturbations        ... 3
Number of operators            ... 2
Orbital ranges used for CP-SCF:
 Operator 0:  Orbitals   0...  2  to   3...170
 Operator 1:  Orbitals   0...  1  to   2...170
DFT calculation                         ... on
Exchange functional (SCF)               ... PBE
Exchange functional (CP-SCF)            ... PBE
   PBE kappa parameter  XKappa (SCF)    ...  0.804000
   PBE kappa parameter  XKappa (CP-SCF) ...  0.804000
   PBE mue parameter   XMuePBE (SCF)    ...  0.219520
   PBE mue parameter   XMuePBE (CP-SCF) ...  0.219520
Correlation functional (SCF)            ... PBE
Correlation functional (CP-SCF)         ... PBE
   PBE beta parameter CBetaPBE (SCF)    ...  0.066725
   PBE beta parameter CBetaPBE (CP-SCF) ...  0.066725
 LDA part of GGA corr.  LDAOpt (SCF)    ... PW91-LDA
 LDA part of GGA corr.  LDAOpt (CP-SCF) ... PW91-LDA
Variables per vector in CP-SCF ... 842
Number of vectors sought       ... 3
Recalculating density on grid  ... done
Calculating the xc-kernel      ... done
     CP-SCF ITERATION   0: 
     CP-SCF ITERATION   1:      0.033702844728
     CP-SCF ITERATION   2:      0.000926462536
     CP-SCF ITERATION   3:      0.000023895623
     CP-SCF ITERATION   4:      0.000000535240
done
Reading CP-SCF coefficients                    ... done
Doing the polarizability tensor   ... done
Cleaning up                                    ... done

-------------------------
THE POLARIZABILITY TENSOR
-------------------------

The raw cartesian tensor (atomic units):
   38.26665      0.00000     -0.00000  
    0.00000     38.26665     -0.00000  
   -0.00000     -0.00000     28.91945  
diagonalized tensor: 
   28.91945     38.26665     38.26665  

    0.00000     -0.72317     -0.69067  
    0.00000      0.69067     -0.72317  
    1.00000      0.00000      0.00000  

Isotropic polarizability :  35.15091


Timings for individual modules:

Sum of individual times         ...      219.085 sec (=   3.651 min)
GTO integral calculation        ...        0.465 sec (=   0.008 min)   0.2 %
SCF iterations                  ...      125.227 sec (=   2.087 min)  57.2 %
Solution of CP-SCF eqns.        ...       93.394 sec (=   1.557 min)  42.6 %
                             ****ORCA TERMINATED NORMALLY****
TOTAL RUN TIME: 0 days 0 hours 3 minutes 39 seconds 416 msec
