
                                 *****************
                                 * O   R   C   A *
                                 *****************

           --- An Ab Initio, DFT and Semiempirical electronic structure package ---

                  #######################################################
                  #                        -***-                        #
                  #          Department of theory and spectroscopy      #
                  #               Directorship: Frank Neese             #
                  #        Max Planck Institute fuer Kohlenforschung    #
                  #                Kaiser Wilhelm Platz 1               #
                  #                 D-45470 Muelheim/Ruhr               #
                  #                      Germany                        #
                  #                                                     #
                  #                  All rights reserved                #
                  #                        -***-                        #
                  #######################################################


                         Program Version 4.1.2  - RELEASE  -


 With contributions from (in alphabetic order):
   Daniel Aravena         : Magnetic Properties
   Michael Atanasov       : Ab Initio Ligand Field Theory
   Alexander A. Auer      : GIAO ZORA
   Ute Becker             : Parallelization
   Giovanni Bistoni       : ED, Open-shell LED
   Martin Brehm           : Molecular dynamics
   Dmytro Bykov           : SCF Hessian
   Vijay G. Chilkuri      : MRCI spin determinant printing
   Dipayan Datta          : RHF DLPNO-CCSD density
   Achintya Kumar Dutta   : EOM-CC, STEOM-CC
   Dmitry Ganyushin       : Spin-Orbit,Spin-Spin,Magnetic field MRCI
   Miquel Garcia          : C-PCM Hessian
   Yang Guo               : DLPNO-NEVPT2, CIM, IAO-localization
   Andreas Hansen         : Spin unrestricted coupled pair/coupled cluster methods
   Benjamin Helmich-Paris : CASSCF linear response (MC-RPA)
   Lee Huntington         : MR-EOM, pCC
   Robert Izsak           : Overlap fitted RIJCOSX, COSX-SCS-MP3, EOM
   Christian Kollmar      : KDIIS, OOCD, Brueckner-CCSD(T), CCSD density
   Simone Kossmann        : Meta GGA functionals, TD-DFT gradient, OOMP2, MP2 Hessian
   Martin Krupicka        : AUTO-CI
   Lucas Lang             : DCDCAS
   Dagmar Lenk            : GEPOL surface, SMD
   Dimitrios Liakos       : Extrapolation schemes; parallel MDCI
   Dimitrios Manganas     : ROCIS; embedding schemes
   Dimitrios Pantazis     : SARC Basis sets
   Taras Petrenko         : DFT Hessian,TD-DFT gradient, ASA, ECA, R-Raman, ABS, FL, XAS/XES, NRVS
   Peter Pinski           : DLPNO-MP2, DLPNO-MP2 Gradient
   Christoph Reimann      : Effective Core Potentials
   Marius Retegan         : Local ZFS, SOC
   Christoph Riplinger    : Optimizer, TS searches, QM/MM, DLPNO-CCSD(T), (RO)-DLPNO pert. Triples
   Tobias Risthaus        : Range-separated hybrids, TD-DFT gradient, RPA, STAB
   Michael Roemelt        : Restricted open shell CIS
   Masaaki Saitow         : Open-shell DLPNO
   Barbara Sandhoefer     : DKH picture change effects
   Avijit Sen             : IP-ROCIS
   Kantharuban Sivalingam : CASSCF convergence, NEVPT2, FIC-MRCI
   Bernardo de Souza      : ESD, SOC TD-DFT
   Georgi Stoychev        : AutoAux, RI-MP2 NMR
   Willem Van den Heuvel  : Paramagnetic NMR
   Boris Wezisla          : Elementary symmetry handling
   Frank Wennmohs         : Technical directorship


 We gratefully acknowledge several colleagues who have allowed us to
 interface, adapt or use parts of their codes:
   Stefan Grimme, W. Hujo, H. Kruse,             : VdW corrections, initial TS optimization,
                  C. Bannwarth                     DFT functionals, gCP, sTDA/sTD-DF
   Ed Valeev                                     : LibInt (2-el integral package), F12 methods
   Garnet Chan, S. Sharma, J. Yang, R. Olivares  : DMRG
   Ulf Ekstrom                                   : XCFun DFT Library
   Mihaly Kallay                                 : mrcc  (arbitrary order and MRCC methods)
   Andreas Klamt, Michael Diedenhofen            : otool_cosmo (COSMO solvation model)
   Jiri Pittner, Ondrej Demel                    : Mk-CCSD
   Frank Weinhold                                : gennbo (NPA and NBO analysis)
   Christopher J. Cramer and Donald G. Truhlar   : smd solvation model
   Lars Goerigk                                  : TD-DFT with DH, B97 family of functionals
   V. Asgeirsson, H. Jonsson                     : NEB implementation
   FAccTs GmbH                                   : IRC, NEB, NEB-TS, Multilevel


 Your calculation uses the libint2 library for the computation of 2-el integrals
 For citations please refer to: http://libint.valeyev.net

 This ORCA versions uses:
   CBLAS   interface :  Fast vector & matrix operations
   LAPACKE interface :  Fast linear algebra routines
   SCALAPACK package :  Parallel linear algebra routines


----- Orbital basis set information -----
Your calculation utilizes the basis: aug-pc-4
   H, C-F              : F. Jensen, J. Chem. Phys. 115, 9113 (2001).
                         F. Jensen, J. Chem. Phys. 116, 7372 (2002).
                         F. Jensen, J. Chem. Phys. 117, 9234 (2002).
   Si-Cl               : F. Jensen, T. Helgaker, J. Chem. Phys. 121, 3463 (2004).
   He-B, Ne-Mg, Al, Ar : F. Jensen, J. Phys. Chem. A 111, 11198 (2007).
   K, Ca, Ga-Kr        : F. Jensen, J. Chem. Phys. 136, 094110 (2012).
   Sc-Zn               : F. Jensen, J. Chem. Phys. 138, 014107 (2013).

================================================================================
                                        WARNINGS
                       Please study these warnings very carefully!
================================================================================


INFO   : the flag for use of LIBINT has been found!

================================================================================
                                       INPUT FILE
================================================================================
NAME = bf_pbe.inp
|  1> !uks pbe nori aug-pc-4 grid7 nofinalgrid verytightscf
|  2> 
|  3> %maxcore 1500
|  4> 
|  5> %pal nprocs 1 end
|  6> 
|  7> %scf
|  8> 	maxiter 200
|  9> end
| 10> %elprop
| 11> 	dipole true
| 12> 	 polar 1
| 13> 	 maxiter 200
| 14> end
| 15> 
| 16> * xyz 0 1
| 17> B 0.0000 0.0000 0.0000
| 18> F 0.0000 0.0000 1.2669
| 19> *
| 20> 
| 21>                          ****END OF INPUT****
================================================================================

                       ****************************
                       * Single Point Calculation *
                       ****************************

---------------------------------
CARTESIAN COORDINATES (ANGSTROEM)
---------------------------------
  B      0.000000    0.000000    0.000000
  F      0.000000    0.000000    1.266900

----------------------------
CARTESIAN COORDINATES (A.U.)
----------------------------
  NO LB      ZA    FRAG     MASS         X           Y           Z
   0 B     5.0000    0    10.810    0.000000    0.000000    0.000000
   1 F     9.0000    0    18.998    0.000000    0.000000    2.394094

--------------------------------
INTERNAL COORDINATES (ANGSTROEM)
--------------------------------
 B      0   0   0     0.000000000000     0.00000000     0.00000000
 F      1   0   0     1.266900000000     0.00000000     0.00000000

---------------------------
INTERNAL COORDINATES (A.U.)
---------------------------
 B      0   0   0     0.000000000000     0.00000000     0.00000000
 F      1   0   0     2.394094039065     0.00000000     0.00000000

---------------------
BASIS SET INFORMATION
---------------------
There are 2 groups of distinct atoms

 Group   1 Type B   : 27s12p7d4f3g2h contracted to 9s8p7d4f3g2h pattern {1191111111/51111111/1111111/1111/111/11}
 Group   2 Type F   : 27s12p7d4f3g2h contracted to 9s8p7d4f3g2h pattern {1191111111/51111111/1111111/1111/111/11}

Atom   0B    basis set group =>   1
Atom   1F    basis set group =>   2
------------------------------------------------------------------------------
                           ORCA GTO INTEGRAL CALCULATION
------------------------------------------------------------------------------

                         BASIS SET STATISTICS AND STARTUP INFO

 # of primitive gaussian shells          ...  110
 # of primitive gaussian functions       ...  350
 # of contracted shells                  ...   66
 # of contracted basis functions         ...  290
 Highest angular momentum                ...    5
 Maximum contraction depth               ...   11
 Integral package used                   ... LIBINT
 Integral threshhold            Thresh   ...  1.000e-12
 Primitive cut-off              TCut     ...  1.000e-14


------------------------------ INTEGRAL EVALUATION ----------------------------


 * One electron integrals 
 Pre-screening matrix                    ... done
 Shell pair data                         ... done (   0.001 sec)

-------------------------------------------------------------------------------
                                 ORCA SCF
-------------------------------------------------------------------------------

------------
SCF SETTINGS
------------
Hamiltonian:
 Density Functional     Method          .... DFT(GTOs)
 Exchange Functional    Exchange        .... PBE
   PBE kappa parameter   XKappa         ....  0.804000
   PBE mue parameter    XMuePBE         ....  0.219520
 Correlation Functional Correlation     .... PBE
   PBE beta parameter  CBetaPBE         ....  0.066725
 LDA part of GGA corr.  LDAOpt          .... PW91-LDA
 Gradients option       PostSCFGGA      .... off
   Density functional embedding theory  .... OFF
   NL short-range parameter             ....  6.400000


General Settings:
 Integral files         IntName         .... bf_pbe
 Hartree-Fock type      HFTyp           .... UHF
 Total Charge           Charge          ....    0
 Multiplicity           Mult            ....    1
 Number of Electrons    NEL             ....   14
 Basis Dimension        Dim             ....  290
 Nuclear Repulsion      ENuc            ....     18.7962541428 Eh

Convergence Acceleration:
 DIIS                   CNVDIIS         .... on
   Start iteration      DIISMaxIt       ....    12
   Startup error        DIISStart       ....  0.200000
   # of expansion vecs  DIISMaxEq       ....     5
   Bias factor          DIISBfac        ....   1.050
   Max. coefficient     DIISMaxC        ....  10.000
 Newton-Raphson         CNVNR           .... off
 SOSCF                  CNVSOSCF        .... off
 Level Shifting         CNVShift        .... on
   Level shift para.    LevelShift      ....    0.2500
   Turn off err/grad.   ShiftErr        ....    0.0010
 Zerner damping         CNVZerner       .... off
 Static damping         CNVDamp         .... on
   Fraction old density DampFac         ....    0.7000
   Max. Damping (<1)    DampMax         ....    0.9800
   Min. Damping (>=0)   DampMin         ....    0.0000
   Turn off err/grad.   DampErr         ....    0.1000
 Fernandez-Rico         CNVRico         .... off

SCF Procedure:
 Maximum # iterations   MaxIter         ....   200
 SCF integral mode      SCFMode         .... Direct
   Integral package                     .... LIBINT
 Reset frequency        DirectResetFreq ....    20
 Integral Threshold     Thresh          ....  1.000e-12 Eh
 Primitive CutOff       TCut            ....  1.000e-14 Eh

Convergence Tolerance:
 Convergence Check Mode ConvCheckMode   .... Total+1el-Energy
 Convergence forced     ConvForced      .... 0
 Energy Change          TolE            ....  1.000e-09 Eh
 1-El. energy change                    ....  1.000e-06 Eh
 DIIS Error             TolErr          ....  1.000e-08


Diagonalization of the overlap matrix:
Smallest eigenvalue                        ... 2.876e-06
Time for diagonalization                   ...    0.016 sec
Threshold for overlap eigenvalues          ... 1.000e-08
Number of eigenvalues below threshold      ... 0
Time for construction of square roots      ...    0.011 sec
Total time needed                          ...    0.028 sec

-------------------
DFT GRID GENERATION
-------------------

General Integration Accuracy     IntAcc      ...  5.670
Radial Grid Type                 RadialGrid  ... Gauss-Chebyshev
Angular Grid (max. acc.)         AngularGrid ... Lebedev-770
Angular grid pruning method      GridPruning ... 3 (G Style)
Weight generation scheme         WeightScheme... Becke
Basis function cutoff            BFCut       ...    1.0000e-12
Integration weight cutoff        WCut        ...    1.0000e-14
Grids for H and He will be reduced by one unit

# of grid points (after initial pruning)     ...  50380 (   0.0 sec)
# of grid points (after weights+screening)   ...  50178 (   0.0 sec)
nearest neighbour list constructed           ...    0.0 sec
Grid point re-assignment to atoms done       ...    0.0 sec
Grid point division into batches done        ...    1.2 sec
Reduced shell lists constructed in    1.7 sec

Total number of grid points                  ...    50178
Total number of batches                      ...      785
Average number of points per batch           ...       63
Average number of grid points per atom       ...    25089
Average number of shells per batch           ...    48.68 (73.76%)
Average number of basis functions per batch  ...   222.22 (76.63%)
Average number of large shells per batch     ...    44.23 (90.86%)
Average number of large basis fcns per batch ...   202.89 (91.30%)
Maximum spatial batch extension              ...  24.06, 24.06, 18.81 au
Average spatial batch extension              ...   3.03,  3.02,  2.72 au

Time for grid setup =    1.693 sec

------------------------------
INITIAL GUESS: MODEL POTENTIAL
------------------------------
Loading Hartree-Fock densities                     ... done
Calculating cut-offs                               ... done
Setting up the integral package                    ... done
Initializing the effective Hamiltonian             ... done
Starting the Coulomb interaction                   ... done (   0.0 sec)
Reading the grid                                   ... done
Mapping shells                                     ... done
Starting the XC term evaluation                    ... done (   2.2 sec)
  promolecular density results
     # of electrons  =     14.000002130
     EX              =    -13.719772878
     EC              =     -0.438632607
     EX+EC           =    -14.158405485
Transforming the Hamiltonian                       ... done (   0.0 sec)
Diagonalizing the Hamiltonian                      ... done (   0.0 sec)
Back transforming the eigenvectors                 ... done (   0.0 sec)
Now organizing SCF variables                       ... done
                      ------------------
                      INITIAL GUESS DONE (   4.1 sec)
                      ------------------
--------------
SCF ITERATIONS
--------------
ITER       Energy         Delta-E        Max-DP      RMS-DP      [F,P]     Damp
               ***  Starting incremental Fock matrix formation  ***
  0   -124.5735408820   0.000000000000 0.00592158  0.00007976  0.1284051 0.7000
  1   -124.5795746688  -0.006033786892 0.00543881  0.00005536  0.0381200 0.7000
                               ***Turning on DIIS***
  2   -124.5814989770  -0.001924308118 0.01282237  0.00011939  0.0163040 0.0000
  3   -124.5860204904  -0.004521513458 0.00707663  0.00006563  0.0138315 0.0000
  4   -124.5861343475  -0.000113857031 0.00253852  0.00002216  0.0118959 0.0000
  5   -124.5862533828  -0.000119035312 0.00062359  0.00000598  0.0023985 0.0000
  6   -124.5862623880  -0.000009005191 0.00120702  0.00001059  0.0003805 0.0000
  7   -124.5862628997  -0.000000511734 0.00006873  0.00000057  0.0000788 0.0000
  8   -124.5862629130  -0.000000013329 0.00001157  0.00000010  0.0000111 0.0000
  9   -124.5862629132  -0.000000000170 0.00000222  0.00000002  0.0000030 0.0000
 10   -124.5862629132  -0.000000000014 0.00001289  0.00000012  0.0000003 0.0000
 11   -124.5862629132  -0.000000000002 0.00001782  0.00000017  0.0000001 0.0000
                 **** Energy Check signals convergence ****

               *****************************************************
               *                     SUCCESS                       *
               *           SCF CONVERGED AFTER  12 CYCLES          *
               *****************************************************


----------------
TOTAL SCF ENERGY
----------------

Total Energy       :         -124.58626291 Eh           -3390.16457 eV

Components:
Nuclear Repulsion  :           18.79625414 Eh             511.47208 eV
Electronic Energy  :         -143.38251706 Eh           -3901.63664 eV
One Electron Energy:         -208.72349128 Eh           -5679.65495 eV
Two Electron Energy:           65.34097422 Eh            1778.01830 eV

Virial components:
Potential Energy   :         -248.80581827 Eh           -6770.35051 eV
Kinetic Energy     :          124.21955536 Eh            3380.18595 eV
Virial Ratio       :            2.00295209


DFT components:
N(Alpha)           :        7.000000224258 electrons
N(Beta)            :        7.000000224258 electrons
N(Total)           :       14.000000448517 electrons
E(X)               :      -13.842595079423 Eh       
E(C)               :       -0.441274650315 Eh       
E(XC)              :      -14.283869729737 Eh       
DFET-embed. en.    :        0.000000000000 Eh       

---------------
SCF CONVERGENCE
---------------

  Last Energy change         ...    1.8900e-12  Tolerance :   1.0000e-09
  Last MAX-Density change    ...    1.9128e-05  Tolerance :   1.0000e-08
  Last RMS-Density change    ...    1.8581e-07  Tolerance :   1.0000e-09
  Last DIIS Error            ...    4.2901e-08  Tolerance :   1.0000e-08

             **** THE GBW FILE WAS UPDATED (bf_pbe.gbw) ****
             **** DENSITY FILE WAS UPDATED (bf_pbe.scfp.tmp) ****
             **** ENERGY FILE WAS UPDATED (bf_pbe.en.tmp) ****
----------------------
UHF SPIN CONTAMINATION
----------------------

Warning: in a DFT calculation there is little theoretical justification to 
         calculate <S**2> as in Hartree-Fock theory. We will do it anyways
         but you should keep in mind that the values have only limited relevance

Expectation value of <S**2>     :     0.000000
Ideal value S*(S+1) for S=0.0   :     0.000000
Deviation                       :     0.000000

----------------
ORBITAL ENERGIES
----------------
                 SPIN UP ORBITALS
  NO   OCC          E(Eh)            E(eV) 
   0   1.0000     -24.346400      -662.4992 
   1   1.0000      -6.615308      -180.0117 
   2   1.0000      -1.198232       -32.6056 
   3   1.0000      -0.559028       -15.2119 
   4   1.0000      -0.474171       -12.9028 
   5   1.0000      -0.474171       -12.9028 
   6   1.0000      -0.249607        -6.7922 
   7   0.0000      -0.079393        -2.1604 
   8   0.0000      -0.079393        -2.1604 
   9   0.0000      -0.004320        -0.1176 
  10   0.0000       0.013778         0.3749 
  11   0.0000       0.015025         0.4089 
  12   0.0000       0.015025         0.4089 
  13   0.0000       0.043924         1.1952 
  14   0.0000       0.054603         1.4858 
  15   0.0000       0.054603         1.4858 
  16   0.0000       0.057959         1.5771 
  17   0.0000       0.062040         1.6882 
  18   0.0000       0.062040         1.6882 
  19   0.0000       0.066191         1.8011 
  20   0.0000       0.066191         1.8011 
  21   0.0000       0.095602         2.6015 
  22   0.0000       0.103292         2.8107 
  23   0.0000       0.103292         2.8107 
  24   0.0000       0.121349         3.3021 
  25   0.0000       0.140578         3.8253 
  26   0.0000       0.140578         3.8253 
  27   0.0000       0.146952         3.9988 
  28   0.0000       0.149488         4.0678 
  29   0.0000       0.149488         4.0678 
  30   0.0000       0.168350         4.5810 
  31   0.0000       0.168350         4.5810 
  32   0.0000       0.176476         4.8022 
  33   0.0000       0.180269         4.9054 
  34   0.0000       0.180269         4.9054 
  35   0.0000       0.187990         5.1155 
  36   0.0000       0.187990         5.1155 
  37   0.0000       0.207237         5.6392 
  38   0.0000       0.227150         6.1811 
  39   0.0000       0.227150         6.1811 
  40   0.0000       0.228162         6.2086 
  41   0.0000       0.239167         6.5081 
  42   0.0000       0.239167         6.5081 
  43   0.0000       0.247046         6.7225 
  44   0.0000       0.247046         6.7225 
  45   0.0000       0.250785         6.8242 
  46   0.0000       0.250785         6.8242 
  47   0.0000       0.257741         7.0135 
  48   0.0000       0.257741         7.0135 
  49   0.0000       0.313984         8.5439 
  50   0.0000       0.348472         9.4824 
  51   0.0000       0.359538         9.7835 
  52   0.0000       0.359538         9.7835 
  53   0.0000       0.363418         9.8891 
  54   0.0000       0.363418         9.8891 
  55   0.0000       0.366600         9.9757 
  56   0.0000       0.366600         9.9757 
  57   0.0000       0.366768         9.9803 
  58   0.0000       0.366768         9.9803 
  59   0.0000       0.369859        10.0644 
  60   0.0000       0.370512        10.0821 
  61   0.0000       0.370512        10.0821 
  62   0.0000       0.373565        10.1652 
  63   0.0000       0.373565        10.1652 
  64   0.0000       0.395689        10.7673 
  65   0.0000       0.395689        10.7673 
  66   0.0000       0.408825        11.1247 
  67   0.0000       0.428876        11.6703 
  68   0.0000       0.428876        11.6703 
  69   0.0000       0.461570        12.5600 
  70   0.0000       0.482763        13.1366 
  71   0.0000       0.482763        13.1366 
  72   0.0000       0.532156        14.4807 
  73   0.0000       0.532156        14.4807 
  74   0.0000       0.556543        15.1443 
  75   0.0000       0.567635        15.4461 
  76   0.0000       0.567635        15.4461 
  77   0.0000       0.633436        17.2367 
  78   0.0000       0.641674        17.4608 
  79   0.0000       0.641674        17.4608 
  80   0.0000       0.655758        17.8441 
  81   0.0000       0.655758        17.8441 
  82   0.0000       0.731288        19.8994 
  83   0.0000       0.764399        20.8003 
  84   0.0000       0.764399        20.8003 
  85   0.0000       0.812583        22.1115 
  86   0.0000       0.818175        22.2637 
  87   0.0000       0.818175        22.2637 
  88   0.0000       0.855330        23.2747 
  89   0.0000       0.855330        23.2747 
  90   0.0000       0.860963        23.4280 
  91   0.0000       0.860963        23.4280 
  92   0.0000       0.867592        23.6084 
  93   0.0000       0.867592        23.6084 
  94   0.0000       0.872271        23.7357 
  95   0.0000       0.962367        26.1873 
  96   0.0000       0.962367        26.1873 
  97   0.0000       0.966291        26.2941 
  98   0.0000       0.974775        26.5250 
  99   0.0000       0.974775        26.5250 
 100   0.0000       1.113158        30.2906 
 101   0.0000       1.113158        30.2906 
 102   0.0000       1.122278        30.5388 
 103   0.0000       1.147220        31.2174 
 104   0.0000       1.147220        31.2174 
 105   0.0000       1.190592        32.3977 
 106   0.0000       1.190592        32.3977 
 107   0.0000       1.193855        32.4864 
 108   0.0000       1.193855        32.4864 
 109   0.0000       1.208118        32.8746 
 110   0.0000       1.208118        32.8746 
 111   0.0000       1.289062        35.0772 
 112   0.0000       1.303120        35.4597 
 113   0.0000       1.303120        35.4597 
 114   0.0000       1.311522        35.6883 
 115   0.0000       1.311522        35.6883 
 116   0.0000       1.414711        38.4962 
 117   0.0000       1.414711        38.4962 
 118   0.0000       1.464273        39.8449 
 119   0.0000       1.535319        41.7781 
 120   0.0000       1.535319        41.7781 
 121   0.0000       1.558250        42.4021 
 122   0.0000       1.616469        43.9864 
 123   0.0000       1.616469        43.9864 
 124   0.0000       1.634132        44.4670 
 125   0.0000       1.634132        44.4670 
 126   0.0000       1.835346        49.9423 
 127   0.0000       1.891931        51.4821 
 128   0.0000       1.891931        51.4821 
 129   0.0000       1.915359        52.1196 
 130   0.0000       2.024590        55.0919 
 131   0.0000       2.135438        58.1082 
 132   0.0000       2.135438        58.1082 
 133   0.0000       2.243856        61.0584 
 134   0.0000       2.243856        61.0584 
 135   0.0000       2.291570        62.3568 
 136   0.0000       2.291570        62.3568 
 137   0.0000       2.379860        64.7593 
 138   0.0000       2.609088        70.9969 
 139   0.0000       2.609088        70.9969 
 140   0.0000       2.740826        74.5817 
 141   0.0000       2.740826        74.5817 
 142   0.0000       2.827659        76.9445 
 143   0.0000       2.862344        77.8883 
 144   0.0000       2.862344        77.8883 
 145   0.0000       2.958911        80.5161 
 146   0.0000       2.967923        80.7613 
 147   0.0000       2.967923        80.7613 
 148   0.0000       3.234159        88.0059 
 149   0.0000       3.234159        88.0059 
 150   0.0000       3.272375        89.0459 
 151   0.0000       3.272375        89.0459 
 152   0.0000       3.281663        89.2986 
 153   0.0000       3.333662        90.7136 
 154   0.0000       3.333662        90.7136 
 155   0.0000       3.721662       101.2716 
 156   0.0000       3.721662       101.2716 
 157   0.0000       3.734221       101.6133 
 158   0.0000       3.734761       101.6280 
 159   0.0000       3.734761       101.6280 
 160   0.0000       3.737972       101.7154 
 161   0.0000       3.737972       101.7154 
 162   0.0000       3.939684       107.2043 
 163   0.0000       3.939684       107.2043 
 164   0.0000       4.008995       109.0903 
 165   0.0000       4.008995       109.0903 
 166   0.0000       4.048911       110.1765 
 167   0.0000       4.580162       124.6325 
 168   0.0000       4.830835       131.4537 
 169   0.0000       4.885119       132.9308 
 170   0.0000       4.885119       132.9308 
 171   0.0000       5.122090       139.3791 
 172   0.0000       5.122090       139.3791 
 173   0.0000       5.435345       147.9032 
 174   0.0000       5.435345       147.9032 
 175   0.0000       5.523511       150.3024 
 176   0.0000       5.687456       154.7636 
 177   0.0000       5.795399       157.7008 
 178   0.0000       5.795399       157.7008 
 179   0.0000       6.024469       163.9341 
 180   0.0000       6.024469       163.9341 
 181   0.0000       6.252671       170.1438 
 182   0.0000       6.252671       170.1438 
 183   0.0000       6.761721       183.9958 
 184   0.0000       6.791191       184.7977 
 185   0.0000       6.791191       184.7977 
 186   0.0000       7.026511       191.2011 
 187   0.0000       7.026511       191.2011 
 188   0.0000       7.094111       193.0406 
 189   0.0000       7.188213       195.6012 
 190   0.0000       7.188213       195.6012 
 191   0.0000       7.215242       196.3367 
 192   0.0000       7.215242       196.3367 
 193   0.0000       7.479619       203.5308 
 194   0.0000       7.553343       205.5369 
 195   0.0000       7.553343       205.5369 
 196   0.0000       7.882128       214.4836 
 197   0.0000       7.882128       214.4836 
 198   0.0000       8.729163       237.5326 
 199   0.0000       8.871933       241.4176 
 200   0.0000       8.871933       241.4176 
 201   0.0000       8.944791       243.4002 
 202   0.0000       9.185515       249.9506 
 203   0.0000       9.185515       249.9506 
 204   0.0000       9.254402       251.8251 
 205   0.0000       9.254402       251.8251 
 206   0.0000       9.273159       252.3355 
 207   0.0000       9.273159       252.3355 
 208   0.0000       9.420867       256.3548 
 209   0.0000       9.420867       256.3548 
 210   0.0000       9.627310       261.9724 
 211   0.0000       9.627310       261.9724 
 212   0.0000       9.660425       262.8735 
 213   0.0000       9.660425       262.8735 
 214   0.0000      10.019594       272.6470 
 215   0.0000      10.161417       276.5062 
 216   0.0000      10.161417       276.5062 
 217   0.0000      10.186642       277.1926 
 218   0.0000      10.186642       277.1926 
 219   0.0000      10.307278       280.4753 
 220   0.0000      10.307278       280.4753 
 221   0.0000      10.505666       285.8737 
 222   0.0000      10.505666       285.8737 
 223   0.0000      10.600512       288.4546 
 224   0.0000      10.600512       288.4546 
 225   0.0000      10.991238       299.0868 
 226   0.0000      11.279788       306.9386 
 227   0.0000      11.279788       306.9386 
 228   0.0000      11.785141       320.6900 
 229   0.0000      12.118764       329.7683 
 230   0.0000      12.118764       329.7683 
 231   0.0000      12.202828       332.0558 
 232   0.0000      12.202828       332.0558 
 233   0.0000      12.594433       342.7120 
 234   0.0000      12.594433       342.7120 
 235   0.0000      12.635425       343.8274 
 236   0.0000      12.635425       343.8274 
 237   0.0000      12.689142       345.2891 
 238   0.0000      13.157648       358.0378 
 239   0.0000      13.157648       358.0378 
 240   0.0000      13.186680       358.8278 
 241   0.0000      13.186680       358.8278 
 242   0.0000      14.006279       381.1302 
 243   0.0000      14.006279       381.1302 
 244   0.0000      14.047298       382.2464 
 245   0.0000      14.077330       383.0636 
 246   0.0000      14.077330       383.0636 
 247   0.0000      14.343877       390.3167 
 248   0.0000      14.661268       398.9534 
 249   0.0000      14.661268       398.9534 
 250   0.0000      14.887092       405.0984 
 251   0.0000      14.887092       405.0984 
 252   0.0000      15.018714       408.6800 
 253   0.0000      15.487199       421.4281 
 254   0.0000      15.487199       421.4281 
 255   0.0000      15.905486       432.8103 
 256   0.0000      17.188357       467.7190 
 257   0.0000      17.188357       467.7190 
 258   0.0000      18.347881       499.2712 
 259   0.0000      20.015760       544.6565 
 260   0.0000      20.015765       544.6566 
 261   0.0000      20.062528       545.9291 
 262   0.0000      20.062529       545.9292 
 263   0.0000      20.087763       546.6158 
 264   0.0000      20.201577       549.7129 
 265   0.0000      20.201577       549.7129 
 266   0.0000      20.489084       557.5363 
 267   0.0000      20.489084       557.5363 
 268   0.0000      20.967240       570.5476 
 269   0.0000      20.967241       570.5476 
 270   0.0000      21.331170       580.4506 
 271   0.0000      22.160945       603.0300 
 272   0.0000      22.160945       603.0300 
 273   0.0000      23.264853       633.0688 
 274   0.0000      30.238922       822.8429 
 275   0.0000      30.238928       822.8431 
 276   0.0000      30.771521       837.3356 
 277   0.0000      30.771521       837.3356 
 278   0.0000      31.888467       867.7293 
 279   0.0000      41.579261      1131.4292 
 280   0.0000      41.579261      1131.4292 
 281   0.0000      41.750502      1136.0889 
 282   0.0000      44.196512      1202.6482 
 283   0.0000      77.732960      2115.2214 
 284   0.0000      91.175673      2481.0162 
 285   0.0000      91.175690      2481.0167 
 286   0.0000      91.518399      2490.3422 
 287   0.0000      91.518399      2490.3422 
 288   0.0000      92.381355      2513.8245 
 289   0.0000     202.176716      5501.5081 

                 SPIN DOWN ORBITALS
  NO   OCC          E(Eh)            E(eV) 
   0   1.0000     -24.346400      -662.4992 
   1   1.0000      -6.615308      -180.0117 
   2   1.0000      -1.198232       -32.6056 
   3   1.0000      -0.559028       -15.2119 
   4   1.0000      -0.474171       -12.9028 
   5   1.0000      -0.474171       -12.9028 
   6   1.0000      -0.249607        -6.7922 
   7   0.0000      -0.079393        -2.1604 
   8   0.0000      -0.079393        -2.1604 
   9   0.0000      -0.004320        -0.1176 
  10   0.0000       0.013778         0.3749 
  11   0.0000       0.015025         0.4089 
  12   0.0000       0.015025         0.4089 
  13   0.0000       0.043924         1.1952 
  14   0.0000       0.054603         1.4858 
  15   0.0000       0.054603         1.4858 
  16   0.0000       0.057959         1.5771 
  17   0.0000       0.062040         1.6882 
  18   0.0000       0.062040         1.6882 
  19   0.0000       0.066191         1.8011 
  20   0.0000       0.066191         1.8011 
  21   0.0000       0.095602         2.6015 
  22   0.0000       0.103292         2.8107 
  23   0.0000       0.103292         2.8107 
  24   0.0000       0.121349         3.3021 
  25   0.0000       0.140578         3.8253 
  26   0.0000       0.140578         3.8253 
  27   0.0000       0.146952         3.9988 
  28   0.0000       0.149488         4.0678 
  29   0.0000       0.149488         4.0678 
  30   0.0000       0.168350         4.5810 
  31   0.0000       0.168350         4.5810 
  32   0.0000       0.176476         4.8022 
  33   0.0000       0.180269         4.9054 
  34   0.0000       0.180269         4.9054 
  35   0.0000       0.187990         5.1155 
  36   0.0000       0.187990         5.1155 
  37   0.0000       0.207237         5.6392 
  38   0.0000       0.227150         6.1811 
  39   0.0000       0.227150         6.1811 
  40   0.0000       0.228162         6.2086 
  41   0.0000       0.239167         6.5081 
  42   0.0000       0.239167         6.5081 
  43   0.0000       0.247046         6.7225 
  44   0.0000       0.247046         6.7225 
  45   0.0000       0.250785         6.8242 
  46   0.0000       0.250785         6.8242 
  47   0.0000       0.257741         7.0135 
  48   0.0000       0.257741         7.0135 
  49   0.0000       0.313984         8.5439 
  50   0.0000       0.348472         9.4824 
  51   0.0000       0.359538         9.7835 
  52   0.0000       0.359538         9.7835 
  53   0.0000       0.363418         9.8891 
  54   0.0000       0.363418         9.8891 
  55   0.0000       0.366600         9.9757 
  56   0.0000       0.366600         9.9757 
  57   0.0000       0.366768         9.9803 
  58   0.0000       0.366768         9.9803 
  59   0.0000       0.369859        10.0644 
  60   0.0000       0.370512        10.0821 
  61   0.0000       0.370512        10.0821 
  62   0.0000       0.373565        10.1652 
  63   0.0000       0.373565        10.1652 
  64   0.0000       0.395689        10.7673 
  65   0.0000       0.395689        10.7673 
  66   0.0000       0.408825        11.1247 
  67   0.0000       0.428876        11.6703 
  68   0.0000       0.428876        11.6703 
  69   0.0000       0.461570        12.5600 
  70   0.0000       0.482763        13.1366 
  71   0.0000       0.482763        13.1366 
  72   0.0000       0.532156        14.4807 
  73   0.0000       0.532156        14.4807 
  74   0.0000       0.556543        15.1443 
  75   0.0000       0.567635        15.4461 
  76   0.0000       0.567635        15.4461 
  77   0.0000       0.633436        17.2367 
  78   0.0000       0.641674        17.4608 
  79   0.0000       0.641674        17.4608 
  80   0.0000       0.655758        17.8441 
  81   0.0000       0.655758        17.8441 
  82   0.0000       0.731288        19.8994 
  83   0.0000       0.764399        20.8003 
  84   0.0000       0.764399        20.8003 
  85   0.0000       0.812583        22.1115 
  86   0.0000       0.818175        22.2637 
  87   0.0000       0.818175        22.2637 
  88   0.0000       0.855330        23.2747 
  89   0.0000       0.855330        23.2747 
  90   0.0000       0.860963        23.4280 
  91   0.0000       0.860963        23.4280 
  92   0.0000       0.867592        23.6084 
  93   0.0000       0.867592        23.6084 
  94   0.0000       0.872271        23.7357 
  95   0.0000       0.962367        26.1873 
  96   0.0000       0.962367        26.1873 
  97   0.0000       0.966291        26.2941 
  98   0.0000       0.974775        26.5250 
  99   0.0000       0.974775        26.5250 
 100   0.0000       1.113158        30.2906 
 101   0.0000       1.113158        30.2906 
 102   0.0000       1.122278        30.5388 
 103   0.0000       1.147220        31.2174 
 104   0.0000       1.147220        31.2174 
 105   0.0000       1.190592        32.3977 
 106   0.0000       1.190592        32.3977 
 107   0.0000       1.193855        32.4864 
 108   0.0000       1.193855        32.4864 
 109   0.0000       1.208118        32.8746 
 110   0.0000       1.208118        32.8746 
 111   0.0000       1.289062        35.0772 
 112   0.0000       1.303120        35.4597 
 113   0.0000       1.303120        35.4597 
 114   0.0000       1.311522        35.6883 
 115   0.0000       1.311522        35.6883 
 116   0.0000       1.414711        38.4962 
 117   0.0000       1.414711        38.4962 
 118   0.0000       1.464273        39.8449 
 119   0.0000       1.535319        41.7781 
 120   0.0000       1.535319        41.7781 
 121   0.0000       1.558250        42.4021 
 122   0.0000       1.616469        43.9864 
 123   0.0000       1.616469        43.9864 
 124   0.0000       1.634132        44.4670 
 125   0.0000       1.634132        44.4670 
 126   0.0000       1.835346        49.9423 
 127   0.0000       1.891931        51.4821 
 128   0.0000       1.891931        51.4821 
 129   0.0000       1.915359        52.1196 
 130   0.0000       2.024590        55.0919 
 131   0.0000       2.135438        58.1082 
 132   0.0000       2.135438        58.1082 
 133   0.0000       2.243856        61.0584 
 134   0.0000       2.243856        61.0584 
 135   0.0000       2.291570        62.3568 
 136   0.0000       2.291570        62.3568 
 137   0.0000       2.379860        64.7593 
 138   0.0000       2.609088        70.9969 
 139   0.0000       2.609088        70.9969 
 140   0.0000       2.740826        74.5817 
 141   0.0000       2.740826        74.5817 
 142   0.0000       2.827659        76.9445 
 143   0.0000       2.862344        77.8883 
 144   0.0000       2.862344        77.8883 
 145   0.0000       2.958911        80.5161 
 146   0.0000       2.967923        80.7613 
 147   0.0000       2.967923        80.7613 
 148   0.0000       3.234159        88.0059 
 149   0.0000       3.234159        88.0059 
 150   0.0000       3.272375        89.0459 
 151   0.0000       3.272375        89.0459 
 152   0.0000       3.281663        89.2986 
 153   0.0000       3.333662        90.7136 
 154   0.0000       3.333662        90.7136 
 155   0.0000       3.721662       101.2716 
 156   0.0000       3.721662       101.2716 
 157   0.0000       3.734221       101.6133 
 158   0.0000       3.734761       101.6280 
 159   0.0000       3.734761       101.6280 
 160   0.0000       3.737972       101.7154 
 161   0.0000       3.737972       101.7154 
 162   0.0000       3.939684       107.2043 
 163   0.0000       3.939684       107.2043 
 164   0.0000       4.008995       109.0903 
 165   0.0000       4.008995       109.0903 
 166   0.0000       4.048911       110.1765 
 167   0.0000       4.580162       124.6325 
 168   0.0000       4.830835       131.4537 
 169   0.0000       4.885119       132.9308 
 170   0.0000       4.885119       132.9308 
 171   0.0000       5.122090       139.3791 
 172   0.0000       5.122090       139.3791 
 173   0.0000       5.435345       147.9032 
 174   0.0000       5.435345       147.9032 
 175   0.0000       5.523511       150.3024 
 176   0.0000       5.687456       154.7636 
 177   0.0000       5.795399       157.7008 
 178   0.0000       5.795399       157.7008 
 179   0.0000       6.024469       163.9341 
 180   0.0000       6.024469       163.9341 
 181   0.0000       6.252671       170.1438 
 182   0.0000       6.252671       170.1438 
 183   0.0000       6.761721       183.9958 
 184   0.0000       6.791191       184.7977 
 185   0.0000       6.791191       184.7977 
 186   0.0000       7.026511       191.2011 
 187   0.0000       7.026511       191.2011 
 188   0.0000       7.094111       193.0406 
 189   0.0000       7.188213       195.6012 
 190   0.0000       7.188213       195.6012 
 191   0.0000       7.215242       196.3367 
 192   0.0000       7.215242       196.3367 
 193   0.0000       7.479619       203.5308 
 194   0.0000       7.553343       205.5369 
 195   0.0000       7.553343       205.5369 
 196   0.0000       7.882128       214.4836 
 197   0.0000       7.882128       214.4836 
 198   0.0000       8.729163       237.5326 
 199   0.0000       8.871933       241.4176 
 200   0.0000       8.871933       241.4176 
 201   0.0000       8.944791       243.4002 
 202   0.0000       9.185515       249.9506 
 203   0.0000       9.185515       249.9506 
 204   0.0000       9.254402       251.8251 
 205   0.0000       9.254402       251.8251 
 206   0.0000       9.273159       252.3355 
 207   0.0000       9.273159       252.3355 
 208   0.0000       9.420867       256.3548 
 209   0.0000       9.420867       256.3548 
 210   0.0000       9.627310       261.9724 
 211   0.0000       9.627310       261.9724 
 212   0.0000       9.660425       262.8735 
 213   0.0000       9.660425       262.8735 
 214   0.0000      10.019594       272.6470 
 215   0.0000      10.161417       276.5062 
 216   0.0000      10.161417       276.5062 
 217   0.0000      10.186642       277.1926 
 218   0.0000      10.186642       277.1926 
 219   0.0000      10.307278       280.4753 
 220   0.0000      10.307278       280.4753 
 221   0.0000      10.505666       285.8737 
 222   0.0000      10.505666       285.8737 
 223   0.0000      10.600512       288.4546 
 224   0.0000      10.600512       288.4546 
 225   0.0000      10.991238       299.0868 
 226   0.0000      11.279788       306.9386 
 227   0.0000      11.279788       306.9386 
 228   0.0000      11.785141       320.6900 
 229   0.0000      12.118764       329.7683 
 230   0.0000      12.118764       329.7683 
 231   0.0000      12.202828       332.0558 
 232   0.0000      12.202828       332.0558 
 233   0.0000      12.594433       342.7120 
 234   0.0000      12.594433       342.7120 
 235   0.0000      12.635425       343.8274 
 236   0.0000      12.635425       343.8274 
 237   0.0000      12.689142       345.2891 
 238   0.0000      13.157648       358.0378 
 239   0.0000      13.157648       358.0378 
 240   0.0000      13.186680       358.8278 
 241   0.0000      13.186680       358.8278 
 242   0.0000      14.006279       381.1302 
 243   0.0000      14.006279       381.1302 
 244   0.0000      14.047298       382.2464 
 245   0.0000      14.077330       383.0636 
 246   0.0000      14.077330       383.0636 
 247   0.0000      14.343877       390.3167 
 248   0.0000      14.661268       398.9534 
 249   0.0000      14.661268       398.9534 
 250   0.0000      14.887092       405.0984 
 251   0.0000      14.887092       405.0984 
 252   0.0000      15.018714       408.6800 
 253   0.0000      15.487199       421.4281 
 254   0.0000      15.487199       421.4281 
 255   0.0000      15.905486       432.8103 
 256   0.0000      17.188357       467.7190 
 257   0.0000      17.188357       467.7190 
 258   0.0000      18.347881       499.2712 
 259   0.0000      20.015760       544.6565 
 260   0.0000      20.015765       544.6566 
 261   0.0000      20.062528       545.9291 
 262   0.0000      20.062529       545.9292 
 263   0.0000      20.087763       546.6158 
 264   0.0000      20.201577       549.7129 
 265   0.0000      20.201577       549.7129 
 266   0.0000      20.489084       557.5363 
 267   0.0000      20.489084       557.5363 
 268   0.0000      20.967240       570.5476 
 269   0.0000      20.967241       570.5476 
 270   0.0000      21.331170       580.4506 
 271   0.0000      22.160945       603.0300 
 272   0.0000      22.160945       603.0300 
 273   0.0000      23.264853       633.0688 
 274   0.0000      30.238922       822.8429 
 275   0.0000      30.238928       822.8431 
 276   0.0000      30.771521       837.3356 
 277   0.0000      30.771521       837.3356 
 278   0.0000      31.888467       867.7293 
 279   0.0000      41.579261      1131.4292 
 280   0.0000      41.579261      1131.4292 
 281   0.0000      41.750502      1136.0889 
 282   0.0000      44.196512      1202.6482 
 283   0.0000      77.732960      2115.2214 
 284   0.0000      91.175673      2481.0162 
 285   0.0000      91.175690      2481.0167 
 286   0.0000      91.518399      2490.3422 
 287   0.0000      91.518399      2490.3422 
 288   0.0000      92.381355      2513.8245 
 289   0.0000     202.176716      5501.5081 

                    ********************************
                    * MULLIKEN POPULATION ANALYSIS *
                    ********************************

--------------------------------------------
MULLIKEN ATOMIC CHARGES AND SPIN POPULATIONS
--------------------------------------------
   0 B :    0.250019    0.000000
   1 F :   -0.250019   -0.000000
Sum of atomic charges         :    0.0000000
Sum of atomic spin populations:   -0.0000000

-----------------------------------------------------
MULLIKEN REDUCED ORBITAL CHARGES AND SPIN POPULATIONS
-----------------------------------------------------
CHARGE
  0 B s       :     3.668949  s :     3.668949
      pz      :     0.691524  p :     0.969476
      px      :     0.138976
      py      :     0.138976
      dz2     :     0.046733  d :     0.092442
      dxz     :     0.022854
      dyz     :     0.022854
      dx2y2   :    -0.000000
      dxy     :     0.000000
      f0      :     0.006598  f :     0.016154
      f+1     :     0.004778
      f-1     :     0.004778
      f+2     :    -0.000000
      f-2     :     0.000000
      f+3     :     0.000000
      f-3     :     0.000000
      g0      :     0.001077  g :     0.002814
      g+1     :     0.000868
      g-1     :     0.000868
      g+2     :     0.000000
      g-2     :     0.000000
      g+3     :     0.000000
      g-3     :     0.000000
      g+4     :     0.000000
      g-4     :     0.000000
      h0      :     0.000066  h :     0.000147
      h+1     :     0.000040
      h-1     :     0.000040
      h+2     :     0.000000
      h-2     :     0.000000
      h+3     :     0.000000
      h-3     :     0.000000
      h+4     :     0.000000
      h-4     :     0.000000
      h+5     :     0.000000
      h-5     :     0.000000
  1 F s       :     3.972700  s :     3.972700
      pz      :     1.590596  p :     5.239381
      px      :     1.824393
      py      :     1.824392
      dz2     :     0.019502  d :     0.033910
      dxz     :     0.007204
      dyz     :     0.007204
      dx2y2   :     0.000000
      dxy     :     0.000000
      f0      :     0.002007  f :     0.003641
      f+1     :     0.000817
      f-1     :     0.000817
      f+2     :     0.000000
      f-2     :    -0.000000
      f+3     :     0.000000
      f-3     :     0.000000
      g0      :     0.000220  g :     0.000348
      g+1     :     0.000064
      g-1     :     0.000064
      g+2     :    -0.000000
      g-2     :    -0.000000
      g+3     :     0.000000
      g-3     :     0.000000
      g+4     :     0.000000
      g-4     :     0.000000
      h0      :     0.000027  h :     0.000037
      h+1     :     0.000005
      h-1     :     0.000005
      h+2     :    -0.000000
      h-2     :    -0.000000
      h+3     :     0.000000
      h-3     :     0.000000
      h+4     :     0.000000
      h-4     :     0.000000
      h+5     :     0.000000
      h-5     :     0.000000

SPIN
  0 B s       :     0.000000  s :     0.000000
      pz      :     0.000000  p :     0.000000
      px      :    -0.000000
      py      :    -0.000000
      dz2     :     0.000000  d :     0.000000
      dxz     :     0.000000
      dyz     :    -0.000000
      dx2y2   :     0.000000
      dxy     :    -0.000000
      f0      :     0.000000  f :     0.000000
      f+1     :     0.000000
      f-1     :    -0.000000
      f+2     :     0.000000
      f-2     :    -0.000000
      f+3     :     0.000000
      f-3     :    -0.000000
      g0      :    -0.000000  g :    -0.000000
      g+1     :     0.000000
      g-1     :    -0.000000
      g+2     :     0.000000
      g-2     :     0.000000
      g+3     :     0.000000
      g-3     :    -0.000000
      g+4     :    -0.000000
      g-4     :    -0.000000
      h0      :    -0.000000  h :    -0.000000
      h+1     :     0.000000
      h-1     :     0.000000
      h+2     :     0.000000
      h-2     :    -0.000000
      h+3     :    -0.000000
      h-3     :     0.000000
      h+4     :     0.000000
      h-4     :    -0.000000
      h+5     :     0.000000
      h-5     :    -0.000000
  1 F s       :    -0.000000  s :    -0.000000
      pz      :    -0.000000  p :    -0.000000
      px      :    -0.000000
      py      :     0.000000
      dz2     :    -0.000000  d :    -0.000000
      dxz     :     0.000000
      dyz     :     0.000000
      dx2y2   :    -0.000000
      dxy     :     0.000000
      f0      :    -0.000000  f :    -0.000000
      f+1     :     0.000000
      f-1     :     0.000000
      f+2     :    -0.000000
      f-2     :     0.000000
      f+3     :    -0.000000
      f-3     :    -0.000000
      g0      :    -0.000000  g :    -0.000000
      g+1     :     0.000000
      g-1     :     0.000000
      g+2     :     0.000000
      g-2     :     0.000000
      g+3     :    -0.000000
      g-3     :     0.000000
      g+4     :     0.000000
      g-4     :     0.000000
      h0      :    -0.000000  h :    -0.000000
      h+1     :     0.000000
      h-1     :    -0.000000
      h+2     :     0.000000
      h-2     :     0.000000
      h+3     :     0.000000
      h-3     :     0.000000
      h+4     :     0.000000
      h-4     :     0.000000
      h+5     :     0.000000
      h-5     :     0.000000


                     *******************************
                     * LOEWDIN POPULATION ANALYSIS *
                     *******************************

-------------------------------------------
LOEWDIN ATOMIC CHARGES AND SPIN POPULATIONS
-------------------------------------------
   0 B :   -0.180293    0.000000
   1 F :    0.180293   -0.000000

----------------------------------------------------
LOEWDIN REDUCED ORBITAL CHARGES AND SPIN POPULATIONS
----------------------------------------------------
CHARGE
  0 B s       :     3.140953  s :     3.140953
      pz      :     0.845503  p :     1.231203
      px      :     0.192850
      py      :     0.192850
      dz2     :     0.245995  d :     0.490046
      dxz     :     0.122025
      dyz     :     0.122025
      dx2y2   :     0.000000
      dxy     :     0.000000
      f0      :     0.093305  f :     0.235168
      f+1     :     0.070932
      f-1     :     0.070932
      f+2     :     0.000000
      f-2     :     0.000000
      f+3     :     0.000000
      f-3     :     0.000000
      g0      :     0.022035  g :     0.078026
      g+1     :     0.027995
      g-1     :     0.027995
      g+2     :     0.000000
      g-2     :     0.000000
      g+3     :     0.000000
      g-3     :     0.000000
      g+4     :     0.000000
      g-4     :     0.000000
      h0      :     0.001877  h :     0.004897
      h+1     :     0.001510
      h-1     :     0.001510
      h+2     :     0.000000
      h-2     :     0.000000
      h+3     :     0.000000
      h-3     :     0.000000
      h+4     :     0.000000
      h-4     :     0.000000
      h+5     :     0.000000
      h-5     :     0.000000
  1 F s       :     3.561829  s :     3.561829
      pz      :     1.908588  p :     5.055335
      px      :     1.573373
      py      :     1.573373
      dz2     :     0.128946  d :     0.139257
      dxz     :     0.005155
      dyz     :     0.005155
      dx2y2   :     0.000000
      dxy     :     0.000000
      f0      :     0.039364  f :     0.047849
      f+1     :     0.004242
      f-1     :     0.004242
      f+2     :     0.000000
      f-2     :     0.000000
      f+3     :     0.000000
      f-3     :     0.000000
      g0      :     0.008506  g :     0.011895
      g+1     :     0.001694
      g-1     :     0.001694
      g+2     :     0.000000
      g-2     :     0.000000
      g+3     :     0.000000
      g-3     :     0.000000
      g+4     :     0.000000
      g-4     :     0.000000
      h0      :     0.003099  h :     0.003542
      h+1     :     0.000222
      h-1     :     0.000222
      h+2     :     0.000000
      h-2     :     0.000000
      h+3     :     0.000000
      h-3     :     0.000000
      h+4     :     0.000000
      h-4     :     0.000000
      h+5     :     0.000000
      h-5     :     0.000000

SPIN
  0 B s       :     0.000000  s :     0.000000
      pz      :     0.000000  p :     0.000000
      px      :     0.000000
      py      :    -0.000000
      dz2     :     0.000000  d :     0.000000
      dxz     :    -0.000000
      dyz     :     0.000000
      dx2y2   :     0.000000
      dxy     :     0.000000
      f0      :    -0.000000  f :     0.000000
      f+1     :     0.000000
      f-1     :     0.000000
      f+2     :    -0.000000
      f-2     :    -0.000000
      f+3     :     0.000000
      f-3     :    -0.000000
      g0      :     0.000000  g :     0.000000
      g+1     :     0.000000
      g-1     :    -0.000000
      g+2     :     0.000000
      g-2     :    -0.000000
      g+3     :     0.000000
      g-3     :    -0.000000
      g+4     :    -0.000000
      g-4     :    -0.000000
      h0      :    -0.000000  h :    -0.000000
      h+1     :    -0.000000
      h-1     :     0.000000
      h+2     :     0.000000
      h-2     :    -0.000000
      h+3     :    -0.000000
      h-3     :     0.000000
      h+4     :     0.000000
      h-4     :    -0.000000
      h+5     :     0.000000
      h-5     :    -0.000000
  1 F s       :    -0.000000  s :    -0.000000
      pz      :     0.000000  p :     0.000000
      px      :     0.000000
      py      :    -0.000000
      dz2     :    -0.000000  d :    -0.000000
      dxz     :    -0.000000
      dyz     :    -0.000000
      dx2y2   :    -0.000000
      dxy     :    -0.000000
      f0      :    -0.000000  f :    -0.000000
      f+1     :    -0.000000
      f-1     :    -0.000000
      f+2     :    -0.000000
      f-2     :    -0.000000
      f+3     :    -0.000000
      f-3     :    -0.000000
      g0      :    -0.000000  g :    -0.000000
      g+1     :     0.000000
      g-1     :     0.000000
      g+2     :     0.000000
      g-2     :     0.000000
      g+3     :    -0.000000
      g-3     :     0.000000
      g+4     :     0.000000
      g-4     :    -0.000000
      h0      :    -0.000000  h :    -0.000000
      h+1     :     0.000000
      h-1     :    -0.000000
      h+2     :    -0.000000
      h-2     :    -0.000000
      h+3     :     0.000000
      h-3     :     0.000000
      h+4     :     0.000000
      h-4     :     0.000000
      h+5     :     0.000000
      h-5     :     0.000000


                      *****************************
                      * MAYER POPULATION ANALYSIS *
                      *****************************

  NA   - Mulliken gross atomic population
  ZA   - Total nuclear charge
  QA   - Mulliken gross atomic charge
  VA   - Mayer's total valence
  BVA  - Mayer's bonded valence
  FA   - Mayer's free valence

  ATOM       NA         ZA         QA         VA         BVA        FA
  0 B      4.7500     5.0000     0.2500     1.6237     1.6237     0.0000
  1 F      9.2500     9.0000    -0.2500     1.6237     1.6237     0.0000

  Mayer bond orders larger than 0.1
B(  0-B ,  1-F ) :   1.6237 

-------
TIMINGS
-------

Total SCF time: 0 days 0 hours 22 min 4 sec 

Total time                  ....    1324.914 sec
Sum of individual times     ....    1324.329 sec  (100.0%)

Fock matrix formation       ....    1319.119 sec  ( 99.6%)
  XC integration            ....      56.409 sec  (  4.3% of F)
    Basis function eval.    ....       4.605 sec  (  8.2% of XC)
    Density eval.           ....      12.297 sec  ( 21.8% of XC)
    XC-Functional eval.     ....       0.840 sec  (  1.5% of XC)
    XC-Potential eval.      ....      37.877 sec  ( 67.1% of XC)
Diagonalization             ....       0.658 sec  (  0.0%)
Density matrix formation    ....       0.014 sec  (  0.0%)
Population analysis         ....       0.060 sec  (  0.0%)
Initial guess               ....       2.433 sec  (  0.2%)
Orbital Transformation      ....       0.000 sec  (  0.0%)
Orbital Orthonormalization  ....       0.000 sec  (  0.0%)
DIIS solution               ....       0.353 sec  (  0.0%)
Grid generation             ....       1.693 sec  (  0.1%)

-------------------------   --------------------
FINAL SINGLE POINT ENERGY      -124.586262913201
-------------------------   --------------------


                            ***************************************
                            *     ORCA property calculations      *
                            ***************************************

                                    ---------------------
                                    Active property flags
                                    ---------------------
   (+) Dipole Moment
   (+) Polarizability


------------------------------------------------------------------------------
                       ORCA ELECTRIC PROPERTIES CALCULATION
------------------------------------------------------------------------------

Dipole Moment Calculation                       ... on
Quadrupole Moment Calculation                   ... off
Polarizability Calculation                      ... Analytic (CP-SCF)
GBWName                                         ... bf_pbe.gbw
Electron density file                           ... bf_pbe.scfp.tmp
The origin for moment calculation is the CENTER OF MASS  = ( 0.000000,  0.000000  1.525865)

-------------
DIPOLE MOMENT
-------------
                                X             Y             Z
Electronic contribution:     -0.00000      -0.00000       0.22777
Nuclear contribution   :      0.00000       0.00000       0.18473
                        -----------------------------------------
Total Dipole Moment    :     -0.00000      -0.00000       0.41250
                        -----------------------------------------
Magnitude (a.u.)       :      0.41250
Magnitude (Debye)      :      1.04849



--------------------
Rotational spectrum 
--------------------
 
Rotational constants in cm-1:     0.000000     1.524444     1.524444 
Rotational constants in MHz :     0.000000 45701.682824 45701.682824 

 Dipole components along the rotational axes: 
x,y,z [a.u.] :     0.412499    -0.000000    -0.000000 
x,y,z [Debye]:     1.048490    -0.000000    -0.000000 

 
Transforming and storing MO dipole integrals   ... done

                ... starting polarizability calculation

Opening the Dipole integral file               ... (bf_pbe.dmo.tmp) done
Reading Dipole-MO integrals                    ... done
Solving CP-SCF equations                       ... 
------------------------------------------------------------------------------
                           ORCA CP-SCF CALCULATION
------------------------------------------------------------------------------

Input orbitals are from        ... bf_pbe.gbw
Input Perturbation             ... bf_pbe.cpv.tmp
Wavefunction output            ... bf_pbe.cpu.tmp
Perturbation mode              ... Real perturbation (singlet)
Solver                         ... POPLE
Max. number of iterations      ... 200
Convergence tolerance          ... 1.000e-06
Integral handling              ... Direct
Number of perturbations        ... 3
Number of operators            ... 2
Orbital ranges used for CP-SCF:
 Operator 0:  Orbitals   0...  6  to   7...289
 Operator 1:  Orbitals   0...  6  to   7...289
DFT calculation                         ... on
Exchange functional (SCF)               ... PBE
Exchange functional (CP-SCF)            ... PBE
   PBE kappa parameter  XKappa (SCF)    ...  0.804000
   PBE kappa parameter  XKappa (CP-SCF) ...  0.804000
   PBE mue parameter   XMuePBE (SCF)    ...  0.219520
   PBE mue parameter   XMuePBE (CP-SCF) ...  0.219520
Correlation functional (SCF)            ... PBE
Correlation functional (CP-SCF)         ... PBE
   PBE beta parameter CBetaPBE (SCF)    ...  0.066725
   PBE beta parameter CBetaPBE (CP-SCF) ...  0.066725
 LDA part of GGA corr.  LDAOpt (SCF)    ... PW91-LDA
 LDA part of GGA corr.  LDAOpt (CP-SCF) ... PW91-LDA
Variables per vector in CP-SCF ... 3962
Number of vectors sought       ... 3
Recalculating density on grid  ... done
Calculating the xc-kernel      ... done
     CP-SCF ITERATION   0: 
     CP-SCF ITERATION   1:      0.219366237756
     CP-SCF ITERATION   2:      0.004941909740
     CP-SCF ITERATION   3:      0.000064580871
     CP-SCF ITERATION   4:      0.000000784308
done
Reading CP-SCF coefficients                    ... done
Doing the polarizability tensor   ... done
Cleaning up                                    ... done

-------------------------
THE POLARIZABILITY TENSOR
-------------------------

The raw cartesian tensor (atomic units):
   21.97231      0.00000      0.00000  
    0.00000     21.97231      0.00000  
    0.00000      0.00000     19.97245  
diagonalized tensor: 
   19.97245     21.97231     21.97231  

   -0.00000     -0.78503     -0.61946  
   -0.00000      0.61946     -0.78503  
    1.00000     -0.00000     -0.00000  

Isotropic polarizability :  21.30569


Timings for individual modules:

Sum of individual times         ...     2099.013 sec (=  34.984 min)
GTO integral calculation        ...        1.236 sec (=   0.021 min)   0.1 %
SCF iterations                  ...     1324.945 sec (=  22.082 min)  63.1 %
Solution of CP-SCF eqns.        ...      772.832 sec (=  12.881 min)  36.8 %
                             ****ORCA TERMINATED NORMALLY****
TOTAL RUN TIME: 0 days 0 hours 34 minutes 59 seconds 352 msec
