
                                 *****************
                                 * O   R   C   A *
                                 *****************

           --- An Ab Initio, DFT and Semiempirical electronic structure package ---

                  #######################################################
                  #                        -***-                        #
                  #          Department of theory and spectroscopy      #
                  #               Directorship: Frank Neese             #
                  #        Max Planck Institute fuer Kohlenforschung    #
                  #                Kaiser Wilhelm Platz 1               #
                  #                 D-45470 Muelheim/Ruhr               #
                  #                      Germany                        #
                  #                                                     #
                  #                  All rights reserved                #
                  #                        -***-                        #
                  #######################################################


                         Program Version 4.1.2  - RELEASE  -


 With contributions from (in alphabetic order):
   Daniel Aravena         : Magnetic Properties
   Michael Atanasov       : Ab Initio Ligand Field Theory
   Alexander A. Auer      : GIAO ZORA
   Ute Becker             : Parallelization
   Giovanni Bistoni       : ED, Open-shell LED
   Martin Brehm           : Molecular dynamics
   Dmytro Bykov           : SCF Hessian
   Vijay G. Chilkuri      : MRCI spin determinant printing
   Dipayan Datta          : RHF DLPNO-CCSD density
   Achintya Kumar Dutta   : EOM-CC, STEOM-CC
   Dmitry Ganyushin       : Spin-Orbit,Spin-Spin,Magnetic field MRCI
   Miquel Garcia          : C-PCM Hessian
   Yang Guo               : DLPNO-NEVPT2, CIM, IAO-localization
   Andreas Hansen         : Spin unrestricted coupled pair/coupled cluster methods
   Benjamin Helmich-Paris : CASSCF linear response (MC-RPA)
   Lee Huntington         : MR-EOM, pCC
   Robert Izsak           : Overlap fitted RIJCOSX, COSX-SCS-MP3, EOM
   Christian Kollmar      : KDIIS, OOCD, Brueckner-CCSD(T), CCSD density
   Simone Kossmann        : Meta GGA functionals, TD-DFT gradient, OOMP2, MP2 Hessian
   Martin Krupicka        : AUTO-CI
   Lucas Lang             : DCDCAS
   Dagmar Lenk            : GEPOL surface, SMD
   Dimitrios Liakos       : Extrapolation schemes; parallel MDCI
   Dimitrios Manganas     : ROCIS; embedding schemes
   Dimitrios Pantazis     : SARC Basis sets
   Taras Petrenko         : DFT Hessian,TD-DFT gradient, ASA, ECA, R-Raman, ABS, FL, XAS/XES, NRVS
   Peter Pinski           : DLPNO-MP2, DLPNO-MP2 Gradient
   Christoph Reimann      : Effective Core Potentials
   Marius Retegan         : Local ZFS, SOC
   Christoph Riplinger    : Optimizer, TS searches, QM/MM, DLPNO-CCSD(T), (RO)-DLPNO pert. Triples
   Tobias Risthaus        : Range-separated hybrids, TD-DFT gradient, RPA, STAB
   Michael Roemelt        : Restricted open shell CIS
   Masaaki Saitow         : Open-shell DLPNO
   Barbara Sandhoefer     : DKH picture change effects
   Avijit Sen             : IP-ROCIS
   Kantharuban Sivalingam : CASSCF convergence, NEVPT2, FIC-MRCI
   Bernardo de Souza      : ESD, SOC TD-DFT
   Georgi Stoychev        : AutoAux, RI-MP2 NMR
   Willem Van den Heuvel  : Paramagnetic NMR
   Boris Wezisla          : Elementary symmetry handling
   Frank Wennmohs         : Technical directorship


 We gratefully acknowledge several colleagues who have allowed us to
 interface, adapt or use parts of their codes:
   Stefan Grimme, W. Hujo, H. Kruse,             : VdW corrections, initial TS optimization,
                  C. Bannwarth                     DFT functionals, gCP, sTDA/sTD-DF
   Ed Valeev                                     : LibInt (2-el integral package), F12 methods
   Garnet Chan, S. Sharma, J. Yang, R. Olivares  : DMRG
   Ulf Ekstrom                                   : XCFun DFT Library
   Mihaly Kallay                                 : mrcc  (arbitrary order and MRCC methods)
   Andreas Klamt, Michael Diedenhofen            : otool_cosmo (COSMO solvation model)
   Jiri Pittner, Ondrej Demel                    : Mk-CCSD
   Frank Weinhold                                : gennbo (NPA and NBO analysis)
   Christopher J. Cramer and Donald G. Truhlar   : smd solvation model
   Lars Goerigk                                  : TD-DFT with DH, B97 family of functionals
   V. Asgeirsson, H. Jonsson                     : NEB implementation
   FAccTs GmbH                                   : IRC, NEB, NEB-TS, Multilevel


 Your calculation uses the libint2 library for the computation of 2-el integrals
 For citations please refer to: http://libint.valeyev.net

 This ORCA versions uses:
   CBLAS   interface :  Fast vector & matrix operations
   LAPACKE interface :  Fast linear algebra routines
   SCALAPACK package :  Parallel linear algebra routines


----- Orbital basis set information -----
Your calculation utilizes the basis: aug-pc-4
   H, C-F              : F. Jensen, J. Chem. Phys. 115, 9113 (2001).
                         F. Jensen, J. Chem. Phys. 116, 7372 (2002).
                         F. Jensen, J. Chem. Phys. 117, 9234 (2002).
   Si-Cl               : F. Jensen, T. Helgaker, J. Chem. Phys. 121, 3463 (2004).
   He-B, Ne-Mg, Al, Ar : F. Jensen, J. Phys. Chem. A 111, 11198 (2007).
   K, Ca, Ga-Kr        : F. Jensen, J. Chem. Phys. 136, 094110 (2012).
   Sc-Zn               : F. Jensen, J. Chem. Phys. 138, 014107 (2013).

================================================================================
                                        WARNINGS
                       Please study these warnings very carefully!
================================================================================


INFO   : the flag for use of LIBINT has been found!

================================================================================
                                       INPUT FILE
================================================================================
NAME = bh2f_pbe.inp
|  1> !uks pbe nori aug-pc-4 grid7 nofinalgrid verytightscf
|  2> 
|  3> %maxcore 1500
|  4> 
|  5> %pal nprocs 1 end
|  6> 
|  7> %scf
|  8> 	maxiter 200
|  9> end
| 10> %elprop
| 11> 	dipole true
| 12> 	 polar 1
| 13> 	 maxiter 200
| 14> end
| 15> 
| 16> * xyz 0 1
| 17> B 0.0000000000 0.0000000000 0.0000000000
| 18> F 0.0000000000 0.0000000000 1.3157000000
| 19> H 0.0000000000 1.0599000000 -0.5569000000
| 20> H 0.0000000000 -1.0599000000 -0.5569000000
| 21> *
| 22> 
| 23>                          ****END OF INPUT****
================================================================================

                       ****************************
                       * Single Point Calculation *
                       ****************************

---------------------------------
CARTESIAN COORDINATES (ANGSTROEM)
---------------------------------
  B      0.000000    0.000000    0.000000
  F      0.000000    0.000000    1.315700
  H      0.000000    1.059900   -0.556900
  H      0.000000   -1.059900   -0.556900

----------------------------
CARTESIAN COORDINATES (A.U.)
----------------------------
  NO LB      ZA    FRAG     MASS         X           Y           Z
   0 B     5.0000    0    10.810    0.000000    0.000000    0.000000
   1 F     9.0000    0    18.998    0.000000    0.000000    2.486313
   2 H     1.0000    0     1.008    0.000000    2.002921   -1.052388
   3 H     1.0000    0     1.008    0.000000   -2.002921   -1.052388

--------------------------------
INTERNAL COORDINATES (ANGSTROEM)
--------------------------------
 B      0   0   0     0.000000000000     0.00000000     0.00000000
 F      1   0   0     1.315700000000     0.00000000     0.00000000
 H      1   2   0     1.197299302597   117.71864523     0.00000000
 H      1   2   3     1.197299302597   117.71864523   180.00000000

---------------------------
INTERNAL COORDINATES (A.U.)
---------------------------
 B      0   0   0     0.000000000000     0.00000000     0.00000000
 F      1   0   0     2.486312674400     0.00000000     0.00000000
 H      1   2   0     2.262567782244   117.71864523     0.00000000
 H      1   2   3     2.262567782244   117.71864523   180.00000000

---------------------
BASIS SET INFORMATION
---------------------
There are 3 groups of distinct atoms

 Group   1 Type B   : 27s12p7d4f3g2h contracted to 9s8p7d4f3g2h pattern {1191111111/51111111/1111111/1111/111/11}
 Group   2 Type F   : 27s12p7d4f3g2h contracted to 9s8p7d4f3g2h pattern {1191111111/51111111/1111111/1111/111/11}
 Group   3 Type H   : 12s7p4d3f2g contracted to 8s7p4d3f2g pattern {51111111/1111111/1111/111/11}

Atom   0B    basis set group =>   1
Atom   1F    basis set group =>   2
Atom   2H    basis set group =>   3
Atom   3H    basis set group =>   3
------------------------------------------------------------------------------
                           ORCA GTO INTEGRAL CALCULATION
------------------------------------------------------------------------------

                         BASIS SET STATISTICS AND STARTUP INFO

 # of primitive gaussian shells          ...  166
 # of primitive gaussian functions       ...  534
 # of contracted shells                  ...  114
 # of contracted basis functions         ...  466
 Highest angular momentum                ...    5
 Maximum contraction depth               ...   11
 Integral package used                   ... LIBINT
 Integral threshhold            Thresh   ...  1.000e-12
 Primitive cut-off              TCut     ...  1.000e-14


------------------------------ INTEGRAL EVALUATION ----------------------------


 * One electron integrals 
 Pre-screening matrix                    ... done
 Shell pair data                         ... done (   0.002 sec)

-------------------------------------------------------------------------------
                                 ORCA SCF
-------------------------------------------------------------------------------

------------
SCF SETTINGS
------------
Hamiltonian:
 Density Functional     Method          .... DFT(GTOs)
 Exchange Functional    Exchange        .... PBE
   PBE kappa parameter   XKappa         ....  0.804000
   PBE mue parameter    XMuePBE         ....  0.219520
 Correlation Functional Correlation     .... PBE
   PBE beta parameter  CBetaPBE         ....  0.066725
 LDA part of GGA corr.  LDAOpt          .... PW91-LDA
 Gradients option       PostSCFGGA      .... off
   Density functional embedding theory  .... OFF
   NL short-range parameter             ....  6.400000


General Settings:
 Integral files         IntName         .... bh2f_pbe
 Hartree-Fock type      HFTyp           .... UHF
 Total Charge           Charge          ....    0
 Multiplicity           Mult            ....    1
 Number of Electrons    NEL             ....   16
 Basis Dimension        Dim             ....  466
 Nuclear Repulsion      ENuc            ....     27.1952059082 Eh

Convergence Acceleration:
 DIIS                   CNVDIIS         .... on
   Start iteration      DIISMaxIt       ....    12
   Startup error        DIISStart       ....  0.200000
   # of expansion vecs  DIISMaxEq       ....     5
   Bias factor          DIISBfac        ....   1.050
   Max. coefficient     DIISMaxC        ....  10.000
 Newton-Raphson         CNVNR           .... off
 SOSCF                  CNVSOSCF        .... off
 Level Shifting         CNVShift        .... on
   Level shift para.    LevelShift      ....    0.2500
   Turn off err/grad.   ShiftErr        ....    0.0010
 Zerner damping         CNVZerner       .... off
 Static damping         CNVDamp         .... on
   Fraction old density DampFac         ....    0.7000
   Max. Damping (<1)    DampMax         ....    0.9800
   Min. Damping (>=0)   DampMin         ....    0.0000
   Turn off err/grad.   DampErr         ....    0.1000
 Fernandez-Rico         CNVRico         .... off

SCF Procedure:
 Maximum # iterations   MaxIter         ....   200
 SCF integral mode      SCFMode         .... Direct
   Integral package                     .... LIBINT
 Reset frequency        DirectResetFreq ....    20
 Integral Threshold     Thresh          ....  1.000e-12 Eh
 Primitive CutOff       TCut            ....  1.000e-14 Eh

Convergence Tolerance:
 Convergence Check Mode ConvCheckMode   .... Total+1el-Energy
 Convergence forced     ConvForced      .... 0
 Energy Change          TolE            ....  1.000e-09 Eh
 1-El. energy change                    ....  1.000e-06 Eh
 DIIS Error             TolErr          ....  1.000e-08


Diagonalization of the overlap matrix:
Smallest eigenvalue                        ... 4.444e-07
Time for diagonalization                   ...    0.051 sec
Threshold for overlap eigenvalues          ... 1.000e-08
Number of eigenvalues below threshold      ... 0
Time for construction of square roots      ...    0.032 sec
Total time needed                          ...    0.084 sec

-------------------
DFT GRID GENERATION
-------------------

General Integration Accuracy     IntAcc      ...  5.670
Radial Grid Type                 RadialGrid  ... Gauss-Chebyshev
Angular Grid (max. acc.)         AngularGrid ... Lebedev-770
Angular grid pruning method      GridPruning ... 3 (G Style)
Weight generation scheme         WeightScheme... Becke
Basis function cutoff            BFCut       ...    1.0000e-12
Integration weight cutoff        WCut        ...    1.0000e-14
Grids for H and He will be reduced by one unit

# of grid points (after initial pruning)     ...  86052 (   0.0 sec)
# of grid points (after weights+screening)   ...  84389 (   0.0 sec)
nearest neighbour list constructed           ...    0.0 sec
Grid point re-assignment to atoms done       ...    0.0 sec
Grid point division into batches done        ...    1.8 sec
Reduced shell lists constructed in    3.0 sec

Total number of grid points                  ...    84389
Total number of batches                      ...     1321
Average number of points per batch           ...       63
Average number of grid points per atom       ...    21097
Average number of shells per batch           ...    81.59 (71.57%)
Average number of basis functions per batch  ...   344.16 (73.85%)
Average number of large shells per batch     ...    72.44 (88.79%)
Average number of large basis fcns per batch ...   306.19 (88.97%)
Maximum spatial batch extension              ...  23.01, 18.55, 19.19 au
Average spatial batch extension              ...   2.35,  2.19,  2.25 au

Time for grid setup =    3.072 sec

------------------------------
INITIAL GUESS: MODEL POTENTIAL
------------------------------
Loading Hartree-Fock densities                     ... done
Calculating cut-offs                               ... done
Setting up the integral package                    ... done
Initializing the effective Hamiltonian             ... done
Starting the Coulomb interaction                   ... done (   0.2 sec)
Reading the grid                                   ... done
Mapping shells                                     ... done
Starting the XC term evaluation                    ... done (   8.3 sec)
  promolecular density results
     # of electrons  =     15.999021124
     EX              =    -14.338840429
     EC              =     -0.500289448
     EX+EC           =    -14.839129877
Transforming the Hamiltonian                       ... done (   0.0 sec)
Diagonalizing the Hamiltonian                      ... done (   0.1 sec)
Back transforming the eigenvectors                 ... done (   0.0 sec)
Now organizing SCF variables                       ... done
                      ------------------
                      INITIAL GUESS DONE (  11.8 sec)
                      ------------------
--------------
SCF ITERATIONS
--------------
ITER       Energy         Delta-E        Max-DP      RMS-DP      [F,P]     Damp
               ***  Starting incremental Fock matrix formation  ***
  0   -125.8161951846   0.000000000000 0.00719372  0.00008857  0.1508307 0.7000
  1   -125.8274347565  -0.011239571930 0.00628605  0.00007308  0.0517744 0.7000
                               ***Turning on DIIS***
  2   -125.8319284580  -0.004493701479 0.01374496  0.00015293  0.0294900 0.0000
  3   -125.8406208178  -0.008692359830 0.00526032  0.00004687  0.0218208 0.0000
  4   -125.8413142603  -0.000693442446 0.00107684  0.00001284  0.0152962 0.0000
  5   -125.8414945476  -0.000180287348 0.00040488  0.00000327  0.0015163 0.0000
  6   -125.8415008385  -0.000006290909 0.00011869  0.00000166  0.0002613 0.0000
  7   -125.8415011118  -0.000000273311 0.00002008  0.00000027  0.0000759 0.0000
  8   -125.8415011175  -0.000000005628 0.00001129  0.00000009  0.0000190 0.0000
  9   -125.8415011178  -0.000000000329 0.00003701  0.00000018  0.0000077 0.0000
 10   -125.8415011178  -0.000000000051 0.00004343  0.00000027  0.0000028 0.0000
 11   -125.8415011178  -0.000000000005 0.00003312  0.00000038  0.0000007 0.0000
                 **** Energy Check signals convergence ****

               *****************************************************
               *                     SUCCESS                       *
               *           SCF CONVERGED AFTER  12 CYCLES          *
               *****************************************************


----------------
TOTAL SCF ENERGY
----------------

Total Energy       :         -125.84150112 Eh           -3424.32133 eV

Components:
Nuclear Repulsion  :           27.19520591 Eh             740.01917 eV
Electronic Energy  :         -153.03670703 Eh           -4164.34051 eV
One Electron Energy:         -227.24847488 Eh           -6183.74538 eV
Two Electron Energy:           74.21176785 Eh            2019.40487 eV

Virial components:
Potential Energy   :         -251.29281214 Eh           -6838.02506 eV
Kinetic Energy     :          125.45131102 Eh            3413.70372 eV
Virial Ratio       :            2.00311029


DFT components:
N(Alpha)           :        8.000000622276 electrons
N(Beta)            :        8.000000622276 electrons
N(Total)           :       16.000001244553 electrons
E(X)               :      -14.608334986402 Eh       
E(C)               :       -0.503181826268 Eh       
E(XC)              :      -15.111516812670 Eh       
DFET-embed. en.    :        0.000000000000 Eh       

---------------
SCF CONVERGENCE
---------------

  Last Energy change         ...    1.0658e-12  Tolerance :   1.0000e-09
  Last MAX-Density change    ...    1.8036e-04  Tolerance :   1.0000e-08
  Last RMS-Density change    ...    1.1265e-06  Tolerance :   1.0000e-09
  Last DIIS Error            ...    1.0085e-07  Tolerance :   1.0000e-08

             **** THE GBW FILE WAS UPDATED (bh2f_pbe.gbw) ****
             **** DENSITY FILE WAS UPDATED (bh2f_pbe.scfp.tmp) ****
             **** ENERGY FILE WAS UPDATED (bh2f_pbe.en.tmp) ****
----------------------
UHF SPIN CONTAMINATION
----------------------

Warning: in a DFT calculation there is little theoretical justification to 
         calculate <S**2> as in Hartree-Fock theory. We will do it anyways
         but you should keep in mind that the values have only limited relevance

Expectation value of <S**2>     :     0.000000
Ideal value S*(S+1) for S=0.0   :     0.000000
Deviation                       :     0.000000

----------------
ORBITAL ENERGIES
----------------
                 SPIN UP ORBITALS
  NO   OCC          E(Eh)            E(eV) 
   0   1.0000     -24.279406      -660.6762 
   1   1.0000      -6.567079      -178.6993 
   2   1.0000      -1.127651       -30.6849 
   3   1.0000      -0.510417       -13.8892 
   4   1.0000      -0.426178       -11.5969 
   5   1.0000      -0.416029       -11.3207 
   6   1.0000      -0.403063       -10.9679 
   7   1.0000      -0.285784        -7.7766 
   8   0.0000      -0.084092        -2.2883 
   9   0.0000      -0.005517        -0.1501 
  10   0.0000       0.006241         0.1698 
  11   0.0000       0.011173         0.3040 
  12   0.0000       0.016517         0.4494 
  13   0.0000       0.032930         0.8961 
  14   0.0000       0.034100         0.9279 
  15   0.0000       0.042423         1.1544 
  16   0.0000       0.045890         1.2487 
  17   0.0000       0.052105         1.4178 
  18   0.0000       0.052771         1.4360 
  19   0.0000       0.058590         1.5943 
  20   0.0000       0.059001         1.6055 
  21   0.0000       0.061522         1.6741 
  22   0.0000       0.083364         2.2684 
  23   0.0000       0.092554         2.5185 
  24   0.0000       0.094434         2.5697 
  25   0.0000       0.098224         2.6728 
  26   0.0000       0.100163         2.7256 
  27   0.0000       0.102197         2.7809 
  28   0.0000       0.107804         2.9335 
  29   0.0000       0.117402         3.1947 
  30   0.0000       0.121788         3.3140 
  31   0.0000       0.129204         3.5158 
  32   0.0000       0.129817         3.5325 
  33   0.0000       0.133775         3.6402 
  34   0.0000       0.137874         3.7517 
  35   0.0000       0.154099         4.1933 
  36   0.0000       0.159485         4.3398 
  37   0.0000       0.161310         4.3895 
  38   0.0000       0.165347         4.4993 
  39   0.0000       0.165849         4.5130 
  40   0.0000       0.177040         4.8175 
  41   0.0000       0.186923         5.0864 
  42   0.0000       0.191093         5.1999 
  43   0.0000       0.191883         5.2214 
  44   0.0000       0.194467         5.2917 
  45   0.0000       0.200960         5.4684 
  46   0.0000       0.212959         5.7949 
  47   0.0000       0.218943         5.9577 
  48   0.0000       0.220144         5.9904 
  49   0.0000       0.222006         6.0411 
  50   0.0000       0.224293         6.1033 
  51   0.0000       0.224687         6.1140 
  52   0.0000       0.232938         6.3386 
  53   0.0000       0.234814         6.3896 
  54   0.0000       0.255375         6.9491 
  55   0.0000       0.263510         7.1705 
  56   0.0000       0.275785         7.5045 
  57   0.0000       0.283437         7.7127 
  58   0.0000       0.290756         7.9119 
  59   0.0000       0.296249         8.0613 
  60   0.0000       0.298371         8.1191 
  61   0.0000       0.298595         8.1252 
  62   0.0000       0.302159         8.2222 
  63   0.0000       0.308421         8.3926 
  64   0.0000       0.315606         8.5881 
  65   0.0000       0.316957         8.6249 
  66   0.0000       0.320927         8.7329 
  67   0.0000       0.325341         8.8530 
  68   0.0000       0.326493         8.8843 
  69   0.0000       0.332265         9.0414 
  70   0.0000       0.338440         9.2094 
  71   0.0000       0.340359         9.2616 
  72   0.0000       0.340606         9.2683 
  73   0.0000       0.341459         9.2916 
  74   0.0000       0.354658         9.6507 
  75   0.0000       0.364249         9.9117 
  76   0.0000       0.370779        10.0894 
  77   0.0000       0.382805        10.4167 
  78   0.0000       0.385851        10.4995 
  79   0.0000       0.387832        10.5535 
  80   0.0000       0.401927        10.9370 
  81   0.0000       0.406173        11.0525 
  82   0.0000       0.420634        11.4460 
  83   0.0000       0.422542        11.4980 
  84   0.0000       0.430452        11.7132 
  85   0.0000       0.451913        12.2972 
  86   0.0000       0.459297        12.4981 
  87   0.0000       0.474549        12.9131 
  88   0.0000       0.479527        13.0486 
  89   0.0000       0.486426        13.2363 
  90   0.0000       0.487863        13.2754 
  91   0.0000       0.495726        13.4894 
  92   0.0000       0.496098        13.4995 
  93   0.0000       0.520663        14.1680 
  94   0.0000       0.520841        14.1728 
  95   0.0000       0.550306        14.9746 
  96   0.0000       0.552165        15.0252 
  97   0.0000       0.556895        15.1539 
  98   0.0000       0.564957        15.3733 
  99   0.0000       0.574230        15.6256 
 100   0.0000       0.578999        15.7554 
 101   0.0000       0.579042        15.7565 
 102   0.0000       0.584824        15.9139 
 103   0.0000       0.589050        16.0289 
 104   0.0000       0.591794        16.1035 
 105   0.0000       0.603305        16.4168 
 106   0.0000       0.616727        16.7820 
 107   0.0000       0.620726        16.8908 
 108   0.0000       0.623005        16.9528 
 109   0.0000       0.637937        17.3591 
 110   0.0000       0.651549        17.7295 
 111   0.0000       0.652145        17.7458 
 112   0.0000       0.663199        18.0465 
 113   0.0000       0.663910        18.0659 
 114   0.0000       0.680011        18.5040 
 115   0.0000       0.680700        18.5228 
 116   0.0000       0.685418        18.6512 
 117   0.0000       0.692156        18.8345 
 118   0.0000       0.697594        18.9825 
 119   0.0000       0.706859        19.2346 
 120   0.0000       0.708395        19.2764 
 121   0.0000       0.709053        19.2943 
 122   0.0000       0.709213        19.2987 
 123   0.0000       0.728387        19.8204 
 124   0.0000       0.738871        20.1057 
 125   0.0000       0.756050        20.5732 
 126   0.0000       0.760357        20.6904 
 127   0.0000       0.765592        20.8328 
 128   0.0000       0.773135        21.0381 
 129   0.0000       0.773727        21.0542 
 130   0.0000       0.774986        21.0884 
 131   0.0000       0.793902        21.6032 
 132   0.0000       0.816104        22.2073 
 133   0.0000       0.823572        22.4105 
 134   0.0000       0.825347        22.4588 
 135   0.0000       0.846448        23.0330 
 136   0.0000       0.852469        23.1969 
 137   0.0000       0.857069        23.3220 
 138   0.0000       0.878614        23.9083 
 139   0.0000       0.885701        24.1011 
 140   0.0000       0.890140        24.2219 
 141   0.0000       0.897866        24.4322 
 142   0.0000       0.907253        24.6876 
 143   0.0000       0.934446        25.4276 
 144   0.0000       0.974926        26.5291 
 145   0.0000       0.979405        26.6510 
 146   0.0000       0.990211        26.9450 
 147   0.0000       0.990874        26.9630 
 148   0.0000       1.009905        27.4809 
 149   0.0000       1.025670        27.9099 
 150   0.0000       1.027576        27.9618 
 151   0.0000       1.051004        28.5993 
 152   0.0000       1.066804        29.0292 
 153   0.0000       1.076177        29.2843 
 154   0.0000       1.077469        29.3194 
 155   0.0000       1.089432        29.6449 
 156   0.0000       1.094218        29.7752 
 157   0.0000       1.106246        30.1025 
 158   0.0000       1.140779        31.0422 
 159   0.0000       1.161114        31.5955 
 160   0.0000       1.188215        32.3330 
 161   0.0000       1.230685        33.4887 
 162   0.0000       1.246212        33.9112 
 163   0.0000       1.273701        34.6592 
 164   0.0000       1.277042        34.7501 
 165   0.0000       1.302628        35.4463 
 166   0.0000       1.307454        35.5776 
 167   0.0000       1.316338        35.8194 
 168   0.0000       1.318259        35.8717 
 169   0.0000       1.339425        36.4476 
 170   0.0000       1.345656        36.6172 
 171   0.0000       1.357148        36.9299 
 172   0.0000       1.376045        37.4441 
 173   0.0000       1.394786        37.9541 
 174   0.0000       1.397814        38.0365 
 175   0.0000       1.399433        38.0805 
 176   0.0000       1.408694        38.3325 
 177   0.0000       1.411919        38.4203 
 178   0.0000       1.421962        38.6936 
 179   0.0000       1.495504        40.6947 
 180   0.0000       1.507696        41.0265 
 181   0.0000       1.514202        41.2035 
 182   0.0000       1.521766        41.4093 
 183   0.0000       1.566917        42.6380 
 184   0.0000       1.576538        42.8998 
 185   0.0000       1.576786        42.9065 
 186   0.0000       1.615411        43.9576 
 187   0.0000       1.640221        44.6327 
 188   0.0000       1.656264        45.0692 
 189   0.0000       1.676781        45.6275 
 190   0.0000       1.707749        46.4702 
 191   0.0000       1.717586        46.7379 
 192   0.0000       1.718585        46.7651 
 193   0.0000       1.727303        47.0023 
 194   0.0000       1.733945        47.1830 
 195   0.0000       1.737961        47.2923 
 196   0.0000       1.822626        49.5962 
 197   0.0000       1.889386        51.4128 
 198   0.0000       1.924351        52.3642 
 199   0.0000       1.942958        52.8706 
 200   0.0000       2.004089        54.5340 
 201   0.0000       2.006300        54.5942 
 202   0.0000       2.058914        56.0259 
 203   0.0000       2.086958        56.7890 
 204   0.0000       2.091196        56.9043 
 205   0.0000       2.147692        58.4417 
 206   0.0000       2.202493        59.9329 
 207   0.0000       2.336136        63.5695 
 208   0.0000       2.340856        63.6979 
 209   0.0000       2.363235        64.3069 
 210   0.0000       2.369943        64.4894 
 211   0.0000       2.434620        66.2494 
 212   0.0000       2.477656        67.4205 
 213   0.0000       2.489235        67.7355 
 214   0.0000       2.528297        68.7985 
 215   0.0000       2.564352        69.7796 
 216   0.0000       2.652015        72.1650 
 217   0.0000       2.660623        72.3992 
 218   0.0000       2.686590        73.1058 
 219   0.0000       2.764756        75.2328 
 220   0.0000       2.817021        76.6550 
 221   0.0000       2.900608        78.9296 
 222   0.0000       2.962550        80.6151 
 223   0.0000       3.048391        82.9509 
 224   0.0000       3.052172        83.0538 
 225   0.0000       3.103287        84.4447 
 226   0.0000       3.113258        84.7160 
 227   0.0000       3.150418        85.7272 
 228   0.0000       3.185390        86.6789 
 229   0.0000       3.199486        87.0624 
 230   0.0000       3.276746        89.1648 
 231   0.0000       3.279412        89.2373 
 232   0.0000       3.337082        90.8066 
 233   0.0000       3.346691        91.0681 
 234   0.0000       3.412589        92.8613 
 235   0.0000       3.437479        93.5386 
 236   0.0000       3.456942        94.0682 
 237   0.0000       3.499891        95.2369 
 238   0.0000       3.569477        97.1304 
 239   0.0000       3.607543        98.1662 
 240   0.0000       3.617921        98.4486 
 241   0.0000       3.644043        99.1594 
 242   0.0000       3.664567        99.7179 
 243   0.0000       3.688055       100.3571 
 244   0.0000       3.812976       103.7564 
 245   0.0000       3.817390       103.8765 
 246   0.0000       3.822537       104.0165 
 247   0.0000       3.838459       104.4498 
 248   0.0000       3.883022       105.6624 
 249   0.0000       3.905706       106.2797 
 250   0.0000       3.930793       106.9623 
 251   0.0000       3.934249       107.0564 
 252   0.0000       3.947169       107.4079 
 253   0.0000       4.015558       109.2689 
 254   0.0000       4.034060       109.7724 
 255   0.0000       4.127701       112.3204 
 256   0.0000       4.142166       112.7141 
 257   0.0000       4.190344       114.0251 
 258   0.0000       4.235801       115.2620 
 259   0.0000       4.239281       115.3567 
 260   0.0000       4.323982       117.6615 
 261   0.0000       4.433571       120.6436 
 262   0.0000       4.521287       123.0305 
 263   0.0000       4.533420       123.3606 
 264   0.0000       4.555620       123.9647 
 265   0.0000       4.738787       128.9489 
 266   0.0000       4.744677       129.1092 
 267   0.0000       4.748756       129.2202 
 268   0.0000       4.900416       133.3471 
 269   0.0000       4.920211       133.8858 
 270   0.0000       4.976678       135.4223 
 271   0.0000       5.083369       138.3255 
 272   0.0000       5.206563       141.6778 
 273   0.0000       5.295613       144.1010 
 274   0.0000       5.374736       146.2540 
 275   0.0000       5.416148       147.3809 
 276   0.0000       5.452578       148.3722 
 277   0.0000       5.512723       150.0088 
 278   0.0000       5.538383       150.7071 
 279   0.0000       5.631709       153.2466 
 280   0.0000       5.762370       156.8021 
 281   0.0000       5.796822       157.7395 
 282   0.0000       5.800827       157.8485 
 283   0.0000       5.900724       160.5669 
 284   0.0000       5.903316       160.6374 
 285   0.0000       6.011789       163.5891 
 286   0.0000       6.048314       164.5830 
 287   0.0000       6.159646       167.6125 
 288   0.0000       6.176196       168.0628 
 289   0.0000       6.227406       169.4563 
 290   0.0000       6.349908       172.7898 
 291   0.0000       6.488559       176.5627 
 292   0.0000       6.598090       179.5432 
 293   0.0000       6.813095       185.3937 
 294   0.0000       6.820456       185.5940 
 295   0.0000       6.845396       186.2727 
 296   0.0000       7.098255       193.1534 
 297   0.0000       7.139237       194.2685 
 298   0.0000       7.155975       194.7240 
 299   0.0000       7.216836       196.3801 
 300   0.0000       7.429016       202.1538 
 301   0.0000       7.517179       204.5528 
 302   0.0000       7.656433       208.3421 
 303   0.0000       7.676559       208.8898 
 304   0.0000       7.720877       210.0958 
 305   0.0000       7.873149       214.2393 
 306   0.0000       8.082539       219.9371 
 307   0.0000       8.144816       221.6317 
 308   0.0000       8.342638       227.0147 
 309   0.0000       8.537726       232.3233 
 310   0.0000       8.541504       232.4261 
 311   0.0000       8.599937       234.0162 
 312   0.0000       8.649143       235.3551 
 313   0.0000       8.788942       239.1593 
 314   0.0000       8.804137       239.5728 
 315   0.0000       8.807266       239.6579 
 316   0.0000       8.842402       240.6140 
 317   0.0000       8.843561       240.6455 
 318   0.0000       8.909331       242.4352 
 319   0.0000       8.931970       243.0513 
 320   0.0000       8.953406       243.6346 
 321   0.0000       9.012118       245.2322 
 322   0.0000       9.016618       245.3547 
 323   0.0000       9.126567       248.3465 
 324   0.0000       9.212206       250.6769 
 325   0.0000       9.363590       254.7962 
 326   0.0000       9.574088       260.5242 
 327   0.0000       9.643287       262.4072 
 328   0.0000       9.648714       262.5549 
 329   0.0000       9.710866       264.2461 
 330   0.0000       9.714942       264.3570 
 331   0.0000       9.722714       264.5685 
 332   0.0000       9.748210       265.2623 
 333   0.0000       9.810539       266.9583 
 334   0.0000       9.865354       268.4499 
 335   0.0000       9.868443       268.5340 
 336   0.0000       9.965831       271.1840 
 337   0.0000       9.972572       271.3675 
 338   0.0000      10.067351       273.9466 
 339   0.0000      10.073234       274.1066 
 340   0.0000      10.392492       282.7941 
 341   0.0000      10.412353       283.3345 
 342   0.0000      10.461743       284.6785 
 343   0.0000      10.603237       288.5287 
 344   0.0000      10.739137       292.2268 
 345   0.0000      10.836542       294.8773 
 346   0.0000      11.002479       299.3927 
 347   0.0000      11.064012       301.0671 
 348   0.0000      11.104050       302.1566 
 349   0.0000      11.306053       307.6533 
 350   0.0000      11.368943       309.3647 
 351   0.0000      11.539391       314.0028 
 352   0.0000      11.554811       314.4224 
 353   0.0000      11.711644       318.6900 
 354   0.0000      11.798098       321.0426 
 355   0.0000      12.018847       327.0495 
 356   0.0000      12.031192       327.3854 
 357   0.0000      12.230123       332.7986 
 358   0.0000      12.232773       332.8707 
 359   0.0000      12.341999       335.8429 
 360   0.0000      12.399508       337.4078 
 361   0.0000      12.423029       338.0478 
 362   0.0000      12.447183       338.7051 
 363   0.0000      12.451683       338.8275 
 364   0.0000      12.655039       344.3611 
 365   0.0000      12.656707       344.4065 
 366   0.0000      12.686851       345.2268 
 367   0.0000      12.688453       345.2704 
 368   0.0000      12.703208       345.6719 
 369   0.0000      12.760464       347.2299 
 370   0.0000      12.791825       348.0832 
 371   0.0000      12.834699       349.2499 
 372   0.0000      12.888802       350.7221 
 373   0.0000      12.936558       352.0216 
 374   0.0000      12.972888       353.0102 
 375   0.0000      13.029678       354.5556 
 376   0.0000      13.153437       357.9232 
 377   0.0000      13.300993       361.9384 
 378   0.0000      13.330032       362.7286 
 379   0.0000      13.442405       365.7864 
 380   0.0000      13.811625       375.8334 
 381   0.0000      13.838483       376.5643 
 382   0.0000      13.969714       380.1353 
 383   0.0000      14.131890       384.5483 
 384   0.0000      14.162892       385.3919 
 385   0.0000      14.171691       385.6313 
 386   0.0000      14.354234       390.5986 
 387   0.0000      14.416193       392.2846 
 388   0.0000      14.571548       396.5120 
 389   0.0000      14.629718       398.0949 
 390   0.0000      14.799335       402.7104 
 391   0.0000      14.814796       403.1311 
 392   0.0000      15.013128       408.5280 
 393   0.0000      15.069442       410.0604 
 394   0.0000      15.085246       410.4904 
 395   0.0000      15.371933       418.2916 
 396   0.0000      15.461107       420.7181 
 397   0.0000      15.739511       428.2939 
 398   0.0000      16.126691       438.8296 
 399   0.0000      16.225466       441.5174 
 400   0.0000      16.749678       455.7819 
 401   0.0000      16.757538       455.9958 
 402   0.0000      16.766460       456.2386 
 403   0.0000      16.767225       456.2594 
 404   0.0000      16.879755       459.3215 
 405   0.0000      16.902088       459.9292 
 406   0.0000      16.929420       460.6729 
 407   0.0000      16.982879       462.1276 
 408   0.0000      16.998444       462.5512 
 409   0.0000      17.204205       468.1502 
 410   0.0000      17.687273       481.2952 
 411   0.0000      17.812826       484.7116 
 412   0.0000      17.971132       489.0194 
 413   0.0000      18.007918       490.0204 
 414   0.0000      18.724328       509.5149 
 415   0.0000      19.141182       520.8581 
 416   0.0000      19.241388       523.5848 
 417   0.0000      19.257940       524.0352 
 418   0.0000      19.359517       526.7992 
 419   0.0000      19.758245       537.6492 
 420   0.0000      19.838683       539.8380 
 421   0.0000      20.101854       546.9993 
 422   0.0000      20.102472       547.0161 
 423   0.0000      20.288516       552.0786 
 424   0.0000      20.374538       554.4194 
 425   0.0000      20.402542       555.1814 
 426   0.0000      20.651921       561.9673 
 427   0.0000      20.770306       565.1888 
 428   0.0000      20.998440       571.3966 
 429   0.0000      21.120963       574.7306 
 430   0.0000      22.001290       598.6855 
 431   0.0000      22.004438       598.7712 
 432   0.0000      22.129573       602.1763 
 433   0.0000      22.198629       604.0554 
 434   0.0000      22.511599       612.5717 
 435   0.0000      23.032628       626.7497 
 436   0.0000      23.433281       637.6520 
 437   0.0000      23.443605       637.9329 
 438   0.0000      23.760315       646.5510 
 439   0.0000      23.832046       648.5029 
 440   0.0000      24.755411       673.6290 
 441   0.0000      25.032075       681.1574 
 442   0.0000      30.371010       826.4372 
 443   0.0000      30.477247       829.3280 
 444   0.0000      30.755722       836.9057 
 445   0.0000      31.050789       844.9349 
 446   0.0000      32.003318       870.8546 
 447   0.0000      40.683839      1107.0635 
 448   0.0000      40.882228      1112.4620 
 449   0.0000      41.676363      1134.0715 
 450   0.0000      41.874461      1139.4620 
 451   0.0000      42.067895      1144.7256 
 452   0.0000      44.378827      1207.6093 
 453   0.0000      80.006100      2177.0767 
 454   0.0000      91.019706      2476.7721 
 455   0.0000      91.020491      2476.7935 
 456   0.0000      91.240508      2482.7804 
 457   0.0000      91.271039      2483.6112 
 458   0.0000      91.291813      2484.1765 
 459   0.0000      91.362055      2486.0879 
 460   0.0000      91.538968      2490.9019 
 461   0.0000      91.740727      2496.3921 
 462   0.0000      91.903538      2500.8224 
 463   0.0000      92.135132      2507.1244 
 464   0.0000      92.451234      2515.7260 
 465   0.0000     202.492312      5510.0959 

                 SPIN DOWN ORBITALS
  NO   OCC          E(Eh)            E(eV) 
   0   1.0000     -24.279406      -660.6762 
   1   1.0000      -6.567079      -178.6993 
   2   1.0000      -1.127651       -30.6849 
   3   1.0000      -0.510417       -13.8892 
   4   1.0000      -0.426178       -11.5969 
   5   1.0000      -0.416029       -11.3207 
   6   1.0000      -0.403063       -10.9679 
   7   1.0000      -0.285784        -7.7766 
   8   0.0000      -0.084092        -2.2883 
   9   0.0000      -0.005517        -0.1501 
  10   0.0000       0.006241         0.1698 
  11   0.0000       0.011173         0.3040 
  12   0.0000       0.016517         0.4494 
  13   0.0000       0.032930         0.8961 
  14   0.0000       0.034100         0.9279 
  15   0.0000       0.042423         1.1544 
  16   0.0000       0.045890         1.2487 
  17   0.0000       0.052105         1.4178 
  18   0.0000       0.052771         1.4360 
  19   0.0000       0.058590         1.5943 
  20   0.0000       0.059001         1.6055 
  21   0.0000       0.061522         1.6741 
  22   0.0000       0.083364         2.2684 
  23   0.0000       0.092554         2.5185 
  24   0.0000       0.094434         2.5697 
  25   0.0000       0.098224         2.6728 
  26   0.0000       0.100163         2.7256 
  27   0.0000       0.102197         2.7809 
  28   0.0000       0.107804         2.9335 
  29   0.0000       0.117402         3.1947 
  30   0.0000       0.121788         3.3140 
  31   0.0000       0.129204         3.5158 
  32   0.0000       0.129817         3.5325 
  33   0.0000       0.133775         3.6402 
  34   0.0000       0.137874         3.7517 
  35   0.0000       0.154099         4.1933 
  36   0.0000       0.159485         4.3398 
  37   0.0000       0.161310         4.3895 
  38   0.0000       0.165347         4.4993 
  39   0.0000       0.165849         4.5130 
  40   0.0000       0.177040         4.8175 
  41   0.0000       0.186923         5.0864 
  42   0.0000       0.191093         5.1999 
  43   0.0000       0.191883         5.2214 
  44   0.0000       0.194467         5.2917 
  45   0.0000       0.200960         5.4684 
  46   0.0000       0.212959         5.7949 
  47   0.0000       0.218943         5.9577 
  48   0.0000       0.220144         5.9904 
  49   0.0000       0.222006         6.0411 
  50   0.0000       0.224293         6.1033 
  51   0.0000       0.224687         6.1140 
  52   0.0000       0.232938         6.3386 
  53   0.0000       0.234814         6.3896 
  54   0.0000       0.255375         6.9491 
  55   0.0000       0.263510         7.1705 
  56   0.0000       0.275785         7.5045 
  57   0.0000       0.283437         7.7127 
  58   0.0000       0.290756         7.9119 
  59   0.0000       0.296249         8.0613 
  60   0.0000       0.298371         8.1191 
  61   0.0000       0.298595         8.1252 
  62   0.0000       0.302159         8.2222 
  63   0.0000       0.308421         8.3926 
  64   0.0000       0.315606         8.5881 
  65   0.0000       0.316957         8.6249 
  66   0.0000       0.320927         8.7329 
  67   0.0000       0.325341         8.8530 
  68   0.0000       0.326493         8.8843 
  69   0.0000       0.332265         9.0414 
  70   0.0000       0.338440         9.2094 
  71   0.0000       0.340359         9.2616 
  72   0.0000       0.340606         9.2683 
  73   0.0000       0.341459         9.2916 
  74   0.0000       0.354658         9.6507 
  75   0.0000       0.364249         9.9117 
  76   0.0000       0.370779        10.0894 
  77   0.0000       0.382805        10.4167 
  78   0.0000       0.385851        10.4995 
  79   0.0000       0.387832        10.5535 
  80   0.0000       0.401927        10.9370 
  81   0.0000       0.406173        11.0525 
  82   0.0000       0.420634        11.4460 
  83   0.0000       0.422542        11.4980 
  84   0.0000       0.430452        11.7132 
  85   0.0000       0.451913        12.2972 
  86   0.0000       0.459297        12.4981 
  87   0.0000       0.474549        12.9131 
  88   0.0000       0.479527        13.0486 
  89   0.0000       0.486426        13.2363 
  90   0.0000       0.487863        13.2754 
  91   0.0000       0.495726        13.4894 
  92   0.0000       0.496098        13.4995 
  93   0.0000       0.520663        14.1680 
  94   0.0000       0.520841        14.1728 
  95   0.0000       0.550306        14.9746 
  96   0.0000       0.552165        15.0252 
  97   0.0000       0.556895        15.1539 
  98   0.0000       0.564957        15.3733 
  99   0.0000       0.574230        15.6256 
 100   0.0000       0.578999        15.7554 
 101   0.0000       0.579042        15.7565 
 102   0.0000       0.584824        15.9139 
 103   0.0000       0.589050        16.0289 
 104   0.0000       0.591794        16.1035 
 105   0.0000       0.603305        16.4168 
 106   0.0000       0.616727        16.7820 
 107   0.0000       0.620726        16.8908 
 108   0.0000       0.623005        16.9528 
 109   0.0000       0.637937        17.3591 
 110   0.0000       0.651549        17.7295 
 111   0.0000       0.652145        17.7458 
 112   0.0000       0.663199        18.0465 
 113   0.0000       0.663910        18.0659 
 114   0.0000       0.680011        18.5040 
 115   0.0000       0.680700        18.5228 
 116   0.0000       0.685418        18.6512 
 117   0.0000       0.692156        18.8345 
 118   0.0000       0.697594        18.9825 
 119   0.0000       0.706859        19.2346 
 120   0.0000       0.708395        19.2764 
 121   0.0000       0.709053        19.2943 
 122   0.0000       0.709213        19.2987 
 123   0.0000       0.728387        19.8204 
 124   0.0000       0.738871        20.1057 
 125   0.0000       0.756050        20.5732 
 126   0.0000       0.760357        20.6904 
 127   0.0000       0.765592        20.8328 
 128   0.0000       0.773135        21.0381 
 129   0.0000       0.773727        21.0542 
 130   0.0000       0.774986        21.0884 
 131   0.0000       0.793902        21.6032 
 132   0.0000       0.816104        22.2073 
 133   0.0000       0.823572        22.4105 
 134   0.0000       0.825347        22.4588 
 135   0.0000       0.846448        23.0330 
 136   0.0000       0.852469        23.1969 
 137   0.0000       0.857069        23.3220 
 138   0.0000       0.878614        23.9083 
 139   0.0000       0.885701        24.1011 
 140   0.0000       0.890140        24.2219 
 141   0.0000       0.897866        24.4322 
 142   0.0000       0.907253        24.6876 
 143   0.0000       0.934446        25.4276 
 144   0.0000       0.974926        26.5291 
 145   0.0000       0.979405        26.6510 
 146   0.0000       0.990211        26.9450 
 147   0.0000       0.990874        26.9630 
 148   0.0000       1.009905        27.4809 
 149   0.0000       1.025670        27.9099 
 150   0.0000       1.027576        27.9618 
 151   0.0000       1.051004        28.5993 
 152   0.0000       1.066804        29.0292 
 153   0.0000       1.076177        29.2843 
 154   0.0000       1.077469        29.3194 
 155   0.0000       1.089432        29.6449 
 156   0.0000       1.094218        29.7752 
 157   0.0000       1.106246        30.1025 
 158   0.0000       1.140779        31.0422 
 159   0.0000       1.161114        31.5955 
 160   0.0000       1.188215        32.3330 
 161   0.0000       1.230685        33.4887 
 162   0.0000       1.246212        33.9112 
 163   0.0000       1.273701        34.6592 
 164   0.0000       1.277042        34.7501 
 165   0.0000       1.302628        35.4463 
 166   0.0000       1.307454        35.5776 
 167   0.0000       1.316338        35.8194 
 168   0.0000       1.318259        35.8717 
 169   0.0000       1.339425        36.4476 
 170   0.0000       1.345656        36.6172 
 171   0.0000       1.357148        36.9299 
 172   0.0000       1.376045        37.4441 
 173   0.0000       1.394786        37.9541 
 174   0.0000       1.397814        38.0365 
 175   0.0000       1.399433        38.0805 
 176   0.0000       1.408694        38.3325 
 177   0.0000       1.411919        38.4203 
 178   0.0000       1.421962        38.6936 
 179   0.0000       1.495504        40.6947 
 180   0.0000       1.507696        41.0265 
 181   0.0000       1.514202        41.2035 
 182   0.0000       1.521766        41.4093 
 183   0.0000       1.566917        42.6380 
 184   0.0000       1.576538        42.8998 
 185   0.0000       1.576786        42.9065 
 186   0.0000       1.615411        43.9576 
 187   0.0000       1.640221        44.6327 
 188   0.0000       1.656264        45.0692 
 189   0.0000       1.676781        45.6275 
 190   0.0000       1.707749        46.4702 
 191   0.0000       1.717586        46.7379 
 192   0.0000       1.718585        46.7651 
 193   0.0000       1.727303        47.0023 
 194   0.0000       1.733945        47.1830 
 195   0.0000       1.737961        47.2923 
 196   0.0000       1.822626        49.5962 
 197   0.0000       1.889386        51.4128 
 198   0.0000       1.924351        52.3642 
 199   0.0000       1.942958        52.8706 
 200   0.0000       2.004089        54.5340 
 201   0.0000       2.006300        54.5942 
 202   0.0000       2.058914        56.0259 
 203   0.0000       2.086958        56.7890 
 204   0.0000       2.091196        56.9043 
 205   0.0000       2.147692        58.4417 
 206   0.0000       2.202493        59.9329 
 207   0.0000       2.336136        63.5695 
 208   0.0000       2.340856        63.6979 
 209   0.0000       2.363235        64.3069 
 210   0.0000       2.369943        64.4894 
 211   0.0000       2.434620        66.2494 
 212   0.0000       2.477656        67.4205 
 213   0.0000       2.489235        67.7355 
 214   0.0000       2.528297        68.7985 
 215   0.0000       2.564352        69.7796 
 216   0.0000       2.652015        72.1650 
 217   0.0000       2.660623        72.3992 
 218   0.0000       2.686590        73.1058 
 219   0.0000       2.764756        75.2328 
 220   0.0000       2.817021        76.6550 
 221   0.0000       2.900608        78.9296 
 222   0.0000       2.962550        80.6151 
 223   0.0000       3.048391        82.9509 
 224   0.0000       3.052172        83.0538 
 225   0.0000       3.103287        84.4447 
 226   0.0000       3.113258        84.7160 
 227   0.0000       3.150418        85.7272 
 228   0.0000       3.185390        86.6789 
 229   0.0000       3.199486        87.0624 
 230   0.0000       3.276746        89.1648 
 231   0.0000       3.279412        89.2373 
 232   0.0000       3.337082        90.8066 
 233   0.0000       3.346691        91.0681 
 234   0.0000       3.412589        92.8613 
 235   0.0000       3.437479        93.5386 
 236   0.0000       3.456942        94.0682 
 237   0.0000       3.499891        95.2369 
 238   0.0000       3.569477        97.1304 
 239   0.0000       3.607543        98.1662 
 240   0.0000       3.617921        98.4486 
 241   0.0000       3.644043        99.1594 
 242   0.0000       3.664567        99.7179 
 243   0.0000       3.688055       100.3571 
 244   0.0000       3.812976       103.7564 
 245   0.0000       3.817390       103.8765 
 246   0.0000       3.822537       104.0165 
 247   0.0000       3.838459       104.4498 
 248   0.0000       3.883022       105.6624 
 249   0.0000       3.905706       106.2797 
 250   0.0000       3.930793       106.9623 
 251   0.0000       3.934249       107.0564 
 252   0.0000       3.947169       107.4079 
 253   0.0000       4.015558       109.2689 
 254   0.0000       4.034060       109.7724 
 255   0.0000       4.127701       112.3204 
 256   0.0000       4.142166       112.7141 
 257   0.0000       4.190344       114.0251 
 258   0.0000       4.235801       115.2620 
 259   0.0000       4.239281       115.3567 
 260   0.0000       4.323982       117.6615 
 261   0.0000       4.433571       120.6436 
 262   0.0000       4.521287       123.0305 
 263   0.0000       4.533420       123.3606 
 264   0.0000       4.555620       123.9647 
 265   0.0000       4.738787       128.9489 
 266   0.0000       4.744677       129.1092 
 267   0.0000       4.748756       129.2202 
 268   0.0000       4.900416       133.3471 
 269   0.0000       4.920211       133.8858 
 270   0.0000       4.976678       135.4223 
 271   0.0000       5.083369       138.3255 
 272   0.0000       5.206563       141.6778 
 273   0.0000       5.295613       144.1010 
 274   0.0000       5.374736       146.2540 
 275   0.0000       5.416148       147.3809 
 276   0.0000       5.452578       148.3722 
 277   0.0000       5.512723       150.0088 
 278   0.0000       5.538383       150.7071 
 279   0.0000       5.631709       153.2466 
 280   0.0000       5.762370       156.8021 
 281   0.0000       5.796822       157.7395 
 282   0.0000       5.800827       157.8485 
 283   0.0000       5.900724       160.5669 
 284   0.0000       5.903316       160.6374 
 285   0.0000       6.011789       163.5891 
 286   0.0000       6.048314       164.5830 
 287   0.0000       6.159646       167.6125 
 288   0.0000       6.176196       168.0628 
 289   0.0000       6.227406       169.4563 
 290   0.0000       6.349908       172.7898 
 291   0.0000       6.488559       176.5627 
 292   0.0000       6.598090       179.5432 
 293   0.0000       6.813095       185.3937 
 294   0.0000       6.820456       185.5940 
 295   0.0000       6.845396       186.2727 
 296   0.0000       7.098255       193.1534 
 297   0.0000       7.139237       194.2685 
 298   0.0000       7.155975       194.7240 
 299   0.0000       7.216836       196.3801 
 300   0.0000       7.429016       202.1538 
 301   0.0000       7.517179       204.5528 
 302   0.0000       7.656433       208.3421 
 303   0.0000       7.676559       208.8898 
 304   0.0000       7.720877       210.0958 
 305   0.0000       7.873149       214.2393 
 306   0.0000       8.082539       219.9371 
 307   0.0000       8.144816       221.6317 
 308   0.0000       8.342638       227.0147 
 309   0.0000       8.537726       232.3233 
 310   0.0000       8.541504       232.4261 
 311   0.0000       8.599937       234.0162 
 312   0.0000       8.649143       235.3551 
 313   0.0000       8.788942       239.1593 
 314   0.0000       8.804137       239.5728 
 315   0.0000       8.807266       239.6579 
 316   0.0000       8.842402       240.6140 
 317   0.0000       8.843561       240.6455 
 318   0.0000       8.909331       242.4352 
 319   0.0000       8.931970       243.0513 
 320   0.0000       8.953406       243.6346 
 321   0.0000       9.012118       245.2322 
 322   0.0000       9.016618       245.3547 
 323   0.0000       9.126567       248.3465 
 324   0.0000       9.212206       250.6769 
 325   0.0000       9.363590       254.7962 
 326   0.0000       9.574088       260.5242 
 327   0.0000       9.643287       262.4072 
 328   0.0000       9.648714       262.5549 
 329   0.0000       9.710866       264.2461 
 330   0.0000       9.714942       264.3570 
 331   0.0000       9.722714       264.5685 
 332   0.0000       9.748210       265.2623 
 333   0.0000       9.810539       266.9583 
 334   0.0000       9.865354       268.4499 
 335   0.0000       9.868443       268.5340 
 336   0.0000       9.965831       271.1840 
 337   0.0000       9.972572       271.3675 
 338   0.0000      10.067351       273.9466 
 339   0.0000      10.073234       274.1066 
 340   0.0000      10.392492       282.7941 
 341   0.0000      10.412353       283.3345 
 342   0.0000      10.461743       284.6785 
 343   0.0000      10.603237       288.5287 
 344   0.0000      10.739137       292.2268 
 345   0.0000      10.836542       294.8773 
 346   0.0000      11.002479       299.3927 
 347   0.0000      11.064012       301.0671 
 348   0.0000      11.104050       302.1566 
 349   0.0000      11.306053       307.6533 
 350   0.0000      11.368943       309.3647 
 351   0.0000      11.539391       314.0028 
 352   0.0000      11.554811       314.4224 
 353   0.0000      11.711644       318.6900 
 354   0.0000      11.798098       321.0426 
 355   0.0000      12.018847       327.0495 
 356   0.0000      12.031192       327.3854 
 357   0.0000      12.230123       332.7986 
 358   0.0000      12.232773       332.8707 
 359   0.0000      12.341999       335.8429 
 360   0.0000      12.399508       337.4078 
 361   0.0000      12.423029       338.0478 
 362   0.0000      12.447183       338.7051 
 363   0.0000      12.451683       338.8275 
 364   0.0000      12.655039       344.3611 
 365   0.0000      12.656707       344.4065 
 366   0.0000      12.686851       345.2268 
 367   0.0000      12.688453       345.2704 
 368   0.0000      12.703208       345.6719 
 369   0.0000      12.760464       347.2299 
 370   0.0000      12.791825       348.0832 
 371   0.0000      12.834699       349.2499 
 372   0.0000      12.888802       350.7221 
 373   0.0000      12.936558       352.0216 
 374   0.0000      12.972888       353.0102 
 375   0.0000      13.029678       354.5556 
 376   0.0000      13.153437       357.9232 
 377   0.0000      13.300993       361.9384 
 378   0.0000      13.330032       362.7286 
 379   0.0000      13.442405       365.7864 
 380   0.0000      13.811625       375.8334 
 381   0.0000      13.838483       376.5643 
 382   0.0000      13.969714       380.1353 
 383   0.0000      14.131890       384.5483 
 384   0.0000      14.162892       385.3919 
 385   0.0000      14.171691       385.6313 
 386   0.0000      14.354234       390.5986 
 387   0.0000      14.416193       392.2846 
 388   0.0000      14.571548       396.5120 
 389   0.0000      14.629718       398.0949 
 390   0.0000      14.799335       402.7104 
 391   0.0000      14.814796       403.1311 
 392   0.0000      15.013128       408.5280 
 393   0.0000      15.069442       410.0604 
 394   0.0000      15.085246       410.4904 
 395   0.0000      15.371933       418.2916 
 396   0.0000      15.461107       420.7181 
 397   0.0000      15.739511       428.2939 
 398   0.0000      16.126691       438.8296 
 399   0.0000      16.225466       441.5174 
 400   0.0000      16.749678       455.7819 
 401   0.0000      16.757538       455.9958 
 402   0.0000      16.766460       456.2386 
 403   0.0000      16.767225       456.2594 
 404   0.0000      16.879755       459.3215 
 405   0.0000      16.902088       459.9292 
 406   0.0000      16.929420       460.6729 
 407   0.0000      16.982879       462.1276 
 408   0.0000      16.998444       462.5512 
 409   0.0000      17.204205       468.1502 
 410   0.0000      17.687273       481.2952 
 411   0.0000      17.812826       484.7116 
 412   0.0000      17.971132       489.0194 
 413   0.0000      18.007918       490.0204 
 414   0.0000      18.724328       509.5149 
 415   0.0000      19.141182       520.8581 
 416   0.0000      19.241388       523.5848 
 417   0.0000      19.257940       524.0352 
 418   0.0000      19.359517       526.7992 
 419   0.0000      19.758245       537.6492 
 420   0.0000      19.838683       539.8380 
 421   0.0000      20.101854       546.9993 
 422   0.0000      20.102472       547.0161 
 423   0.0000      20.288516       552.0786 
 424   0.0000      20.374538       554.4194 
 425   0.0000      20.402542       555.1814 
 426   0.0000      20.651921       561.9673 
 427   0.0000      20.770306       565.1888 
 428   0.0000      20.998440       571.3966 
 429   0.0000      21.120963       574.7306 
 430   0.0000      22.001290       598.6855 
 431   0.0000      22.004438       598.7712 
 432   0.0000      22.129573       602.1763 
 433   0.0000      22.198629       604.0554 
 434   0.0000      22.511599       612.5717 
 435   0.0000      23.032628       626.7497 
 436   0.0000      23.433281       637.6520 
 437   0.0000      23.443605       637.9329 
 438   0.0000      23.760315       646.5510 
 439   0.0000      23.832046       648.5029 
 440   0.0000      24.755411       673.6290 
 441   0.0000      25.032075       681.1574 
 442   0.0000      30.371010       826.4372 
 443   0.0000      30.477247       829.3280 
 444   0.0000      30.755722       836.9057 
 445   0.0000      31.050789       844.9349 
 446   0.0000      32.003318       870.8546 
 447   0.0000      40.683839      1107.0635 
 448   0.0000      40.882228      1112.4620 
 449   0.0000      41.676363      1134.0715 
 450   0.0000      41.874461      1139.4620 
 451   0.0000      42.067895      1144.7256 
 452   0.0000      44.378827      1207.6093 
 453   0.0000      80.006100      2177.0767 
 454   0.0000      91.019706      2476.7721 
 455   0.0000      91.020491      2476.7935 
 456   0.0000      91.240508      2482.7804 
 457   0.0000      91.271039      2483.6112 
 458   0.0000      91.291813      2484.1765 
 459   0.0000      91.362055      2486.0879 
 460   0.0000      91.538968      2490.9019 
 461   0.0000      91.740727      2496.3921 
 462   0.0000      91.903538      2500.8224 
 463   0.0000      92.135132      2507.1244 
 464   0.0000      92.451234      2515.7260 
 465   0.0000     202.492312      5510.0959 

                    ********************************
                    * MULLIKEN POPULATION ANALYSIS *
                    ********************************

--------------------------------------------
MULLIKEN ATOMIC CHARGES AND SPIN POPULATIONS
--------------------------------------------
   0 B :    0.278916    0.000000
   1 F :   -0.288971   -0.000000
   2 H :    0.004998   -0.000000
   3 H :    0.005058    0.000000
Sum of atomic charges         :    0.0000000
Sum of atomic spin populations:    0.0000000

-----------------------------------------------------
MULLIKEN REDUCED ORBITAL CHARGES AND SPIN POPULATIONS
-----------------------------------------------------
CHARGE
  0 B s       :     3.101314  s :     3.101314
      pz      :     0.625143  p :     1.470727
      px      :     0.132872
      py      :     0.712712
      dz2     :     0.040071  d :     0.123770
      dxz     :     0.019254
      dyz     :     0.052495
      dx2y2   :     0.011950
      dxy     :     0.000000
      f0      :     0.006340  f :     0.021517
      f+1     :     0.004854
      f-1     :     0.007133
      f+2     :     0.002426
      f-2     :     0.000000
      f+3     :     0.000001
      f-3     :     0.000763
      g0      :     0.001492  g :     0.003712
      g+1     :     0.000867
      g-1     :     0.001044
      g+2     :     0.000036
      g-2     :     0.000000
      g+3     :     0.000005
      g-3     :     0.000224
      g+4     :     0.000043
      g-4     :     0.000000
      h0      :     0.000035  h :     0.000045
      h+1     :     0.000028
      h-1     :    -0.000027
      h+2     :     0.000006
      h-2     :    -0.000000
      h+3     :    -0.000000
      h-3     :    -0.000002
      h+4     :     0.000005
      h-4     :    -0.000000
      h+5     :     0.000000
      h-5     :     0.000000
  1 F s       :     3.908321  s :     3.908321
      pz      :     1.567940  p :     5.335001
      px      :     1.826151
      py      :     1.940910
      dz2     :     0.005458  d :     0.035425
      dxz     :     0.008283
      dyz     :     0.022205
      dx2y2   :    -0.000522
      dxy     :     0.000000
      f0      :     0.000493  f :     0.008125
      f+1     :     0.000942
      f-1     :     0.006865
      f+2     :    -0.000130
      f-2     :     0.000000
      f+3     :     0.000001
      f-3     :    -0.000045
      g0      :     0.000072  g :     0.001796
      g+1     :     0.000089
      g-1     :     0.001718
      g+2     :    -0.000016
      g-2     :     0.000000
      g+3     :    -0.000004
      g-3     :    -0.000063
      g+4     :     0.000000
      g-4     :     0.000000
      h0      :     0.000013  h :     0.000303
      h+1     :     0.000012
      h-1     :     0.000295
      h+2     :     0.000004
      h-2     :    -0.000000
      h+3     :    -0.000001
      h-3     :    -0.000020
      h+4     :     0.000000
      h-4     :    -0.000000
      h+5     :    -0.000000
      h-5     :    -0.000000
  2 H s       :     0.987516  s :     0.987516
      pz      :     0.012574  p :     0.015450
      px      :     0.004544
      py      :    -0.001668
      dz2     :    -0.006312  d :    -0.005401
      dxz     :     0.000496
      dyz     :     0.001870
      dx2y2   :    -0.001330
      dxy     :    -0.000125
      f0      :     0.000211  f :    -0.002015
      f+1     :    -0.000209
      f-1     :    -0.000844
      f+2     :     0.000188
      f-2     :    -0.000731
      f+3     :    -0.000300
      f-3     :    -0.000330
      g0      :    -0.000132  g :    -0.000548
      g+1     :     0.000018
      g-1     :     0.000106
      g+2     :    -0.000092
      g-2     :    -0.000189
      g+3     :    -0.000145
      g-3     :    -0.000007
      g+4     :    -0.000071
      g-4     :    -0.000038
  3 H s       :     0.987464  s :     0.987464
      pz      :     0.012574  p :     0.015441
      px      :     0.004544
      py      :    -0.001677
      dz2     :    -0.006310  d :    -0.005400
      dxz     :     0.000496
      dyz     :     0.001869
      dx2y2   :    -0.001330
      dxy     :    -0.000125
      f0      :     0.000211  f :    -0.002015
      f+1     :    -0.000209
      f-1     :    -0.000843
      f+2     :     0.000188
      f-2     :    -0.000731
      f+3     :    -0.000300
      f-3     :    -0.000330
      g0      :    -0.000132  g :    -0.000548
      g+1     :     0.000018
      g-1     :     0.000106
      g+2     :    -0.000092
      g-2     :    -0.000189
      g+3     :    -0.000145
      g-3     :    -0.000007
      g+4     :    -0.000071
      g-4     :    -0.000038

SPIN
  0 B s       :     0.000000  s :     0.000000
      pz      :     0.000000  p :     0.000000
      px      :     0.000000
      py      :     0.000000
      dz2     :     0.000000  d :     0.000000
      dxz     :    -0.000000
      dyz     :    -0.000000
      dx2y2   :     0.000000
      dxy     :     0.000000
      f0      :     0.000000  f :     0.000000
      f+1     :     0.000000
      f-1     :     0.000000
      f+2     :     0.000000
      f-2     :     0.000000
      f+3     :    -0.000000
      f-3     :    -0.000000
      g0      :     0.000000  g :     0.000000
      g+1     :    -0.000000
      g-1     :     0.000000
      g+2     :     0.000000
      g-2     :    -0.000000
      g+3     :     0.000000
      g-3     :    -0.000000
      g+4     :    -0.000000
      g-4     :    -0.000000
      h0      :    -0.000000  h :    -0.000000
      h+1     :    -0.000000
      h-1     :    -0.000000
      h+2     :    -0.000000
      h-2     :    -0.000000
      h+3     :    -0.000000
      h-3     :    -0.000000
      h+4     :     0.000000
      h-4     :    -0.000000
      h+5     :    -0.000000
      h-5     :    -0.000000
  1 F s       :    -0.000000  s :    -0.000000
      pz      :    -0.000000  p :    -0.000000
      px      :    -0.000000
      py      :     0.000000
      dz2     :     0.000000  d :     0.000000
      dxz     :    -0.000000
      dyz     :     0.000000
      dx2y2   :    -0.000000
      dxy     :    -0.000000
      f0      :     0.000000  f :     0.000000
      f+1     :    -0.000000
      f-1     :     0.000000
      f+2     :    -0.000000
      f-2     :    -0.000000
      f+3     :    -0.000000
      f-3     :     0.000000
      g0      :     0.000000  g :     0.000000
      g+1     :    -0.000000
      g-1     :     0.000000
      g+2     :    -0.000000
      g-2     :    -0.000000
      g+3     :     0.000000
      g-3     :     0.000000
      g+4     :     0.000000
      g-4     :    -0.000000
      h0      :     0.000000  h :     0.000000
      h+1     :    -0.000000
      h-1     :     0.000000
      h+2     :     0.000000
      h-2     :    -0.000000
      h+3     :     0.000000
      h-3     :     0.000000
      h+4     :    -0.000000
      h-4     :     0.000000
      h+5     :     0.000000
      h-5     :    -0.000000
  2 H s       :    -0.000000  s :    -0.000000
      pz      :     0.000000  p :     0.000000
      px      :     0.000000
      py      :     0.000000
      dz2     :     0.000000  d :     0.000000
      dxz     :     0.000000
      dyz     :     0.000000
      dx2y2   :     0.000000
      dxy     :     0.000000
      f0      :     0.000000  f :     0.000000
      f+1     :     0.000000
      f-1     :     0.000000
      f+2     :     0.000000
      f-2     :     0.000000
      f+3     :     0.000000
      f-3     :    -0.000000
      g0      :    -0.000000  g :    -0.000000
      g+1     :     0.000000
      g-1     :    -0.000000
      g+2     :     0.000000
      g-2     :    -0.000000
      g+3     :    -0.000000
      g-3     :     0.000000
      g+4     :    -0.000000
      g-4     :    -0.000000
  3 H s       :     0.000000  s :     0.000000
      pz      :     0.000000  p :     0.000000
      px      :     0.000000
      py      :     0.000000
      dz2     :     0.000000  d :     0.000000
      dxz     :     0.000000
      dyz     :    -0.000000
      dx2y2   :     0.000000
      dxy     :    -0.000000
      f0      :     0.000000  f :     0.000000
      f+1     :     0.000000
      f-1     :     0.000000
      f+2     :     0.000000
      f-2     :     0.000000
      f+3     :    -0.000000
      f-3     :     0.000000
      g0      :    -0.000000  g :     0.000000
      g+1     :    -0.000000
      g-1     :     0.000000
      g+2     :     0.000000
      g-2     :     0.000000
      g+3     :    -0.000000
      g-3     :     0.000000
      g+4     :     0.000000
      g-4     :    -0.000000


                     *******************************
                     * LOEWDIN POPULATION ANALYSIS *
                     *******************************

-------------------------------------------
LOEWDIN ATOMIC CHARGES AND SPIN POPULATIONS
-------------------------------------------
   0 B :    0.199435    0.000000
   1 F :    0.448809   -0.000000
   2 H :   -0.324122    0.000000
   3 H :   -0.324122   -0.000000

----------------------------------------------------
LOEWDIN REDUCED ORBITAL CHARGES AND SPIN POPULATIONS
----------------------------------------------------
CHARGE
  0 B s       :     2.423633  s :     2.423633
      pz      :     0.593740  p :     1.475100
      px      :     0.149341
      py      :     0.732020
      dz2     :     0.212850  d :     0.572478
      dxz     :     0.100975
      dyz     :     0.235838
      dx2y2   :     0.022814
      dxy     :     0.000000
      f0      :     0.089569  f :     0.247707
      f+1     :     0.064826
      f-1     :     0.080898
      f+2     :     0.006409
      f-2     :     0.000000
      f+3     :     0.000105
      f-3     :     0.005900
      g0      :     0.022238  g :     0.077054
      g+1     :     0.024221
      g-1     :     0.028216
      g+2     :     0.000080
      g-2     :     0.000000
      g+3     :     0.000010
      g-3     :     0.001765
      g+4     :     0.000525
      g-4     :     0.000000
      h0      :     0.001758  h :     0.004593
      h+1     :     0.001310
      h-1     :     0.001146
      h+2     :     0.000189
      h-2     :     0.000000
      h+3     :     0.000068
      h-3     :     0.000025
      h+4     :     0.000043
      h-4     :     0.000000
      h+5     :     0.000002
      h-5     :     0.000053
  1 F s       :     3.316972  s :     3.316972
      pz      :     1.675386  p :     4.828661
      px      :     1.505262
      py      :     1.648013
      dz2     :     0.081963  d :     0.214521
      dxz     :     0.004495
      dyz     :     0.127323
      dx2y2   :     0.000739
      dxy     :     0.000000
      f0      :     0.027587  f :     0.117411
      f+1     :     0.003890
      f-1     :     0.082446
      f+2     :     0.003289
      f-2     :     0.000000
      f+3     :     0.000004
      f-3     :     0.000196
      g0      :     0.005519  g :     0.052209
      g+1     :     0.001359
      g-1     :     0.040502
      g+2     :     0.004024
      g-2     :     0.000000
      g+3     :     0.000007
      g-3     :     0.000719
      g+4     :     0.000080
      g-4     :     0.000000
      h0      :     0.003047  h :     0.021416
      h+1     :     0.000199
      h-1     :     0.013528
      h+2     :     0.003008
      h-2     :     0.000000
      h+3     :     0.000019
      h-3     :     0.001490
      h+4     :     0.000115
      h-4     :     0.000000
      h+5     :     0.000002
      h-5     :     0.000007
  2 H s       :     0.778633  s :     0.778633
      pz      :     0.047298  p :     0.193970
      px      :     0.012901
      py      :     0.133771
      dz2     :     0.043079  d :     0.155623
      dxz     :     0.010944
      dyz     :     0.041875
      dx2y2   :     0.050204
      dxy     :     0.009522
      f0      :     0.019266  f :     0.109376
      f+1     :     0.006499
      f-1     :     0.038280
      f+2     :     0.014001
      f-2     :     0.010586
      f+3     :     0.002597
      f-3     :     0.018146
      g0      :     0.016768  g :     0.086520
      g+1     :     0.003772
      g-1     :     0.021290
      g+2     :     0.019433
      g-2     :     0.009575
      g+3     :     0.005034
      g-3     :     0.004240
      g+4     :     0.005886
      g-4     :     0.000522
  3 H s       :     0.778633  s :     0.778633
      pz      :     0.047298  p :     0.193970
      px      :     0.012901
      py      :     0.133771
      dz2     :     0.043079  d :     0.155623
      dxz     :     0.010944
      dyz     :     0.041875
      dx2y2   :     0.050204
      dxy     :     0.009522
      f0      :     0.019266  f :     0.109376
      f+1     :     0.006499
      f-1     :     0.038280
      f+2     :     0.014001
      f-2     :     0.010586
      f+3     :     0.002597
      f-3     :     0.018146
      g0      :     0.016768  g :     0.086520
      g+1     :     0.003772
      g-1     :     0.021290
      g+2     :     0.019433
      g-2     :     0.009575
      g+3     :     0.005034
      g-3     :     0.004240
      g+4     :     0.005886
      g-4     :     0.000522

SPIN
  0 B s       :     0.000000  s :     0.000000
      pz      :     0.000000  p :     0.000000
      px      :    -0.000000
      py      :     0.000000
      dz2     :    -0.000000  d :    -0.000000
      dxz     :     0.000000
      dyz     :    -0.000000
      dx2y2   :     0.000000
      dxy     :     0.000000
      f0      :     0.000000  f :     0.000000
      f+1     :     0.000000
      f-1     :    -0.000000
      f+2     :     0.000000
      f-2     :     0.000000
      f+3     :    -0.000000
      f-3     :    -0.000000
      g0      :     0.000000  g :    -0.000000
      g+1     :     0.000000
      g-1     :    -0.000000
      g+2     :     0.000000
      g-2     :     0.000000
      g+3     :    -0.000000
      g-3     :    -0.000000
      g+4     :     0.000000
      g-4     :    -0.000000
      h0      :    -0.000000  h :     0.000000
      h+1     :    -0.000000
      h-1     :     0.000000
      h+2     :     0.000000
      h-2     :    -0.000000
      h+3     :     0.000000
      h-3     :    -0.000000
      h+4     :     0.000000
      h-4     :    -0.000000
      h+5     :    -0.000000
      h-5     :     0.000000
  1 F s       :    -0.000000  s :    -0.000000
      pz      :    -0.000000  p :    -0.000000
      px      :     0.000000
      py      :    -0.000000
      dz2     :     0.000000  d :     0.000000
      dxz     :    -0.000000
      dyz     :     0.000000
      dx2y2   :     0.000000
      dxy     :     0.000000
      f0      :    -0.000000  f :    -0.000000
      f+1     :     0.000000
      f-1     :    -0.000000
      f+2     :     0.000000
      f-2     :     0.000000
      f+3     :     0.000000
      f-3     :    -0.000000
      g0      :    -0.000000  g :    -0.000000
      g+1     :     0.000000
      g-1     :    -0.000000
      g+2     :     0.000000
      g-2     :     0.000000
      g+3     :     0.000000
      g-3     :     0.000000
      g+4     :     0.000000
      g-4     :     0.000000
      h0      :     0.000000  h :     0.000000
      h+1     :    -0.000000
      h-1     :     0.000000
      h+2     :     0.000000
      h-2     :     0.000000
      h+3     :    -0.000000
      h-3     :    -0.000000
      h+4     :    -0.000000
      h-4     :     0.000000
      h+5     :     0.000000
      h-5     :    -0.000000
  2 H s       :     0.000000  s :     0.000000
      pz      :    -0.000000  p :    -0.000000
      px      :     0.000000
      py      :    -0.000000
      dz2     :     0.000000  d :    -0.000000
      dxz     :     0.000000
      dyz     :    -0.000000
      dx2y2   :    -0.000000
      dxy     :    -0.000000
      f0      :    -0.000000  f :    -0.000000
      f+1     :    -0.000000
      f-1     :     0.000000
      f+2     :     0.000000
      f-2     :    -0.000000
      f+3     :    -0.000000
      f-3     :    -0.000000
      g0      :     0.000000  g :     0.000000
      g+1     :     0.000000
      g-1     :     0.000000
      g+2     :     0.000000
      g-2     :    -0.000000
      g+3     :     0.000000
      g-3     :    -0.000000
      g+4     :     0.000000
      g-4     :    -0.000000
  3 H s       :     0.000000  s :     0.000000
      pz      :    -0.000000  p :    -0.000000
      px      :    -0.000000
      py      :    -0.000000
      dz2     :    -0.000000  d :     0.000000
      dxz     :     0.000000
      dyz     :     0.000000
      dx2y2   :     0.000000
      dxy     :     0.000000
      f0      :    -0.000000  f :    -0.000000
      f+1     :    -0.000000
      f-1     :     0.000000
      f+2     :     0.000000
      f-2     :    -0.000000
      f+3     :    -0.000000
      f-3     :    -0.000000
      g0      :    -0.000000  g :     0.000000
      g+1     :    -0.000000
      g-1     :     0.000000
      g+2     :     0.000000
      g-2     :    -0.000000
      g+3     :     0.000000
      g-3     :    -0.000000
      g+4     :     0.000000
      g-4     :    -0.000000


                      *****************************
                      * MAYER POPULATION ANALYSIS *
                      *****************************

  NA   - Mulliken gross atomic population
  ZA   - Total nuclear charge
  QA   - Mulliken gross atomic charge
  VA   - Mayer's total valence
  BVA  - Mayer's bonded valence
  FA   - Mayer's free valence

  ATOM       NA         ZA         QA         VA         BVA        FA
  0 B      4.7211     5.0000     0.2789     3.0800     3.0800     0.0000
  1 F      9.2890     9.0000    -0.2890     1.4108     1.4108     0.0000
  2 H      0.9950     1.0000     0.0050     0.9204     0.9204     0.0000
  3 H      0.9949     1.0000     0.0051     0.9203     0.9203    -0.0000

  Mayer bond orders larger than 0.1
B(  0-B ,  1-F ) :   1.2731 B(  0-B ,  2-H ) :   0.9035 B(  0-B ,  3-H ) :   0.9034 


-------
TIMINGS
-------

Total SCF time: 0 days 1 hours 41 min 3 sec 

Total time                  ....    6063.531 sec
Sum of individual times     ....    6062.522 sec  (100.0%)

Fock matrix formation       ....    6047.216 sec  ( 99.7%)
  XC integration            ....     201.824 sec  (  3.3% of F)
    Basis function eval.    ....      12.685 sec  (  6.3% of XC)
    Density eval.           ....      49.585 sec  ( 24.6% of XC)
    XC-Functional eval.     ....       1.467 sec  (  0.7% of XC)
    XC-Potential eval.      ....     136.687 sec  ( 67.7% of XC)
Diagonalization             ....       2.289 sec  (  0.0%)
Density matrix formation    ....       0.038 sec  (  0.0%)
Population analysis         ....       0.199 sec  (  0.0%)
Initial guess               ....       8.700 sec  (  0.1%)
Orbital Transformation      ....       0.000 sec  (  0.0%)
Orbital Orthonormalization  ....       0.000 sec  (  0.0%)
DIIS solution               ....       1.008 sec  (  0.0%)
Grid generation             ....       3.072 sec  (  0.1%)

-------------------------   --------------------
FINAL SINGLE POINT ENERGY      -125.841501117846
-------------------------   --------------------


                            ***************************************
                            *     ORCA property calculations      *
                            ***************************************

                                    ---------------------
                                    Active property flags
                                    ---------------------
   (+) Dipole Moment
   (+) Polarizability


------------------------------------------------------------------------------
                       ORCA ELECTRIC PROPERTIES CALCULATION
------------------------------------------------------------------------------

Dipole Moment Calculation                       ... on
Quadrupole Moment Calculation                   ... off
Polarizability Calculation                      ... Analytic (CP-SCF)
GBWName                                         ... bh2f_pbe.gbw
Electron density file                           ... bh2f_pbe.scfp.tmp
The origin for moment calculation is the CENTER OF MASS  = ( 0.000000,  0.000000  1.417589)

-------------
DIPOLE MOMENT
-------------
                                X             Y             Z
Electronic contribution:     -0.00000       0.00000       2.16867
Nuclear contribution   :      0.00000       0.00000      -2.40939
                        -----------------------------------------
Total Dipole Moment    :     -0.00000       0.00000      -0.24072
                        -----------------------------------------
Magnitude (a.u.)       :      0.24072
Magnitude (Debye)      :      0.61186



--------------------
Rotational spectrum 
--------------------
 
Rotational constants in cm-1:     7.443490     1.080369     0.943436 
Rotational constants in MHz : 223150.205883 32388.645097 28283.498944 

 Dipole components along the rotational axes: 
x,y,z [a.u.] :    -0.240720     0.000000    -0.000000 
x,y,z [Debye]:    -0.611863     0.000000    -0.000000 

 
Transforming and storing MO dipole integrals   ... done

                ... starting polarizability calculation

Opening the Dipole integral file               ... (bh2f_pbe.dmo.tmp) done
Reading Dipole-MO integrals                    ... done
Solving CP-SCF equations                       ... 
------------------------------------------------------------------------------
                           ORCA CP-SCF CALCULATION
------------------------------------------------------------------------------

Input orbitals are from        ... bh2f_pbe.gbw
Input Perturbation             ... bh2f_pbe.cpv.tmp
Wavefunction output            ... bh2f_pbe.cpu.tmp
Perturbation mode              ... Real perturbation (singlet)
Solver                         ... POPLE
Max. number of iterations      ... 200
Convergence tolerance          ... 1.000e-06
Integral handling              ... Direct
Number of perturbations        ... 3
Number of operators            ... 2
Orbital ranges used for CP-SCF:
 Operator 0:  Orbitals   0...  7  to   8...465
 Operator 1:  Orbitals   0...  7  to   8...465
DFT calculation                         ... on
Exchange functional (SCF)               ... PBE
Exchange functional (CP-SCF)            ... PBE
   PBE kappa parameter  XKappa (SCF)    ...  0.804000
   PBE kappa parameter  XKappa (CP-SCF) ...  0.804000
   PBE mue parameter   XMuePBE (SCF)    ...  0.219520
   PBE mue parameter   XMuePBE (CP-SCF) ...  0.219520
Correlation functional (SCF)            ... PBE
Correlation functional (CP-SCF)         ... PBE
   PBE beta parameter CBetaPBE (SCF)    ...  0.066725
   PBE beta parameter CBetaPBE (CP-SCF) ...  0.066725
 LDA part of GGA corr.  LDAOpt (SCF)    ... PW91-LDA
 LDA part of GGA corr.  LDAOpt (CP-SCF) ... PW91-LDA
Variables per vector in CP-SCF ... 7328
Number of vectors sought       ... 3
Recalculating density on grid  ... done
Calculating the xc-kernel      ... done
     CP-SCF ITERATION   0: 
     CP-SCF ITERATION   1:      0.102767488839
     CP-SCF ITERATION   2:      0.001566523961
     CP-SCF ITERATION   3:      0.000122334309
     CP-SCF ITERATION   4:      0.000000715086
done
Reading CP-SCF coefficients                    ... done
Doing the polarizability tensor   ... done
Cleaning up                                    ... done

-------------------------
THE POLARIZABILITY TENSOR
-------------------------

The raw cartesian tensor (atomic units):
   15.18997     -0.00000     -0.00000  
   -0.00000     19.41716     -0.00000  
   -0.00000     -0.00000     19.27822  
diagonalized tensor: 
   15.18997     19.27822     19.41716  

    1.00000      0.00000     -0.00000  
    0.00000     -0.00000      1.00000  
    0.00000     -1.00000     -0.00000  

Isotropic polarizability :  17.96178


Timings for individual modules:

Sum of individual times         ...    10068.819 sec (= 167.814 min)
GTO integral calculation        ...        1.887 sec (=   0.031 min)   0.0 %
SCF iterations                  ...     6063.553 sec (= 101.059 min)  60.2 %
Solution of CP-SCF eqns.        ...     4003.379 sec (=  66.723 min)  39.8 %
                             ****ORCA TERMINATED NORMALLY****
TOTAL RUN TIME: 0 days 2 hours 47 minutes 49 seconds 530 msec
