
                                 *****************
                                 * O   R   C   A *
                                 *****************

           --- An Ab Initio, DFT and Semiempirical electronic structure package ---

                  #######################################################
                  #                        -***-                        #
                  #          Department of theory and spectroscopy      #
                  #               Directorship: Frank Neese             #
                  #        Max Planck Institute fuer Kohlenforschung    #
                  #                Kaiser Wilhelm Platz 1               #
                  #                 D-45470 Muelheim/Ruhr               #
                  #                      Germany                        #
                  #                                                     #
                  #                  All rights reserved                #
                  #                        -***-                        #
                  #######################################################


                         Program Version 4.1.2  - RELEASE  -


 With contributions from (in alphabetic order):
   Daniel Aravena         : Magnetic Properties
   Michael Atanasov       : Ab Initio Ligand Field Theory
   Alexander A. Auer      : GIAO ZORA
   Ute Becker             : Parallelization
   Giovanni Bistoni       : ED, Open-shell LED
   Martin Brehm           : Molecular dynamics
   Dmytro Bykov           : SCF Hessian
   Vijay G. Chilkuri      : MRCI spin determinant printing
   Dipayan Datta          : RHF DLPNO-CCSD density
   Achintya Kumar Dutta   : EOM-CC, STEOM-CC
   Dmitry Ganyushin       : Spin-Orbit,Spin-Spin,Magnetic field MRCI
   Miquel Garcia          : C-PCM Hessian
   Yang Guo               : DLPNO-NEVPT2, CIM, IAO-localization
   Andreas Hansen         : Spin unrestricted coupled pair/coupled cluster methods
   Benjamin Helmich-Paris : CASSCF linear response (MC-RPA)
   Lee Huntington         : MR-EOM, pCC
   Robert Izsak           : Overlap fitted RIJCOSX, COSX-SCS-MP3, EOM
   Christian Kollmar      : KDIIS, OOCD, Brueckner-CCSD(T), CCSD density
   Simone Kossmann        : Meta GGA functionals, TD-DFT gradient, OOMP2, MP2 Hessian
   Martin Krupicka        : AUTO-CI
   Lucas Lang             : DCDCAS
   Dagmar Lenk            : GEPOL surface, SMD
   Dimitrios Liakos       : Extrapolation schemes; parallel MDCI
   Dimitrios Manganas     : ROCIS; embedding schemes
   Dimitrios Pantazis     : SARC Basis sets
   Taras Petrenko         : DFT Hessian,TD-DFT gradient, ASA, ECA, R-Raman, ABS, FL, XAS/XES, NRVS
   Peter Pinski           : DLPNO-MP2, DLPNO-MP2 Gradient
   Christoph Reimann      : Effective Core Potentials
   Marius Retegan         : Local ZFS, SOC
   Christoph Riplinger    : Optimizer, TS searches, QM/MM, DLPNO-CCSD(T), (RO)-DLPNO pert. Triples
   Tobias Risthaus        : Range-separated hybrids, TD-DFT gradient, RPA, STAB
   Michael Roemelt        : Restricted open shell CIS
   Masaaki Saitow         : Open-shell DLPNO
   Barbara Sandhoefer     : DKH picture change effects
   Avijit Sen             : IP-ROCIS
   Kantharuban Sivalingam : CASSCF convergence, NEVPT2, FIC-MRCI
   Bernardo de Souza      : ESD, SOC TD-DFT
   Georgi Stoychev        : AutoAux, RI-MP2 NMR
   Willem Van den Heuvel  : Paramagnetic NMR
   Boris Wezisla          : Elementary symmetry handling
   Frank Wennmohs         : Technical directorship


 We gratefully acknowledge several colleagues who have allowed us to
 interface, adapt or use parts of their codes:
   Stefan Grimme, W. Hujo, H. Kruse,             : VdW corrections, initial TS optimization,
                  C. Bannwarth                     DFT functionals, gCP, sTDA/sTD-DF
   Ed Valeev                                     : LibInt (2-el integral package), F12 methods
   Garnet Chan, S. Sharma, J. Yang, R. Olivares  : DMRG
   Ulf Ekstrom                                   : XCFun DFT Library
   Mihaly Kallay                                 : mrcc  (arbitrary order and MRCC methods)
   Andreas Klamt, Michael Diedenhofen            : otool_cosmo (COSMO solvation model)
   Jiri Pittner, Ondrej Demel                    : Mk-CCSD
   Frank Weinhold                                : gennbo (NPA and NBO analysis)
   Christopher J. Cramer and Donald G. Truhlar   : smd solvation model
   Lars Goerigk                                  : TD-DFT with DH, B97 family of functionals
   V. Asgeirsson, H. Jonsson                     : NEB implementation
   FAccTs GmbH                                   : IRC, NEB, NEB-TS, Multilevel


 Your calculation uses the libint2 library for the computation of 2-el integrals
 For citations please refer to: http://libint.valeyev.net

 This ORCA versions uses:
   CBLAS   interface :  Fast vector & matrix operations
   LAPACKE interface :  Fast linear algebra routines
   SCALAPACK package :  Parallel linear algebra routines


----- Orbital basis set information -----
Your calculation utilizes the basis: aug-pc-4
   H, C-F              : F. Jensen, J. Chem. Phys. 115, 9113 (2001).
                         F. Jensen, J. Chem. Phys. 116, 7372 (2002).
                         F. Jensen, J. Chem. Phys. 117, 9234 (2002).
   Si-Cl               : F. Jensen, T. Helgaker, J. Chem. Phys. 121, 3463 (2004).
   He-B, Ne-Mg, Al, Ar : F. Jensen, J. Phys. Chem. A 111, 11198 (2007).
   K, Ca, Ga-Kr        : F. Jensen, J. Chem. Phys. 136, 094110 (2012).
   Sc-Zn               : F. Jensen, J. Chem. Phys. 138, 014107 (2013).

================================================================================
                                        WARNINGS
                       Please study these warnings very carefully!
================================================================================


INFO   : the flag for use of LIBINT has been found!

================================================================================
                                       INPUT FILE
================================================================================
NAME = bh3_pbe.inp
|  1> !uks pbe nori aug-pc-4 grid7 nofinalgrid verytightscf
|  2> 
|  3> %maxcore 1500
|  4> 
|  5> %pal nprocs 1 end
|  6> 
|  7> %scf
|  8> 	maxiter 200
|  9> end
| 10> %elprop
| 11> 	dipole true
| 12> 	 polar 1
| 13> 	 maxiter 200
| 14> end
| 15> 
| 16> * xyz 0 1
| 17> B 0.0000 0.0000 0.0000
| 18> H 0.0000 1.1900 0.0000
| 19> H 1.0306 -0.5950 0.0000
| 20> H -1.0306 -0.5950 0.0000
| 21> *
| 22> 
| 23>                          ****END OF INPUT****
================================================================================

                       ****************************
                       * Single Point Calculation *
                       ****************************

---------------------------------
CARTESIAN COORDINATES (ANGSTROEM)
---------------------------------
  B      0.000000    0.000000    0.000000
  H      0.000000    1.190000    0.000000
  H      1.030600   -0.595000    0.000000
  H     -1.030600   -0.595000    0.000000

----------------------------
CARTESIAN COORDINATES (A.U.)
----------------------------
  NO LB      ZA    FRAG     MASS         X           Y           Z
   0 B     5.0000    0    10.810    0.000000    0.000000    0.000000
   1 H     1.0000    0     1.008    0.000000    2.248774    0.000000
   2 H     1.0000    0     1.008    1.947552   -1.124387    0.000000
   3 H     1.0000    0     1.008   -1.947552   -1.124387    0.000000

--------------------------------
INTERNAL COORDINATES (ANGSTROEM)
--------------------------------
 B      0   0   0     0.000000000000     0.00000000     0.00000000
 H      1   0   0     1.190000000000     0.00000000     0.00000000
 H      1   2   0     1.190025781233   119.99928335     0.00000000
 H      1   2   3     1.190025781233   119.99928335   180.00000000

---------------------------
INTERNAL COORDINATES (A.U.)
---------------------------
 B      0   0   0     0.000000000000     0.00000000     0.00000000
 H      1   0   0     2.248774099366     0.00000000     0.00000000
 H      1   2   0     2.248822818837   119.99928335     0.00000000
 H      1   2   3     2.248822818837   119.99928335   180.00000000

---------------------
BASIS SET INFORMATION
---------------------
There are 2 groups of distinct atoms

 Group   1 Type B   : 27s12p7d4f3g2h contracted to 9s8p7d4f3g2h pattern {1191111111/51111111/1111111/1111/111/11}
 Group   2 Type H   : 12s7p4d3f2g contracted to 8s7p4d3f2g pattern {51111111/1111111/1111/111/11}

Atom   0B    basis set group =>   1
Atom   1H    basis set group =>   2
Atom   2H    basis set group =>   2
Atom   3H    basis set group =>   2
------------------------------------------------------------------------------
                           ORCA GTO INTEGRAL CALCULATION
------------------------------------------------------------------------------

                         BASIS SET STATISTICS AND STARTUP INFO

 # of primitive gaussian shells          ...  139
 # of primitive gaussian functions       ...  451
 # of contracted shells                  ...  105
 # of contracted basis functions         ...  409
 Highest angular momentum                ...    5
 Maximum contraction depth               ...   11
 Integral package used                   ... LIBINT
 Integral threshhold            Thresh   ...  1.000e-12
 Primitive cut-off              TCut     ...  1.000e-14


------------------------------ INTEGRAL EVALUATION ----------------------------


 * One electron integrals 
 Pre-screening matrix                    ... done
 Shell pair data                         ... done (   0.002 sec)

-------------------------------------------------------------------------------
                                 ORCA SCF
-------------------------------------------------------------------------------

------------
SCF SETTINGS
------------
Hamiltonian:
 Density Functional     Method          .... DFT(GTOs)
 Exchange Functional    Exchange        .... PBE
   PBE kappa parameter   XKappa         ....  0.804000
   PBE mue parameter    XMuePBE         ....  0.219520
 Correlation Functional Correlation     .... PBE
   PBE beta parameter  CBetaPBE         ....  0.066725
 LDA part of GGA corr.  LDAOpt          .... PW91-LDA
 Gradients option       PostSCFGGA      .... off
   Density functional embedding theory  .... OFF
   NL short-range parameter             ....  6.400000


General Settings:
 Integral files         IntName         .... bh3_pbe
 Hartree-Fock type      HFTyp           .... UHF
 Total Charge           Charge          ....    0
 Multiplicity           Mult            ....    1
 Number of Electrons    NEL             ....    8
 Basis Dimension        Dim             ....  409
 Nuclear Repulsion      ENuc            ....      7.4404134911 Eh

Convergence Acceleration:
 DIIS                   CNVDIIS         .... on
   Start iteration      DIISMaxIt       ....    12
   Startup error        DIISStart       ....  0.200000
   # of expansion vecs  DIISMaxEq       ....     5
   Bias factor          DIISBfac        ....   1.050
   Max. coefficient     DIISMaxC        ....  10.000
 Newton-Raphson         CNVNR           .... off
 SOSCF                  CNVSOSCF        .... off
 Level Shifting         CNVShift        .... on
   Level shift para.    LevelShift      ....    0.2500
   Turn off err/grad.   ShiftErr        ....    0.0010
 Zerner damping         CNVZerner       .... off
 Static damping         CNVDamp         .... on
   Fraction old density DampFac         ....    0.7000
   Max. Damping (<1)    DampMax         ....    0.9800
   Min. Damping (>=0)   DampMin         ....    0.0000
   Turn off err/grad.   DampErr         ....    0.1000
 Fernandez-Rico         CNVRico         .... off

SCF Procedure:
 Maximum # iterations   MaxIter         ....   200
 SCF integral mode      SCFMode         .... Direct
   Integral package                     .... LIBINT
 Reset frequency        DirectResetFreq ....    20
 Integral Threshold     Thresh          ....  1.000e-12 Eh
 Primitive CutOff       TCut            ....  1.000e-14 Eh

Convergence Tolerance:
 Convergence Check Mode ConvCheckMode   .... Total+1el-Energy
 Convergence forced     ConvForced      .... 0
 Energy Change          TolE            ....  1.000e-09 Eh
 1-El. energy change                    ....  1.000e-06 Eh
 DIIS Error             TolErr          ....  1.000e-08


Diagonalization of the overlap matrix:
Smallest eigenvalue                        ... 4.558e-07
Time for diagonalization                   ...    0.043 sec
Threshold for overlap eigenvalues          ... 1.000e-08
Number of eigenvalues below threshold      ... 0
Time for construction of square roots      ...    0.026 sec
Total time needed                          ...    0.070 sec

-------------------
DFT GRID GENERATION
-------------------

General Integration Accuracy     IntAcc      ...  5.670
Radial Grid Type                 RadialGrid  ... Gauss-Chebyshev
Angular Grid (max. acc.)         AngularGrid ... Lebedev-770
Angular grid pruning method      GridPruning ... 3 (G Style)
Weight generation scheme         WeightScheme... Becke
Basis function cutoff            BFCut       ...    1.0000e-12
Integration weight cutoff        WCut        ...    1.0000e-14
Grids for H and He will be reduced by one unit

# of grid points (after initial pruning)     ...  78398 (   0.0 sec)
# of grid points (after weights+screening)   ...  76902 (   0.0 sec)
nearest neighbour list constructed           ...    0.0 sec
Grid point re-assignment to atoms done       ...    0.0 sec
Grid point division into batches done        ...    1.5 sec
Reduced shell lists constructed in    2.6 sec

Total number of grid points                  ...    76902
Total number of batches                      ...     1204
Average number of points per batch           ...       63
Average number of grid points per atom       ...    19226
Average number of shells per batch           ...    79.01 (75.25%)
Average number of basis functions per batch  ...   315.52 (77.14%)
Average number of large shells per batch     ...    70.74 (89.54%)
Average number of large basis fcns per batch ...   283.74 (89.93%)
Maximum spatial batch extension              ...  19.04, 20.96, 24.06 au
Average spatial batch extension              ...   2.21,  2.27,  2.38 au

Time for grid setup =    2.650 sec

------------------------------
INITIAL GUESS: MODEL POTENTIAL
------------------------------
Loading Hartree-Fock densities                     ... done
Calculating cut-offs                               ... done
Setting up the integral package                    ... done
Initializing the effective Hamiltonian             ... done
Starting the Coulomb interaction                   ... done (   0.1 sec)
Reading the grid                                   ... done
Mapping shells                                     ... done
Starting the XC term evaluation                    ... done (   6.5 sec)
  promolecular density results
     # of electrons  =      7.998530989
     EX              =     -4.605257955
     EC              =     -0.209120724
     EX+EC           =     -4.814378679
Transforming the Hamiltonian                       ... done (   0.0 sec)
Diagonalizing the Hamiltonian                      ... done (   0.0 sec)
Back transforming the eigenvectors                 ... done (   0.0 sec)
Now organizing SCF variables                       ... done
                      ------------------
                      INITIAL GUESS DONE (   9.5 sec)
                      ------------------
--------------
SCF ITERATIONS
--------------
ITER       Energy         Delta-E        Max-DP      RMS-DP      [F,P]     Damp
               ***  Starting incremental Fock matrix formation  ***
  0    -26.5334901342   0.000000000000 0.01086916  0.00009233  0.0913707 0.7000
  1    -26.5424553088  -0.008965174569 0.00836607  0.00007938  0.0550561 0.7000
                               ***Turning on DIIS***
  2    -26.5473680740  -0.004912765213 0.01545991  0.00015610  0.0283260 0.0000
  3    -26.5543093021  -0.006941228094 0.01064930  0.00007221  0.0286924 0.0000
  4    -26.5558050833  -0.001495781167 0.00417877  0.00002195  0.0050693 0.0000
  5    -26.5558772345  -0.000072151261 0.00067217  0.00000338  0.0015774 0.0000
  6    -26.5558836798  -0.000006445224 0.00025418  0.00000310  0.0004977 0.0000
  7    -26.5558844705  -0.000000790691 0.00002988  0.00000038  0.0000229 0.0000
  8    -26.5558844716  -0.000000001178 0.00002979  0.00000035  0.0000017 0.0000
                 **** Energy Check signals convergence ****

               *****************************************************
               *                     SUCCESS                       *
               *           SCF CONVERGED AFTER   9 CYCLES          *
               *****************************************************


----------------
TOTAL SCF ENERGY
----------------

Total Energy       :          -26.55588447 Eh            -722.62235 eV

Components:
Nuclear Repulsion  :            7.44041349 Eh             202.46394 eV
Electronic Energy  :          -33.99629796 Eh            -925.08630 eV
One Electron Energy:          -49.12829578 Eh           -1336.84889 eV
Two Electron Energy:           15.13199782 Eh             411.76259 eV

Virial components:
Potential Energy   :          -52.96498133 Eh           -1441.25041 eV
Kinetic Energy     :           26.40909686 Eh             718.62806 eV
Virial Ratio       :            2.00555822


DFT components:
N(Alpha)           :        3.999999793082 electrons
N(Beta)            :        3.999999793082 electrons
N(Total)           :        7.999999586163 electrons
E(X)               :       -4.856794893890 Eh       
E(C)               :       -0.210640510591 Eh       
E(XC)              :       -5.067435404481 Eh       
DFET-embed. en.    :        0.000000000000 Eh       

---------------
SCF CONVERGENCE
---------------

  Last Energy change         ...   -1.9647e-12  Tolerance :   1.0000e-09
  Last MAX-Density change    ...    8.1810e-05  Tolerance :   1.0000e-08
  Last RMS-Density change    ...    9.6938e-07  Tolerance :   1.0000e-09
  Last DIIS Error            ...    1.1050e-07  Tolerance :   1.0000e-08

             **** THE GBW FILE WAS UPDATED (bh3_pbe.gbw) ****
             **** DENSITY FILE WAS UPDATED (bh3_pbe.scfp.tmp) ****
             **** ENERGY FILE WAS UPDATED (bh3_pbe.en.tmp) ****
----------------------
UHF SPIN CONTAMINATION
----------------------

Warning: in a DFT calculation there is little theoretical justification to 
         calculate <S**2> as in Hartree-Fock theory. We will do it anyways
         but you should keep in mind that the values have only limited relevance

Expectation value of <S**2>     :     0.000000
Ideal value S*(S+1) for S=0.0   :     0.000000
Deviation                       :     0.000000

----------------
ORBITAL ENERGIES
----------------
                 SPIN UP ORBITALS
  NO   OCC          E(Eh)            E(eV) 
   0   1.0000      -6.526048      -177.5828 
   1   1.0000      -0.463376       -12.6091 
   2   1.0000      -0.312019        -8.4905 
   3   1.0000      -0.312019        -8.4905 
   4   0.0000      -0.112709        -3.0670 
   5   0.0000      -0.004830        -0.1314 
   6   0.0000       0.011976         0.3259 
   7   0.0000       0.011976         0.3259 
   8   0.0000       0.016987         0.4622 
   9   0.0000       0.034743         0.9454 
  10   0.0000       0.034744         0.9454 
  11   0.0000       0.040052         1.0899 
  12   0.0000       0.047667         1.2971 
  13   0.0000       0.047667         1.2971 
  14   0.0000       0.052769         1.4359 
  15   0.0000       0.054096         1.4720 
  16   0.0000       0.054096         1.4720 
  17   0.0000       0.060922         1.6578 
  18   0.0000       0.078507         2.1363 
  19   0.0000       0.078508         2.1363 
  20   0.0000       0.102135         2.7792 
  21   0.0000       0.106925         2.9096 
  22   0.0000       0.106934         2.9098 
  23   0.0000       0.108737         2.9589 
  24   0.0000       0.118965         3.2372 
  25   0.0000       0.118967         3.2373 
  26   0.0000       0.120226         3.2715 
  27   0.0000       0.123418         3.3584 
  28   0.0000       0.123418         3.3584 
  29   0.0000       0.131353         3.5743 
  30   0.0000       0.133544         3.6339 
  31   0.0000       0.133545         3.6339 
  32   0.0000       0.134787         3.6677 
  33   0.0000       0.159005         4.3267 
  34   0.0000       0.161240         4.3876 
  35   0.0000       0.161240         4.3876 
  36   0.0000       0.181574         4.9409 
  37   0.0000       0.183998         5.0068 
  38   0.0000       0.183999         5.0069 
  39   0.0000       0.190639         5.1876 
  40   0.0000       0.190639         5.1876 
  41   0.0000       0.198906         5.4125 
  42   0.0000       0.199926         5.4402 
  43   0.0000       0.199926         5.4403 
  44   0.0000       0.218365         5.9420 
  45   0.0000       0.219718         5.9788 
  46   0.0000       0.221076         6.0158 
  47   0.0000       0.221101         6.0165 
  48   0.0000       0.231303         6.2941 
  49   0.0000       0.251931         6.8554 
  50   0.0000       0.254911         6.9365 
  51   0.0000       0.254916         6.9366 
  52   0.0000       0.275242         7.4897 
  53   0.0000       0.275242         7.4897 
  54   0.0000       0.285899         7.7797 
  55   0.0000       0.285900         7.7797 
  56   0.0000       0.294989         8.0271 
  57   0.0000       0.294990         8.0271 
  58   0.0000       0.302753         8.2383 
  59   0.0000       0.304473         8.2851 
  60   0.0000       0.307504         8.3676 
  61   0.0000       0.310179         8.4404 
  62   0.0000       0.310181         8.4404 
  63   0.0000       0.321901         8.7594 
  64   0.0000       0.321902         8.7594 
  65   0.0000       0.329364         8.9625 
  66   0.0000       0.330649         8.9974 
  67   0.0000       0.330650         8.9974 
  68   0.0000       0.331898         9.0314 
  69   0.0000       0.331899         9.0314 
  70   0.0000       0.334872         9.1123 
  71   0.0000       0.356023         9.6879 
  72   0.0000       0.373401        10.1608 
  73   0.0000       0.373407        10.1609 
  74   0.0000       0.380731        10.3602 
  75   0.0000       0.391706        10.6589 
  76   0.0000       0.391746        10.6599 
  77   0.0000       0.391747        10.6600 
  78   0.0000       0.401012        10.9121 
  79   0.0000       0.401033        10.9127 
  80   0.0000       0.405455        11.0330 
  81   0.0000       0.405474        11.0335 
  82   0.0000       0.410609        11.1732 
  83   0.0000       0.453853        12.3500 
  84   0.0000       0.473575        12.8866 
  85   0.0000       0.481804        13.1105 
  86   0.0000       0.487233        13.2583 
  87   0.0000       0.490772        13.3546 
  88   0.0000       0.490778        13.3547 
  89   0.0000       0.515189        14.0190 
  90   0.0000       0.515191        14.0191 
  91   0.0000       0.528110        14.3706 
  92   0.0000       0.528117        14.3708 
  93   0.0000       0.531067        14.4511 
  94   0.0000       0.543939        14.8013 
  95   0.0000       0.543942        14.8014 
  96   0.0000       0.574093        15.6219 
  97   0.0000       0.574094        15.6219 
  98   0.0000       0.579528        15.7697 
  99   0.0000       0.591546        16.0968 
 100   0.0000       0.591547        16.0968 
 101   0.0000       0.597153        16.2493 
 102   0.0000       0.597155        16.2494 
 103   0.0000       0.609413        16.5830 
 104   0.0000       0.614891        16.7320 
 105   0.0000       0.630600        17.1595 
 106   0.0000       0.632110        17.2006 
 107   0.0000       0.632123        17.2009 
 108   0.0000       0.641328        17.4514 
 109   0.0000       0.645596        17.5676 
 110   0.0000       0.645598        17.5676 
 111   0.0000       0.662000        18.0139 
 112   0.0000       0.662002        18.0140 
 113   0.0000       0.666736        18.1428 
 114   0.0000       0.673706        18.3325 
 115   0.0000       0.673707        18.3325 
 116   0.0000       0.686765        18.6878 
 117   0.0000       0.687018        18.6947 
 118   0.0000       0.687031        18.6951 
 119   0.0000       0.695558        18.9271 
 120   0.0000       0.695561        18.9272 
 121   0.0000       0.729933        19.8625 
 122   0.0000       0.729942        19.8627 
 123   0.0000       0.730617        19.8811 
 124   0.0000       0.734964        19.9994 
 125   0.0000       0.740732        20.1563 
 126   0.0000       0.756694        20.5907 
 127   0.0000       0.756696        20.5907 
 128   0.0000       0.762883        20.7591 
 129   0.0000       0.762884        20.7591 
 130   0.0000       0.765733        20.8367 
 131   0.0000       0.765743        20.8369 
 132   0.0000       0.772658        21.0251 
 133   0.0000       0.773705        21.0536 
 134   0.0000       0.783116        21.3097 
 135   0.0000       0.833839        22.6899 
 136   0.0000       0.843212        22.9450 
 137   0.0000       0.850806        23.1516 
 138   0.0000       0.850813        23.1518 
 139   0.0000       0.854509        23.2524 
 140   0.0000       0.854511        23.2524 
 141   0.0000       0.870291        23.6818 
 142   0.0000       0.870291        23.6818 
 143   0.0000       0.889855        24.2142 
 144   0.0000       0.891026        24.2461 
 145   0.0000       0.898803        24.4577 
 146   0.0000       0.898805        24.4577 
 147   0.0000       0.903940        24.5975 
 148   0.0000       0.937755        25.5176 
 149   0.0000       0.937767        25.5179 
 150   0.0000       1.024601        27.8808 
 151   0.0000       1.024609        27.8810 
 152   0.0000       1.078936        29.3593 
 153   0.0000       1.139608        31.0103 
 154   0.0000       1.139619        31.0106 
 155   0.0000       1.279687        34.8221 
 156   0.0000       1.279690        34.8221 
 157   0.0000       1.302268        35.4365 
 158   0.0000       1.319790        35.9133 
 159   0.0000       1.319803        35.9137 
 160   0.0000       1.367699        37.2170 
 161   0.0000       1.406214        38.2650 
 162   0.0000       1.432872        38.9904 
 163   0.0000       1.435015        39.0487 
 164   0.0000       1.435015        39.0487 
 165   0.0000       1.435466        39.0610 
 166   0.0000       1.435467        39.0611 
 167   0.0000       1.445997        39.3476 
 168   0.0000       1.451838        39.5065 
 169   0.0000       1.498882        40.7867 
 170   0.0000       1.498883        40.7867 
 171   0.0000       1.532276        41.6953 
 172   0.0000       1.532283        41.6955 
 173   0.0000       1.561731        42.4969 
 174   0.0000       1.587915        43.2094 
 175   0.0000       1.624376        44.2015 
 176   0.0000       1.645993        44.7897 
 177   0.0000       1.645998        44.7899 
 178   0.0000       1.669227        45.4220 
 179   0.0000       1.678387        45.6712 
 180   0.0000       1.678395        45.6715 
 181   0.0000       1.714307        46.6487 
 182   0.0000       1.714319        46.6490 
 183   0.0000       1.802448        49.0471 
 184   0.0000       1.802451        49.0472 
 185   0.0000       1.923206        52.3331 
 186   0.0000       2.029224        55.2180 
 187   0.0000       2.029238        55.2184 
 188   0.0000       2.091447        56.9112 
 189   0.0000       2.116930        57.6046 
 190   0.0000       2.116945        57.6050 
 191   0.0000       2.159377        58.7596 
 192   0.0000       2.159398        58.7602 
 193   0.0000       2.375515        64.6410 
 194   0.0000       2.465403        67.0870 
 195   0.0000       2.465407        67.0871 
 196   0.0000       2.560068        69.6630 
 197   0.0000       2.814730        76.5927 
 198   0.0000       2.944587        80.1263 
 199   0.0000       2.944598        80.1266 
 200   0.0000       2.976421        80.9925 
 201   0.0000       2.976425        80.9926 
 202   0.0000       3.024707        82.3065 
 203   0.0000       3.063385        83.3589 
 204   0.0000       3.119822        84.8947 
 205   0.0000       3.141472        85.4838 
 206   0.0000       3.155089        85.8543 
 207   0.0000       3.155098        85.8546 
 208   0.0000       3.206320        87.2484 
 209   0.0000       3.206321        87.2484 
 210   0.0000       3.299903        89.7949 
 211   0.0000       3.396183        92.4149 
 212   0.0000       3.396184        92.4149 
 213   0.0000       3.462335        94.2149 
 214   0.0000       3.462337        94.2150 
 215   0.0000       3.484957        94.8305 
 216   0.0000       3.553937        96.7075 
 217   0.0000       3.573815        97.2484 
 218   0.0000       3.577268        97.3424 
 219   0.0000       3.577283        97.3428 
 220   0.0000       3.638966        99.0213 
 221   0.0000       3.638973        99.0215 
 222   0.0000       3.683361       100.2293 
 223   0.0000       3.683368       100.2295 
 224   0.0000       3.758991       102.2874 
 225   0.0000       3.759019       102.2881 
 226   0.0000       3.774314       102.7043 
 227   0.0000       3.794674       103.2583 
 228   0.0000       3.800093       103.4058 
 229   0.0000       3.847178       104.6870 
 230   0.0000       3.847190       104.6874 
 231   0.0000       3.876692       105.4902 
 232   0.0000       3.926557       106.8471 
 233   0.0000       3.926562       106.8472 
 234   0.0000       3.952226       107.5455 
 235   0.0000       3.952243       107.5460 
 236   0.0000       4.033172       109.7482 
 237   0.0000       4.033178       109.7484 
 238   0.0000       4.043582       110.0315 
 239   0.0000       4.147506       112.8594 
 240   0.0000       4.371170       118.9456 
 241   0.0000       4.387041       119.3775 
 242   0.0000       4.387051       119.3777 
 243   0.0000       4.458073       121.3103 
 244   0.0000       4.458077       121.3104 
 245   0.0000       4.473122       121.7198 
 246   0.0000       4.473144       121.7204 
 247   0.0000       4.500073       122.4532 
 248   0.0000       4.581046       124.6566 
 249   0.0000       4.790471       130.3553 
 250   0.0000       4.790504       130.3562 
 251   0.0000       4.849478       131.9610 
 252   0.0000       4.849541       131.9627 
 253   0.0000       4.888764       133.0300 
 254   0.0000       5.269064       143.3785 
 255   0.0000       5.421072       147.5149 
 256   0.0000       5.421088       147.5153 
 257   0.0000       5.672180       154.3479 
 258   0.0000       5.763621       156.8361 
 259   0.0000       5.799786       157.8202 
 260   0.0000       5.799840       157.8217 
 261   0.0000       5.845911       159.0753 
 262   0.0000       5.845945       159.0762 
 263   0.0000       5.871347       159.7675 
 264   0.0000       6.113635       166.3605 
 265   0.0000       6.226228       169.4243 
 266   0.0000       6.226244       169.4247 
 267   0.0000       6.469748       176.0508 
 268   0.0000       6.816531       185.4872 
 269   0.0000       6.816560       185.4880 
 270   0.0000       7.599805       206.8012 
 271   0.0000       7.879451       214.4108 
 272   0.0000       7.879458       214.4109 
 273   0.0000       8.413252       228.9362 
 274   0.0000       8.413283       228.9371 
 275   0.0000       8.426677       229.3015 
 276   0.0000       8.468643       230.4435 
 277   0.0000       8.504213       231.4114 
 278   0.0000       8.580921       233.4987 
 279   0.0000       8.580938       233.4992 
 280   0.0000       8.630115       234.8374 
 281   0.0000       8.630168       234.8388 
 282   0.0000       8.660215       235.6564 
 283   0.0000       8.660221       235.6566 
 284   0.0000       8.722287       237.3455 
 285   0.0000       8.724267       237.3994 
 286   0.0000       8.836929       240.4651 
 287   0.0000       8.836963       240.4660 
 288   0.0000       8.869489       241.3511 
 289   0.0000       8.946961       243.4592 
 290   0.0000       8.946974       243.4595 
 291   0.0000       9.071855       246.8577 
 292   0.0000       9.071862       246.8579 
 293   0.0000       9.110622       247.9126 
 294   0.0000       9.353766       254.5289 
 295   0.0000       9.523895       259.1584 
 296   0.0000       9.523917       259.1590 
 297   0.0000       9.594565       261.0814 
 298   0.0000       9.717207       264.4186 
 299   0.0000       9.717215       264.4189 
 300   0.0000       9.760912       265.6079 
 301   0.0000       9.773319       265.9455 
 302   0.0000       9.773338       265.9461 
 303   0.0000       9.864655       268.4309 
 304   0.0000       9.887773       269.0600 
 305   0.0000       9.887794       269.0605 
 306   0.0000       9.968213       271.2489 
 307   0.0000       9.968249       271.2499 
 308   0.0000       9.993899       271.9478 
 309   0.0000      10.103127       274.9201 
 310   0.0000      10.174864       276.8721 
 311   0.0000      10.174867       276.8722 
 312   0.0000      10.197201       277.4799 
 313   0.0000      10.682004       290.6721 
 314   0.0000      10.682026       290.6727 
 315   0.0000      10.778526       293.2986 
 316   0.0000      10.855688       295.3983 
 317   0.0000      10.855697       295.3985 
 318   0.0000      11.058365       300.9134 
 319   0.0000      11.383241       309.7537 
 320   0.0000      11.383309       309.7556 
 321   0.0000      11.624779       316.3263 
 322   0.0000      11.624805       316.3270 
 323   0.0000      11.630724       316.4881 
 324   0.0000      11.630811       316.4905 
 325   0.0000      11.655394       317.1594 
 326   0.0000      11.740880       319.4856 
 327   0.0000      12.063386       328.2614 
 328   0.0000      12.323868       335.3495 
 329   0.0000      12.323876       335.3497 
 330   0.0000      12.377800       336.8171 
 331   0.0000      12.377815       336.8175 
 332   0.0000      12.445502       338.6593 
 333   0.0000      12.558519       341.7347 
 334   0.0000      12.692553       345.3819 
 335   0.0000      12.723778       346.2316 
 336   0.0000      12.745751       346.8295 
 337   0.0000      12.745792       346.8306 
 338   0.0000      13.013135       354.1054 
 339   0.0000      13.013169       354.1063 
 340   0.0000      13.028523       354.5241 
 341   0.0000      13.028618       354.5267 
 342   0.0000      13.429250       365.4285 
 343   0.0000      13.616219       370.5162 
 344   0.0000      13.878756       377.6601 
 345   0.0000      13.878815       377.6618 
 346   0.0000      14.079602       383.1254 
 347   0.0000      14.296393       389.0246 
 348   0.0000      14.296506       389.0277 
 349   0.0000      14.605658       397.4402 
 350   0.0000      14.605852       397.4454 
 351   0.0000      14.980346       407.6359 
 352   0.0000      16.247049       442.1047 
 353   0.0000      16.247162       442.1077 
 354   0.0000      16.760054       456.0643 
 355   0.0000      16.768453       456.2928 
 356   0.0000      16.768456       456.2929 
 357   0.0000      16.770941       456.3605 
 358   0.0000      16.770942       456.3605 
 359   0.0000      16.779162       456.5842 
 360   0.0000      16.882323       459.3914 
 361   0.0000      16.882329       459.3915 
 362   0.0000      16.986515       462.2266 
 363   0.0000      16.986544       462.2274 
 364   0.0000      17.007715       462.8034 
 365   0.0000      17.025506       463.2876 
 366   0.0000      17.541797       477.3366 
 367   0.0000      17.716218       482.0828 
 368   0.0000      17.956074       488.6096 
 369   0.0000      17.956133       488.6112 
 370   0.0000      18.071261       491.7440 
 371   0.0000      18.071372       491.7470 
 372   0.0000      18.797335       511.5015 
 373   0.0000      18.913708       514.6682 
 374   0.0000      19.186284       522.0853 
 375   0.0000      19.186405       522.0886 
 376   0.0000      19.262481       524.1588 
 377   0.0000      19.406468       528.0768 
 378   0.0000      19.406592       528.0802 
 379   0.0000      20.049239       545.5675 
 380   0.0000      20.049417       545.5724 
 381   0.0000      20.381271       554.6026 
 382   0.0000      20.798786       565.9637 
 383   0.0000      20.798801       565.9641 
 384   0.0000      21.979509       598.0929 
 385   0.0000      22.346957       608.0916 
 386   0.0000      22.347064       608.0945 
 387   0.0000      23.415474       637.1674 
 388   0.0000      23.415479       637.1676 
 389   0.0000      23.457141       638.3012 
 390   0.0000      23.490014       639.1958 
 391   0.0000      23.725248       645.5968 
 392   0.0000      23.725258       645.5971 
 393   0.0000      24.567283       668.5098 
 394   0.0000      25.087489       682.6653 
 395   0.0000      25.087580       682.6678 
 396   0.0000      40.627644      1105.5344 
 397   0.0000      40.795496      1110.1019 
 398   0.0000      40.795528      1110.1027 
 399   0.0000      80.079836      2179.0831 
 400   0.0000      91.008025      2476.4543 
 401   0.0000      91.008031      2476.4544 
 402   0.0000      91.040582      2477.3402 
 403   0.0000      91.060325      2477.8774 
 404   0.0000      91.214625      2482.0761 
 405   0.0000      91.214630      2482.0763 
 406   0.0000      91.763490      2497.0115 
 407   0.0000      92.165915      2507.9621 
 408   0.0000      92.165977      2507.9637 

                 SPIN DOWN ORBITALS
  NO   OCC          E(Eh)            E(eV) 
   0   1.0000      -6.526048      -177.5828 
   1   1.0000      -0.463376       -12.6091 
   2   1.0000      -0.312019        -8.4905 
   3   1.0000      -0.312019        -8.4905 
   4   0.0000      -0.112709        -3.0670 
   5   0.0000      -0.004830        -0.1314 
   6   0.0000       0.011976         0.3259 
   7   0.0000       0.011976         0.3259 
   8   0.0000       0.016987         0.4622 
   9   0.0000       0.034743         0.9454 
  10   0.0000       0.034744         0.9454 
  11   0.0000       0.040052         1.0899 
  12   0.0000       0.047667         1.2971 
  13   0.0000       0.047667         1.2971 
  14   0.0000       0.052769         1.4359 
  15   0.0000       0.054096         1.4720 
  16   0.0000       0.054096         1.4720 
  17   0.0000       0.060922         1.6578 
  18   0.0000       0.078507         2.1363 
  19   0.0000       0.078508         2.1363 
  20   0.0000       0.102135         2.7792 
  21   0.0000       0.106925         2.9096 
  22   0.0000       0.106934         2.9098 
  23   0.0000       0.108737         2.9589 
  24   0.0000       0.118965         3.2372 
  25   0.0000       0.118967         3.2373 
  26   0.0000       0.120226         3.2715 
  27   0.0000       0.123418         3.3584 
  28   0.0000       0.123418         3.3584 
  29   0.0000       0.131353         3.5743 
  30   0.0000       0.133544         3.6339 
  31   0.0000       0.133545         3.6339 
  32   0.0000       0.134787         3.6677 
  33   0.0000       0.159005         4.3267 
  34   0.0000       0.161240         4.3876 
  35   0.0000       0.161240         4.3876 
  36   0.0000       0.181574         4.9409 
  37   0.0000       0.183998         5.0068 
  38   0.0000       0.183999         5.0069 
  39   0.0000       0.190639         5.1876 
  40   0.0000       0.190639         5.1876 
  41   0.0000       0.198906         5.4125 
  42   0.0000       0.199926         5.4402 
  43   0.0000       0.199926         5.4403 
  44   0.0000       0.218365         5.9420 
  45   0.0000       0.219718         5.9788 
  46   0.0000       0.221076         6.0158 
  47   0.0000       0.221101         6.0165 
  48   0.0000       0.231303         6.2941 
  49   0.0000       0.251931         6.8554 
  50   0.0000       0.254911         6.9365 
  51   0.0000       0.254916         6.9366 
  52   0.0000       0.275242         7.4897 
  53   0.0000       0.275242         7.4897 
  54   0.0000       0.285899         7.7797 
  55   0.0000       0.285900         7.7797 
  56   0.0000       0.294989         8.0271 
  57   0.0000       0.294990         8.0271 
  58   0.0000       0.302753         8.2383 
  59   0.0000       0.304473         8.2851 
  60   0.0000       0.307504         8.3676 
  61   0.0000       0.310179         8.4404 
  62   0.0000       0.310181         8.4404 
  63   0.0000       0.321901         8.7594 
  64   0.0000       0.321902         8.7594 
  65   0.0000       0.329364         8.9625 
  66   0.0000       0.330649         8.9974 
  67   0.0000       0.330650         8.9974 
  68   0.0000       0.331898         9.0314 
  69   0.0000       0.331899         9.0314 
  70   0.0000       0.334872         9.1123 
  71   0.0000       0.356023         9.6879 
  72   0.0000       0.373401        10.1608 
  73   0.0000       0.373407        10.1609 
  74   0.0000       0.380731        10.3602 
  75   0.0000       0.391706        10.6589 
  76   0.0000       0.391746        10.6599 
  77   0.0000       0.391747        10.6600 
  78   0.0000       0.401012        10.9121 
  79   0.0000       0.401033        10.9127 
  80   0.0000       0.405455        11.0330 
  81   0.0000       0.405474        11.0335 
  82   0.0000       0.410609        11.1732 
  83   0.0000       0.453853        12.3500 
  84   0.0000       0.473575        12.8866 
  85   0.0000       0.481804        13.1105 
  86   0.0000       0.487233        13.2583 
  87   0.0000       0.490772        13.3546 
  88   0.0000       0.490778        13.3547 
  89   0.0000       0.515189        14.0190 
  90   0.0000       0.515191        14.0191 
  91   0.0000       0.528110        14.3706 
  92   0.0000       0.528117        14.3708 
  93   0.0000       0.531067        14.4511 
  94   0.0000       0.543939        14.8013 
  95   0.0000       0.543942        14.8014 
  96   0.0000       0.574093        15.6219 
  97   0.0000       0.574094        15.6219 
  98   0.0000       0.579528        15.7697 
  99   0.0000       0.591546        16.0968 
 100   0.0000       0.591547        16.0968 
 101   0.0000       0.597153        16.2493 
 102   0.0000       0.597155        16.2494 
 103   0.0000       0.609413        16.5830 
 104   0.0000       0.614891        16.7320 
 105   0.0000       0.630600        17.1595 
 106   0.0000       0.632110        17.2006 
 107   0.0000       0.632123        17.2009 
 108   0.0000       0.641328        17.4514 
 109   0.0000       0.645596        17.5676 
 110   0.0000       0.645598        17.5676 
 111   0.0000       0.662000        18.0139 
 112   0.0000       0.662002        18.0140 
 113   0.0000       0.666736        18.1428 
 114   0.0000       0.673706        18.3325 
 115   0.0000       0.673707        18.3325 
 116   0.0000       0.686765        18.6878 
 117   0.0000       0.687018        18.6947 
 118   0.0000       0.687031        18.6951 
 119   0.0000       0.695558        18.9271 
 120   0.0000       0.695561        18.9272 
 121   0.0000       0.729933        19.8625 
 122   0.0000       0.729942        19.8627 
 123   0.0000       0.730617        19.8811 
 124   0.0000       0.734964        19.9994 
 125   0.0000       0.740732        20.1563 
 126   0.0000       0.756694        20.5907 
 127   0.0000       0.756696        20.5907 
 128   0.0000       0.762883        20.7591 
 129   0.0000       0.762884        20.7591 
 130   0.0000       0.765733        20.8367 
 131   0.0000       0.765743        20.8369 
 132   0.0000       0.772658        21.0251 
 133   0.0000       0.773705        21.0536 
 134   0.0000       0.783116        21.3097 
 135   0.0000       0.833839        22.6899 
 136   0.0000       0.843212        22.9450 
 137   0.0000       0.850806        23.1516 
 138   0.0000       0.850813        23.1518 
 139   0.0000       0.854509        23.2524 
 140   0.0000       0.854511        23.2524 
 141   0.0000       0.870291        23.6818 
 142   0.0000       0.870291        23.6818 
 143   0.0000       0.889855        24.2142 
 144   0.0000       0.891026        24.2461 
 145   0.0000       0.898803        24.4577 
 146   0.0000       0.898805        24.4577 
 147   0.0000       0.903940        24.5975 
 148   0.0000       0.937755        25.5176 
 149   0.0000       0.937767        25.5179 
 150   0.0000       1.024601        27.8808 
 151   0.0000       1.024609        27.8810 
 152   0.0000       1.078936        29.3593 
 153   0.0000       1.139608        31.0103 
 154   0.0000       1.139619        31.0106 
 155   0.0000       1.279687        34.8221 
 156   0.0000       1.279690        34.8221 
 157   0.0000       1.302268        35.4365 
 158   0.0000       1.319790        35.9133 
 159   0.0000       1.319803        35.9137 
 160   0.0000       1.367699        37.2170 
 161   0.0000       1.406214        38.2650 
 162   0.0000       1.432872        38.9904 
 163   0.0000       1.435015        39.0487 
 164   0.0000       1.435015        39.0487 
 165   0.0000       1.435466        39.0610 
 166   0.0000       1.435467        39.0611 
 167   0.0000       1.445997        39.3476 
 168   0.0000       1.451838        39.5065 
 169   0.0000       1.498882        40.7867 
 170   0.0000       1.498883        40.7867 
 171   0.0000       1.532276        41.6953 
 172   0.0000       1.532283        41.6955 
 173   0.0000       1.561731        42.4969 
 174   0.0000       1.587915        43.2094 
 175   0.0000       1.624376        44.2015 
 176   0.0000       1.645993        44.7897 
 177   0.0000       1.645998        44.7899 
 178   0.0000       1.669227        45.4220 
 179   0.0000       1.678387        45.6712 
 180   0.0000       1.678395        45.6715 
 181   0.0000       1.714307        46.6487 
 182   0.0000       1.714319        46.6490 
 183   0.0000       1.802448        49.0471 
 184   0.0000       1.802451        49.0472 
 185   0.0000       1.923206        52.3331 
 186   0.0000       2.029224        55.2180 
 187   0.0000       2.029238        55.2184 
 188   0.0000       2.091447        56.9112 
 189   0.0000       2.116930        57.6046 
 190   0.0000       2.116945        57.6050 
 191   0.0000       2.159377        58.7596 
 192   0.0000       2.159398        58.7602 
 193   0.0000       2.375515        64.6410 
 194   0.0000       2.465403        67.0870 
 195   0.0000       2.465407        67.0871 
 196   0.0000       2.560068        69.6630 
 197   0.0000       2.814730        76.5927 
 198   0.0000       2.944587        80.1263 
 199   0.0000       2.944598        80.1266 
 200   0.0000       2.976421        80.9925 
 201   0.0000       2.976425        80.9926 
 202   0.0000       3.024707        82.3065 
 203   0.0000       3.063385        83.3589 
 204   0.0000       3.119822        84.8947 
 205   0.0000       3.141472        85.4838 
 206   0.0000       3.155089        85.8543 
 207   0.0000       3.155098        85.8546 
 208   0.0000       3.206320        87.2484 
 209   0.0000       3.206321        87.2484 
 210   0.0000       3.299903        89.7949 
 211   0.0000       3.396183        92.4149 
 212   0.0000       3.396184        92.4149 
 213   0.0000       3.462335        94.2149 
 214   0.0000       3.462337        94.2150 
 215   0.0000       3.484957        94.8305 
 216   0.0000       3.553937        96.7075 
 217   0.0000       3.573815        97.2484 
 218   0.0000       3.577268        97.3424 
 219   0.0000       3.577283        97.3428 
 220   0.0000       3.638966        99.0213 
 221   0.0000       3.638973        99.0215 
 222   0.0000       3.683361       100.2293 
 223   0.0000       3.683368       100.2295 
 224   0.0000       3.758991       102.2874 
 225   0.0000       3.759019       102.2881 
 226   0.0000       3.774314       102.7043 
 227   0.0000       3.794674       103.2583 
 228   0.0000       3.800093       103.4058 
 229   0.0000       3.847178       104.6870 
 230   0.0000       3.847190       104.6874 
 231   0.0000       3.876692       105.4902 
 232   0.0000       3.926557       106.8471 
 233   0.0000       3.926562       106.8472 
 234   0.0000       3.952226       107.5455 
 235   0.0000       3.952243       107.5460 
 236   0.0000       4.033172       109.7482 
 237   0.0000       4.033178       109.7484 
 238   0.0000       4.043582       110.0315 
 239   0.0000       4.147506       112.8594 
 240   0.0000       4.371170       118.9456 
 241   0.0000       4.387041       119.3775 
 242   0.0000       4.387051       119.3777 
 243   0.0000       4.458073       121.3103 
 244   0.0000       4.458077       121.3104 
 245   0.0000       4.473122       121.7198 
 246   0.0000       4.473144       121.7204 
 247   0.0000       4.500073       122.4532 
 248   0.0000       4.581046       124.6566 
 249   0.0000       4.790471       130.3553 
 250   0.0000       4.790504       130.3562 
 251   0.0000       4.849478       131.9610 
 252   0.0000       4.849541       131.9627 
 253   0.0000       4.888764       133.0300 
 254   0.0000       5.269064       143.3785 
 255   0.0000       5.421072       147.5149 
 256   0.0000       5.421088       147.5153 
 257   0.0000       5.672180       154.3479 
 258   0.0000       5.763621       156.8361 
 259   0.0000       5.799786       157.8202 
 260   0.0000       5.799840       157.8217 
 261   0.0000       5.845911       159.0753 
 262   0.0000       5.845945       159.0762 
 263   0.0000       5.871347       159.7675 
 264   0.0000       6.113635       166.3605 
 265   0.0000       6.226228       169.4243 
 266   0.0000       6.226244       169.4247 
 267   0.0000       6.469748       176.0508 
 268   0.0000       6.816531       185.4872 
 269   0.0000       6.816560       185.4880 
 270   0.0000       7.599805       206.8012 
 271   0.0000       7.879451       214.4108 
 272   0.0000       7.879458       214.4109 
 273   0.0000       8.413252       228.9362 
 274   0.0000       8.413283       228.9371 
 275   0.0000       8.426677       229.3015 
 276   0.0000       8.468643       230.4435 
 277   0.0000       8.504213       231.4114 
 278   0.0000       8.580921       233.4987 
 279   0.0000       8.580938       233.4992 
 280   0.0000       8.630115       234.8374 
 281   0.0000       8.630168       234.8388 
 282   0.0000       8.660215       235.6564 
 283   0.0000       8.660221       235.6566 
 284   0.0000       8.722287       237.3455 
 285   0.0000       8.724267       237.3994 
 286   0.0000       8.836929       240.4651 
 287   0.0000       8.836963       240.4660 
 288   0.0000       8.869489       241.3511 
 289   0.0000       8.946961       243.4592 
 290   0.0000       8.946974       243.4595 
 291   0.0000       9.071855       246.8577 
 292   0.0000       9.071862       246.8579 
 293   0.0000       9.110622       247.9126 
 294   0.0000       9.353766       254.5289 
 295   0.0000       9.523895       259.1584 
 296   0.0000       9.523917       259.1590 
 297   0.0000       9.594565       261.0814 
 298   0.0000       9.717207       264.4186 
 299   0.0000       9.717215       264.4189 
 300   0.0000       9.760912       265.6079 
 301   0.0000       9.773319       265.9455 
 302   0.0000       9.773338       265.9461 
 303   0.0000       9.864655       268.4309 
 304   0.0000       9.887773       269.0600 
 305   0.0000       9.887794       269.0605 
 306   0.0000       9.968213       271.2489 
 307   0.0000       9.968249       271.2499 
 308   0.0000       9.993899       271.9478 
 309   0.0000      10.103127       274.9201 
 310   0.0000      10.174864       276.8721 
 311   0.0000      10.174867       276.8722 
 312   0.0000      10.197201       277.4799 
 313   0.0000      10.682004       290.6721 
 314   0.0000      10.682026       290.6727 
 315   0.0000      10.778526       293.2986 
 316   0.0000      10.855688       295.3983 
 317   0.0000      10.855697       295.3985 
 318   0.0000      11.058365       300.9134 
 319   0.0000      11.383241       309.7537 
 320   0.0000      11.383309       309.7556 
 321   0.0000      11.624779       316.3263 
 322   0.0000      11.624805       316.3270 
 323   0.0000      11.630724       316.4881 
 324   0.0000      11.630811       316.4905 
 325   0.0000      11.655394       317.1594 
 326   0.0000      11.740880       319.4856 
 327   0.0000      12.063386       328.2614 
 328   0.0000      12.323868       335.3495 
 329   0.0000      12.323876       335.3497 
 330   0.0000      12.377800       336.8171 
 331   0.0000      12.377815       336.8175 
 332   0.0000      12.445502       338.6593 
 333   0.0000      12.558519       341.7347 
 334   0.0000      12.692553       345.3819 
 335   0.0000      12.723778       346.2316 
 336   0.0000      12.745751       346.8295 
 337   0.0000      12.745792       346.8306 
 338   0.0000      13.013135       354.1054 
 339   0.0000      13.013169       354.1063 
 340   0.0000      13.028523       354.5241 
 341   0.0000      13.028618       354.5267 
 342   0.0000      13.429250       365.4285 
 343   0.0000      13.616219       370.5162 
 344   0.0000      13.878756       377.6601 
 345   0.0000      13.878815       377.6618 
 346   0.0000      14.079602       383.1254 
 347   0.0000      14.296393       389.0246 
 348   0.0000      14.296506       389.0277 
 349   0.0000      14.605658       397.4402 
 350   0.0000      14.605852       397.4454 
 351   0.0000      14.980346       407.6359 
 352   0.0000      16.247049       442.1047 
 353   0.0000      16.247162       442.1077 
 354   0.0000      16.760054       456.0643 
 355   0.0000      16.768453       456.2928 
 356   0.0000      16.768456       456.2929 
 357   0.0000      16.770941       456.3605 
 358   0.0000      16.770942       456.3605 
 359   0.0000      16.779162       456.5842 
 360   0.0000      16.882323       459.3914 
 361   0.0000      16.882329       459.3915 
 362   0.0000      16.986515       462.2266 
 363   0.0000      16.986544       462.2274 
 364   0.0000      17.007715       462.8034 
 365   0.0000      17.025506       463.2876 
 366   0.0000      17.541797       477.3366 
 367   0.0000      17.716218       482.0828 
 368   0.0000      17.956074       488.6096 
 369   0.0000      17.956133       488.6112 
 370   0.0000      18.071261       491.7440 
 371   0.0000      18.071372       491.7470 
 372   0.0000      18.797335       511.5015 
 373   0.0000      18.913708       514.6682 
 374   0.0000      19.186284       522.0853 
 375   0.0000      19.186405       522.0886 
 376   0.0000      19.262481       524.1588 
 377   0.0000      19.406468       528.0768 
 378   0.0000      19.406592       528.0802 
 379   0.0000      20.049239       545.5675 
 380   0.0000      20.049417       545.5724 
 381   0.0000      20.381271       554.6026 
 382   0.0000      20.798786       565.9637 
 383   0.0000      20.798801       565.9641 
 384   0.0000      21.979509       598.0929 
 385   0.0000      22.346957       608.0916 
 386   0.0000      22.347064       608.0945 
 387   0.0000      23.415474       637.1674 
 388   0.0000      23.415479       637.1676 
 389   0.0000      23.457141       638.3012 
 390   0.0000      23.490014       639.1958 
 391   0.0000      23.725248       645.5968 
 392   0.0000      23.725258       645.5971 
 393   0.0000      24.567283       668.5098 
 394   0.0000      25.087489       682.6653 
 395   0.0000      25.087580       682.6678 
 396   0.0000      40.627644      1105.5344 
 397   0.0000      40.795496      1110.1019 
 398   0.0000      40.795528      1110.1027 
 399   0.0000      80.079836      2179.0831 
 400   0.0000      91.008025      2476.4543 
 401   0.0000      91.008031      2476.4544 
 402   0.0000      91.040582      2477.3402 
 403   0.0000      91.060325      2477.8774 
 404   0.0000      91.214625      2482.0761 
 405   0.0000      91.214630      2482.0763 
 406   0.0000      91.763490      2497.0115 
 407   0.0000      92.165915      2507.9621 
 408   0.0000      92.165977      2507.9637 

                    ********************************
                    * MULLIKEN POPULATION ANALYSIS *
                    ********************************

--------------------------------------------
MULLIKEN ATOMIC CHARGES AND SPIN POPULATIONS
--------------------------------------------
   0 B :   -0.155187    0.000000
   1 H :    0.051679    0.000000
   2 H :    0.051744   -0.000000
   3 H :    0.051764   -0.000000
Sum of atomic charges         :    0.0000000
Sum of atomic spin populations:    0.0000000

-----------------------------------------------------
MULLIKEN REDUCED ORBITAL CHARGES AND SPIN POPULATIONS
-----------------------------------------------------
CHARGE
  0 B s       :     3.433386  s :     3.433386
      pz      :    -0.000000  p :     1.662303
      px      :     0.831144
      py      :     0.831158
      dz2     :     0.011153  d :     0.052043
      dxz     :     0.000000
      dyz     :    -0.000000
      dx2y2   :     0.020446
      dxy     :     0.020444
      f0      :    -0.000000  f :     0.006272
      f+1     :     0.000652
      f-1     :     0.000652
      f+2     :     0.000000
      f-2     :     0.000000
      f+3     :     0.000000
      f-3     :     0.004968
      g0      :     0.000018  g :     0.001126
      g+1     :     0.000000
      g-1     :     0.000000
      g+2     :     0.000094
      g-2     :     0.000094
      g+3     :     0.000000
      g-3     :     0.000000
      g+4     :     0.000460
      g-4     :     0.000460
      h0      :     0.000000  h :     0.000058
      h+1     :    -0.000002
      h-1     :    -0.000002
      h+2     :    -0.000000
      h-2     :    -0.000000
      h+3     :     0.000000
      h-3     :     0.000005
      h+4     :    -0.000000
      h-4     :    -0.000000
      h+5     :     0.000028
      h-5     :     0.000028
  1 H s       :     0.938713  s :     0.938713
      pz      :     0.000000  p :     0.012502
      px      :     0.003521
      py      :     0.008981
      dz2     :    -0.000005  d :    -0.002691
      dxz     :    -0.000000
      dyz     :     0.000000
      dx2y2   :     0.012411
      dxy     :    -0.015097
      f0      :    -0.000000  f :    -0.000221
      f+1     :    -0.000822
      f-1     :     0.001001
      f+2     :     0.000000
      f-2     :     0.000000
      f+3     :    -0.001160
      f-3     :     0.000761
      g0      :     0.000058  g :     0.000018
      g+1     :    -0.000000
      g-1     :     0.000000
      g+2     :     0.000062
      g-2     :    -0.000147
      g+3     :    -0.000000
      g-3     :    -0.000000
      g+4     :    -0.000023
      g-4     :     0.000069
  2 H s       :     0.938675  s :     0.938675
      pz      :     0.000000  p :     0.012481
      px      :     0.007597
      py      :     0.004884
      dz2     :    -0.000008  d :    -0.002696
      dxz     :    -0.000000
      dyz     :     0.000000
      dx2y2   :    -0.008223
      dxy     :     0.005534
      f0      :    -0.000000  f :    -0.000222
      f+1     :     0.000545
      f-1     :    -0.000367
      f+2     :     0.000000
      f-2     :    -0.000000
      f+3     :    -0.001160
      f-3     :     0.000761
      g0      :     0.000058  g :     0.000018
      g+1     :     0.000000
      g-1     :    -0.000000
      g+2     :    -0.000095
      g-2     :     0.000010
      g+3     :    -0.000000
      g-3     :    -0.000000
      g+4     :     0.000046
      g-4     :    -0.000000
  3 H s       :     0.938659  s :     0.938659
      pz      :     0.000000  p :     0.012478
      px      :     0.007594
      py      :     0.004883
      dz2     :    -0.000009  d :    -0.002696
      dxz     :    -0.000000
      dyz     :    -0.000000
      dx2y2   :    -0.008222
      dxy     :     0.005534
      f0      :    -0.000000  f :    -0.000222
      f+1     :     0.000544
      f-1     :    -0.000367
      f+2     :     0.000000
      f-2     :     0.000000
      f+3     :    -0.001160
      f-3     :     0.000761
      g0      :     0.000058  g :     0.000018
      g+1     :     0.000000
      g-1     :    -0.000000
      g+2     :    -0.000095
      g-2     :     0.000010
      g+3     :    -0.000000
      g-3     :    -0.000000
      g+4     :     0.000046
      g-4     :    -0.000000

SPIN
  0 B s       :     0.000000  s :     0.000000
      pz      :     0.000000  p :     0.000000
      px      :     0.000000
      py      :     0.000000
      dz2     :     0.000000  d :     0.000000
      dxz     :    -0.000000
      dyz     :     0.000000
      dx2y2   :     0.000000
      dxy     :    -0.000000
      f0      :     0.000000  f :     0.000000
      f+1     :    -0.000000
      f-1     :     0.000000
      f+2     :     0.000000
      f-2     :     0.000000
      f+3     :    -0.000000
      f-3     :     0.000000
      g0      :     0.000000  g :    -0.000000
      g+1     :     0.000000
      g-1     :     0.000000
      g+2     :     0.000000
      g-2     :    -0.000000
      g+3     :    -0.000000
      g-3     :    -0.000000
      g+4     :     0.000000
      g-4     :    -0.000000
      h0      :     0.000000  h :    -0.000000
      h+1     :    -0.000000
      h-1     :     0.000000
      h+2     :     0.000000
      h-2     :    -0.000000
      h+3     :    -0.000000
      h-3     :     0.000000
      h+4     :     0.000000
      h-4     :    -0.000000
      h+5     :    -0.000000
      h-5     :     0.000000
  1 H s       :     0.000000  s :     0.000000
      pz      :     0.000000  p :     0.000000
      px      :     0.000000
      py      :     0.000000
      dz2     :     0.000000  d :    -0.000000
      dxz     :     0.000000
      dyz     :    -0.000000
      dx2y2   :    -0.000000
      dxy     :    -0.000000
      f0      :    -0.000000  f :    -0.000000
      f+1     :    -0.000000
      f-1     :     0.000000
      f+2     :    -0.000000
      f-2     :     0.000000
      f+3     :    -0.000000
      f-3     :    -0.000000
      g0      :     0.000000  g :    -0.000000
      g+1     :    -0.000000
      g-1     :    -0.000000
      g+2     :     0.000000
      g-2     :    -0.000000
      g+3     :     0.000000
      g-3     :    -0.000000
      g+4     :     0.000000
      g-4     :    -0.000000
  2 H s       :    -0.000000  s :    -0.000000
      pz      :    -0.000000  p :    -0.000000
      px      :     0.000000
      py      :    -0.000000
      dz2     :    -0.000000  d :     0.000000
      dxz     :    -0.000000
      dyz     :     0.000000
      dx2y2   :    -0.000000
      dxy     :     0.000000
      f0      :    -0.000000  f :    -0.000000
      f+1     :    -0.000000
      f-1     :    -0.000000
      f+2     :    -0.000000
      f-2     :     0.000000
      f+3     :    -0.000000
      f-3     :     0.000000
      g0      :    -0.000000  g :    -0.000000
      g+1     :    -0.000000
      g-1     :     0.000000
      g+2     :     0.000000
      g-2     :    -0.000000
      g+3     :    -0.000000
      g-3     :     0.000000
      g+4     :    -0.000000
      g-4     :     0.000000
  3 H s       :    -0.000000  s :    -0.000000
      pz      :    -0.000000  p :    -0.000000
      px      :    -0.000000
      py      :    -0.000000
      dz2     :     0.000000  d :     0.000000
      dxz     :     0.000000
      dyz     :    -0.000000
      dx2y2   :    -0.000000
      dxy     :     0.000000
      f0      :    -0.000000  f :     0.000000
      f+1     :     0.000000
      f-1     :     0.000000
      f+2     :     0.000000
      f-2     :    -0.000000
      f+3     :     0.000000
      f-3     :    -0.000000
      g0      :     0.000000  g :     0.000000
      g+1     :    -0.000000
      g-1     :    -0.000000
      g+2     :     0.000000
      g-2     :     0.000000
      g+3     :     0.000000
      g-3     :    -0.000000
      g+4     :     0.000000
      g-4     :     0.000000


                     *******************************
                     * LOEWDIN POPULATION ANALYSIS *
                     *******************************

-------------------------------------------
LOEWDIN ATOMIC CHARGES AND SPIN POPULATIONS
-------------------------------------------
   0 B :    0.849157    0.000000
   1 H :   -0.283062    0.000000
   2 H :   -0.283048   -0.000000
   3 H :   -0.283048   -0.000000

----------------------------------------------------
LOEWDIN REDUCED ORBITAL CHARGES AND SPIN POPULATIONS
----------------------------------------------------
CHARGE
  0 B s       :     2.446875  s :     2.446875
      pz      :     0.000000  p :     1.526361
      px      :     0.763178
      py      :     0.763183
      dz2     :     0.013481  d :     0.152288
      dxz     :     0.000000
      dyz     :     0.000000
      dx2y2   :     0.069405
      dxy     :     0.069402
      f0      :     0.000000  f :     0.021358
      f+1     :     0.004708
      f-1     :     0.004708
      f+2     :     0.000000
      f-2     :     0.000000
      f+3     :     0.000000
      f-3     :     0.011942
      g0      :     0.000341  g :     0.003688
      g+1     :     0.000000
      g-1     :     0.000000
      g+2     :     0.000905
      g-2     :     0.000905
      g+3     :     0.000000
      g-3     :     0.000000
      g+4     :     0.000768
      g-4     :     0.000768
      h0      :     0.000000  h :     0.000273
      h+1     :     0.000056
      h-1     :     0.000056
      h+2     :     0.000000
      h-2     :     0.000000
      h+3     :     0.000000
      h-3     :     0.000056
      h+4     :     0.000000
      h-4     :     0.000000
      h+5     :     0.000052
      h-5     :     0.000052
  1 H s       :     0.791094  s :     0.791094
      pz      :     0.000000  p :     0.233929
      px      :     0.080577
      py      :     0.153352
      dz2     :     0.023260  d :     0.162635
      dxz     :     0.000000
      dyz     :     0.000000
      dx2y2   :     0.047416
      dxy     :     0.091959
      f0      :     0.000000  f :     0.070612
      f+1     :     0.004368
      f-1     :     0.015640
      f+2     :     0.000000
      f-2     :     0.000000
      f+3     :     0.042666
      f-3     :     0.007938
      g0      :     0.002798  g :     0.024792
      g+1     :     0.000000
      g-1     :     0.000000
      g+2     :     0.002012
      g-2     :     0.004948
      g+3     :     0.000000
      g-3     :     0.000000
      g+4     :     0.000495
      g-4     :     0.014540
  2 H s       :     0.791090  s :     0.791090
      pz      :     0.000000  p :     0.233919
      px      :     0.135154
      py      :     0.098765
      dz2     :     0.023259  d :     0.162632
      dxz     :     0.000000
      dyz     :     0.000000
      dx2y2   :     0.080820
      dxy     :     0.058552
      f0      :     0.000000  f :     0.070613
      f+1     :     0.012822
      f-1     :     0.007186
      f+2     :     0.000000
      f-2     :     0.000000
      f+3     :     0.042667
      f-3     :     0.007938
      g0      :     0.002798  g :     0.024794
      g+1     :     0.000000
      g-1     :     0.000000
      g+2     :     0.004214
      g-2     :     0.002746
      g+3     :     0.000000
      g-3     :     0.000000
      g+4     :     0.011030
      g-4     :     0.004006
  3 H s       :     0.791090  s :     0.791090
      pz      :     0.000000  p :     0.233919
      px      :     0.135154
      py      :     0.098765
      dz2     :     0.023259  d :     0.162632
      dxz     :     0.000000
      dyz     :     0.000000
      dx2y2   :     0.080820
      dxy     :     0.058552
      f0      :     0.000000  f :     0.070613
      f+1     :     0.012822
      f-1     :     0.007186
      f+2     :     0.000000
      f-2     :     0.000000
      f+3     :     0.042667
      f-3     :     0.007938
      g0      :     0.002798  g :     0.024794
      g+1     :     0.000000
      g-1     :     0.000000
      g+2     :     0.004214
      g-2     :     0.002746
      g+3     :     0.000000
      g-3     :     0.000000
      g+4     :     0.011030
      g-4     :     0.004006

SPIN
  0 B s       :     0.000000  s :     0.000000
      pz      :     0.000000  p :    -0.000000
      px      :    -0.000000
      py      :     0.000000
      dz2     :     0.000000  d :     0.000000
      dxz     :    -0.000000
      dyz     :     0.000000
      dx2y2   :     0.000000
      dxy     :     0.000000
      f0      :    -0.000000  f :    -0.000000
      f+1     :    -0.000000
      f-1     :    -0.000000
      f+2     :     0.000000
      f-2     :     0.000000
      f+3     :    -0.000000
      f-3     :     0.000000
      g0      :     0.000000  g :    -0.000000
      g+1     :     0.000000
      g-1     :     0.000000
      g+2     :    -0.000000
      g-2     :    -0.000000
      g+3     :    -0.000000
      g-3     :    -0.000000
      g+4     :     0.000000
      g-4     :    -0.000000
      h0      :     0.000000  h :     0.000000
      h+1     :     0.000000
      h-1     :    -0.000000
      h+2     :     0.000000
      h-2     :     0.000000
      h+3     :     0.000000
      h-3     :     0.000000
      h+4     :     0.000000
      h-4     :    -0.000000
      h+5     :     0.000000
      h-5     :    -0.000000
  1 H s       :     0.000000  s :     0.000000
      pz      :     0.000000  p :    -0.000000
      px      :    -0.000000
      py      :    -0.000000
      dz2     :     0.000000  d :     0.000000
      dxz     :     0.000000
      dyz     :    -0.000000
      dx2y2   :     0.000000
      dxy     :     0.000000
      f0      :     0.000000  f :    -0.000000
      f+1     :     0.000000
      f-1     :    -0.000000
      f+2     :    -0.000000
      f-2     :     0.000000
      f+3     :     0.000000
      f-3     :    -0.000000
      g0      :    -0.000000  g :    -0.000000
      g+1     :     0.000000
      g-1     :     0.000000
      g+2     :    -0.000000
      g-2     :     0.000000
      g+3     :    -0.000000
      g-3     :    -0.000000
      g+4     :    -0.000000
      g-4     :    -0.000000
  2 H s       :    -0.000000  s :    -0.000000
      pz      :    -0.000000  p :     0.000000
      px      :     0.000000
      py      :    -0.000000
      dz2     :    -0.000000  d :    -0.000000
      dxz     :    -0.000000
      dyz     :     0.000000
      dx2y2   :    -0.000000
      dxy     :     0.000000
      f0      :    -0.000000  f :     0.000000
      f+1     :     0.000000
      f-1     :    -0.000000
      f+2     :     0.000000
      f-2     :     0.000000
      f+3     :    -0.000000
      f-3     :     0.000000
      g0      :     0.000000  g :     0.000000
      g+1     :     0.000000
      g-1     :    -0.000000
      g+2     :    -0.000000
      g-2     :     0.000000
      g+3     :     0.000000
      g-3     :     0.000000
      g+4     :     0.000000
      g-4     :     0.000000
  3 H s       :    -0.000000  s :    -0.000000
      pz      :    -0.000000  p :     0.000000
      px      :     0.000000
      py      :    -0.000000
      dz2     :    -0.000000  d :    -0.000000
      dxz     :     0.000000
      dyz     :    -0.000000
      dx2y2   :     0.000000
      dxy     :    -0.000000
      f0      :    -0.000000  f :     0.000000
      f+1     :    -0.000000
      f-1     :     0.000000
      f+2     :     0.000000
      f-2     :    -0.000000
      f+3     :     0.000000
      f-3     :    -0.000000
      g0      :    -0.000000  g :    -0.000000
      g+1     :     0.000000
      g-1     :    -0.000000
      g+2     :    -0.000000
      g-2     :     0.000000
      g+3     :     0.000000
      g-3     :    -0.000000
      g+4     :    -0.000000
      g-4     :     0.000000


                      *****************************
                      * MAYER POPULATION ANALYSIS *
                      *****************************

  NA   - Mulliken gross atomic population
  ZA   - Total nuclear charge
  QA   - Mulliken gross atomic charge
  VA   - Mayer's total valence
  BVA  - Mayer's bonded valence
  FA   - Mayer's free valence

  ATOM       NA         ZA         QA         VA         BVA        FA
  0 B      5.1552     5.0000    -0.1552     2.7502     2.7502     0.0000
  1 H      0.9483     1.0000     0.0517     0.8979     0.8979     0.0000
  2 H      0.9483     1.0000     0.0517     0.8977     0.8977    -0.0000
  3 H      0.9482     1.0000     0.0518     0.8977     0.8977     0.0000

  Mayer bond orders larger than 0.1
B(  0-B ,  1-H ) :   0.9168 B(  0-B ,  2-H ) :   0.9167 B(  0-B ,  3-H ) :   0.9167 


-------
TIMINGS
-------

Total SCF time: 0 days 0 hours 44 min 8 sec 

Total time                  ....    2648.043 sec
Sum of individual times     ....    2647.278 sec  (100.0%)

Fock matrix formation       ....    2635.625 sec  ( 99.5%)
  XC integration            ....     131.977 sec  (  5.0% of F)
    Basis function eval.    ....       8.403 sec  (  6.4% of XC)
    Density eval.           ....      29.770 sec  ( 22.6% of XC)
    XC-Functional eval.     ....       1.072 sec  (  0.8% of XC)
    XC-Potential eval.      ....      91.429 sec  ( 69.3% of XC)
Diagonalization             ....       1.363 sec  (  0.1%)
Density matrix formation    ....       0.021 sec  (  0.0%)
Population analysis         ....       0.141 sec  (  0.0%)
Initial guess               ....       6.836 sec  (  0.3%)
Orbital Transformation      ....       0.000 sec  (  0.0%)
Orbital Orthonormalization  ....       0.000 sec  (  0.0%)
DIIS solution               ....       0.641 sec  (  0.0%)
Grid generation             ....       2.650 sec  (  0.1%)

-------------------------   --------------------
FINAL SINGLE POINT ENERGY       -26.555884471640
-------------------------   --------------------


                            ***************************************
                            *     ORCA property calculations      *
                            ***************************************

                                    ---------------------
                                    Active property flags
                                    ---------------------
   (+) Dipole Moment
   (+) Polarizability


------------------------------------------------------------------------------
                       ORCA ELECTRIC PROPERTIES CALCULATION
------------------------------------------------------------------------------

Dipole Moment Calculation                       ... on
Quadrupole Moment Calculation                   ... off
Polarizability Calculation                      ... Analytic (CP-SCF)
GBWName                                         ... bh3_pbe.gbw
Electron density file                           ... bh3_pbe.scfp.tmp
The origin for moment calculation is the CENTER OF MASS  = ( 0.000000,  0.000000  0.000000)

-------------
DIPOLE MOMENT
-------------
                                X             Y             Z
Electronic contribution:     -0.00000       0.00001      -0.00000
Nuclear contribution   :      0.00000       0.00000       0.00000
                        -----------------------------------------
Total Dipole Moment    :     -0.00000       0.00001      -0.00000
                        -----------------------------------------
Magnitude (a.u.)       :      0.00001
Magnitude (Debye)      :      0.00002



--------------------
Rotational spectrum 
--------------------
 
Rotational constants in cm-1:     7.873198     7.872743     3.936485 
Rotational constants in MHz : 236032.545459 236018.909774 118012.863710 

 Dipole components along the rotational axes: 
x,y,z [a.u.] :    -0.000000     0.000009    -0.000000 
x,y,z [Debye]:    -0.000000     0.000023    -0.000000 

 
Transforming and storing MO dipole integrals   ... done

                ... starting polarizability calculation

Opening the Dipole integral file               ... (bh3_pbe.dmo.tmp) done
Reading Dipole-MO integrals                    ... done
Solving CP-SCF equations                       ... 
------------------------------------------------------------------------------
                           ORCA CP-SCF CALCULATION
------------------------------------------------------------------------------

Input orbitals are from        ... bh3_pbe.gbw
Input Perturbation             ... bh3_pbe.cpv.tmp
Wavefunction output            ... bh3_pbe.cpu.tmp
Perturbation mode              ... Real perturbation (singlet)
Solver                         ... POPLE
Max. number of iterations      ... 200
Convergence tolerance          ... 1.000e-06
Integral handling              ... Direct
Number of perturbations        ... 3
Number of operators            ... 2
Orbital ranges used for CP-SCF:
 Operator 0:  Orbitals   0...  3  to   4...408
 Operator 1:  Orbitals   0...  3  to   4...408
DFT calculation                         ... on
Exchange functional (SCF)               ... PBE
Exchange functional (CP-SCF)            ... PBE
   PBE kappa parameter  XKappa (SCF)    ...  0.804000
   PBE kappa parameter  XKappa (CP-SCF) ...  0.804000
   PBE mue parameter   XMuePBE (SCF)    ...  0.219520
   PBE mue parameter   XMuePBE (CP-SCF) ...  0.219520
Correlation functional (SCF)            ... PBE
Correlation functional (CP-SCF)         ... PBE
   PBE beta parameter CBetaPBE (SCF)    ...  0.066725
   PBE beta parameter CBetaPBE (CP-SCF) ...  0.066725
 LDA part of GGA corr.  LDAOpt (SCF)    ... PW91-LDA
 LDA part of GGA corr.  LDAOpt (CP-SCF) ... PW91-LDA
Variables per vector in CP-SCF ... 3240
Number of vectors sought       ... 3
Recalculating density on grid  ... done
Calculating the xc-kernel      ... done
     CP-SCF ITERATION   0: 
     CP-SCF ITERATION   1:      0.006153055511
     CP-SCF ITERATION   2:      0.000011075673
     CP-SCF ITERATION   3:      0.000000406748
done
Reading CP-SCF coefficients                    ... done
Doing the polarizability tensor   ... done
Cleaning up                                    ... done

-------------------------
THE POLARIZABILITY TENSOR
-------------------------

The raw cartesian tensor (atomic units):
   19.79785     -0.00000      0.00000  
   -0.00000     19.79747     -0.00000  
    0.00000     -0.00000     15.10966  
diagonalized tensor: 
   15.10966     19.79747     19.79785  

   -0.00000      0.00002     -1.00000  
    0.00000      1.00000      0.00002  
    1.00000     -0.00000     -0.00000  

Isotropic polarizability :  18.23499


Timings for individual modules:

Sum of individual times         ...     4426.291 sec (=  73.772 min)
GTO integral calculation        ...        1.221 sec (=   0.020 min)   0.0 %
SCF iterations                  ...     2648.064 sec (=  44.134 min)  59.8 %
Solution of CP-SCF eqns.        ...     1777.006 sec (=  29.617 min)  40.1 %
                             ****ORCA TERMINATED NORMALLY****
TOTAL RUN TIME: 0 days 1 hours 13 minutes 46 seconds 774 msec
