
                                 *****************
                                 * O   R   C   A *
                                 *****************

           --- An Ab Initio, DFT and Semiempirical electronic structure package ---

                  #######################################################
                  #                        -***-                        #
                  #          Department of theory and spectroscopy      #
                  #               Directorship: Frank Neese             #
                  #        Max Planck Institute fuer Kohlenforschung    #
                  #                Kaiser Wilhelm Platz 1               #
                  #                 D-45470 Muelheim/Ruhr               #
                  #                      Germany                        #
                  #                                                     #
                  #                  All rights reserved                #
                  #                        -***-                        #
                  #######################################################


                         Program Version 4.1.2  - RELEASE  -


 With contributions from (in alphabetic order):
   Daniel Aravena         : Magnetic Properties
   Michael Atanasov       : Ab Initio Ligand Field Theory
   Alexander A. Auer      : GIAO ZORA
   Ute Becker             : Parallelization
   Giovanni Bistoni       : ED, Open-shell LED
   Martin Brehm           : Molecular dynamics
   Dmytro Bykov           : SCF Hessian
   Vijay G. Chilkuri      : MRCI spin determinant printing
   Dipayan Datta          : RHF DLPNO-CCSD density
   Achintya Kumar Dutta   : EOM-CC, STEOM-CC
   Dmitry Ganyushin       : Spin-Orbit,Spin-Spin,Magnetic field MRCI
   Miquel Garcia          : C-PCM Hessian
   Yang Guo               : DLPNO-NEVPT2, CIM, IAO-localization
   Andreas Hansen         : Spin unrestricted coupled pair/coupled cluster methods
   Benjamin Helmich-Paris : CASSCF linear response (MC-RPA)
   Lee Huntington         : MR-EOM, pCC
   Robert Izsak           : Overlap fitted RIJCOSX, COSX-SCS-MP3, EOM
   Christian Kollmar      : KDIIS, OOCD, Brueckner-CCSD(T), CCSD density
   Simone Kossmann        : Meta GGA functionals, TD-DFT gradient, OOMP2, MP2 Hessian
   Martin Krupicka        : AUTO-CI
   Lucas Lang             : DCDCAS
   Dagmar Lenk            : GEPOL surface, SMD
   Dimitrios Liakos       : Extrapolation schemes; parallel MDCI
   Dimitrios Manganas     : ROCIS; embedding schemes
   Dimitrios Pantazis     : SARC Basis sets
   Taras Petrenko         : DFT Hessian,TD-DFT gradient, ASA, ECA, R-Raman, ABS, FL, XAS/XES, NRVS
   Peter Pinski           : DLPNO-MP2, DLPNO-MP2 Gradient
   Christoph Reimann      : Effective Core Potentials
   Marius Retegan         : Local ZFS, SOC
   Christoph Riplinger    : Optimizer, TS searches, QM/MM, DLPNO-CCSD(T), (RO)-DLPNO pert. Triples
   Tobias Risthaus        : Range-separated hybrids, TD-DFT gradient, RPA, STAB
   Michael Roemelt        : Restricted open shell CIS
   Masaaki Saitow         : Open-shell DLPNO
   Barbara Sandhoefer     : DKH picture change effects
   Avijit Sen             : IP-ROCIS
   Kantharuban Sivalingam : CASSCF convergence, NEVPT2, FIC-MRCI
   Bernardo de Souza      : ESD, SOC TD-DFT
   Georgi Stoychev        : AutoAux, RI-MP2 NMR
   Willem Van den Heuvel  : Paramagnetic NMR
   Boris Wezisla          : Elementary symmetry handling
   Frank Wennmohs         : Technical directorship


 We gratefully acknowledge several colleagues who have allowed us to
 interface, adapt or use parts of their codes:
   Stefan Grimme, W. Hujo, H. Kruse,             : VdW corrections, initial TS optimization,
                  C. Bannwarth                     DFT functionals, gCP, sTDA/sTD-DF
   Ed Valeev                                     : LibInt (2-el integral package), F12 methods
   Garnet Chan, S. Sharma, J. Yang, R. Olivares  : DMRG
   Ulf Ekstrom                                   : XCFun DFT Library
   Mihaly Kallay                                 : mrcc  (arbitrary order and MRCC methods)
   Andreas Klamt, Michael Diedenhofen            : otool_cosmo (COSMO solvation model)
   Jiri Pittner, Ondrej Demel                    : Mk-CCSD
   Frank Weinhold                                : gennbo (NPA and NBO analysis)
   Christopher J. Cramer and Donald G. Truhlar   : smd solvation model
   Lars Goerigk                                  : TD-DFT with DH, B97 family of functionals
   V. Asgeirsson, H. Jonsson                     : NEB implementation
   FAccTs GmbH                                   : IRC, NEB, NEB-TS, Multilevel


 Your calculation uses the libint2 library for the computation of 2-el integrals
 For citations please refer to: http://libint.valeyev.net

 This ORCA versions uses:
   CBLAS   interface :  Fast vector & matrix operations
   LAPACKE interface :  Fast linear algebra routines
   SCALAPACK package :  Parallel linear algebra routines


----- Orbital basis set information -----
Your calculation utilizes the basis: aug-pc-4
   H, C-F              : F. Jensen, J. Chem. Phys. 115, 9113 (2001).
                         F. Jensen, J. Chem. Phys. 116, 7372 (2002).
                         F. Jensen, J. Chem. Phys. 117, 9234 (2002).
   Si-Cl               : F. Jensen, T. Helgaker, J. Chem. Phys. 121, 3463 (2004).
   He-B, Ne-Mg, Al, Ar : F. Jensen, J. Phys. Chem. A 111, 11198 (2007).
   K, Ca, Ga-Kr        : F. Jensen, J. Chem. Phys. 136, 094110 (2012).
   Sc-Zn               : F. Jensen, J. Chem. Phys. 138, 014107 (2013).

================================================================================
                                        WARNINGS
                       Please study these warnings very carefully!
================================================================================


INFO   : the flag for use of LIBINT has been found!

================================================================================
                                       INPUT FILE
================================================================================
NAME = bhf2_pbe.inp
|  1> !uks pbe nori aug-pc-4 grid7 nofinalgrid verytightscf
|  2> 
|  3> %maxcore 1500
|  4> 
|  5> %pal nprocs 4 end
|  6> 
|  7> %scf
|  8> 	maxiter 200
|  9> end
| 10> %elprop
| 11> 	dipole true
| 12> 	 polar 1
| 13> 	 maxiter 200
| 14> end
| 15> 
| 16> * xyz 0 1
| 17> B 0.0000 0.0000 0.4547
| 18> H 0.0000 0.0000 1.6437
| 19> F 0.0000 1.1255 -0.2176
| 20> F 0.0000 -1.1255 -0.2176
| 21> *
| 22> 
| 23>                          ****END OF INPUT****
================================================================================

                       ****************************
                       * Single Point Calculation *
                       ****************************

---------------------------------
CARTESIAN COORDINATES (ANGSTROEM)
---------------------------------
  B      0.000000    0.000000    0.454700
  H      0.000000    0.000000    1.643700
  F      0.000000    1.125500   -0.217600
  F      0.000000   -1.125500   -0.217600

----------------------------
CARTESIAN COORDINATES (A.U.)
----------------------------
  NO LB      ZA    FRAG     MASS         X           Y           Z
   0 B     5.0000    0    10.810    0.000000    0.000000    0.859258
   1 H     1.0000    0     1.008    0.000000    0.000000    3.106143
   2 F     9.0000    0    18.998    0.000000    2.126887   -0.411204
   3 F     9.0000    0    18.998    0.000000   -2.126887   -0.411204

--------------------------------
INTERNAL COORDINATES (ANGSTROEM)
--------------------------------
 B      0   0   0     0.000000000000     0.00000000     0.00000000
 H      1   0   0     1.189000000000     0.00000000     0.00000000
 F      1   2   0     1.311006308147   120.85132971     0.00000000
 F      1   2   3     1.311006308147   120.85132971   180.00000000

---------------------------
INTERNAL COORDINATES (A.U.)
---------------------------
 B      0   0   0     0.000000000000     0.00000000     0.00000000
 H      1   0   0     2.246884373232     0.00000000     0.00000000
 F      1   2   0     2.477442882240   120.85132971     0.00000000
 F      1   2   3     2.477442882240   120.85132971   180.00000000

---------------------
BASIS SET INFORMATION
---------------------
There are 3 groups of distinct atoms

 Group   1 Type B   : 27s12p7d4f3g2h contracted to 9s8p7d4f3g2h pattern {1191111111/51111111/1111111/1111/111/11}
 Group   2 Type H   : 12s7p4d3f2g contracted to 8s7p4d3f2g pattern {51111111/1111111/1111/111/11}
 Group   3 Type F   : 27s12p7d4f3g2h contracted to 9s8p7d4f3g2h pattern {1191111111/51111111/1111111/1111/111/11}

Atom   0B    basis set group =>   1
Atom   1H    basis set group =>   2
Atom   2F    basis set group =>   3
Atom   3F    basis set group =>   3


           ************************************************************
           *        Program running with 4 parallel MPI-processes     *
           *              working on a common directory               *
           ************************************************************
------------------------------------------------------------------------------
                           ORCA GTO INTEGRAL CALCULATION
------------------------------------------------------------------------------

                         BASIS SET STATISTICS AND STARTUP INFO

 # of primitive gaussian shells          ...  193
 # of primitive gaussian functions       ...  617
 # of contracted shells                  ...  123
 # of contracted basis functions         ...  523
 Highest angular momentum                ...    5
 Maximum contraction depth               ...   11
 Integral package used                   ... LIBINT
 Integral threshhold            Thresh   ...  1.000e-12
 Primitive cut-off              TCut     ...  1.000e-14


------------------------------ INTEGRAL EVALUATION ----------------------------


 * One electron integrals 
 Pre-screening matrix                    ... done
 Shell pair data                         ... done (   0.002 sec)



           ************************************************************
           *        Program running with 4 parallel MPI-processes     *
           *              working on a common directory               *
           ************************************************************
-------------------------------------------------------------------------------
                                 ORCA SCF
-------------------------------------------------------------------------------

------------
SCF SETTINGS
------------
Hamiltonian:
 Density Functional     Method          .... DFT(GTOs)
 Exchange Functional    Exchange        .... PBE
   PBE kappa parameter   XKappa         ....  0.804000
   PBE mue parameter    XMuePBE         ....  0.219520
 Correlation Functional Correlation     .... PBE
   PBE beta parameter  CBetaPBE         ....  0.066725
 LDA part of GGA corr.  LDAOpt          .... PW91-LDA
 Gradients option       PostSCFGGA      .... off
   Density functional embedding theory  .... OFF
   NL short-range parameter             ....  6.400000


General Settings:
 Integral files         IntName         .... bhf2_pbe
 Hartree-Fock type      HFTyp           .... UHF
 Total Charge           Charge          ....    0
 Multiplicity           Mult            ....    1
 Number of Electrons    NEL             ....   24
 Basis Dimension        Dim             ....  523
 Nuclear Repulsion      ENuc            ....     61.9741371179 Eh

Convergence Acceleration:
 DIIS                   CNVDIIS         .... on
   Start iteration      DIISMaxIt       ....    12
   Startup error        DIISStart       ....  0.200000
   # of expansion vecs  DIISMaxEq       ....     5
   Bias factor          DIISBfac        ....   1.050
   Max. coefficient     DIISMaxC        ....  10.000
 Newton-Raphson         CNVNR           .... off
 SOSCF                  CNVSOSCF        .... off
 Level Shifting         CNVShift        .... on
   Level shift para.    LevelShift      ....    0.2500
   Turn off err/grad.   ShiftErr        ....    0.0010
 Zerner damping         CNVZerner       .... off
 Static damping         CNVDamp         .... on
   Fraction old density DampFac         ....    0.7000
   Max. Damping (<1)    DampMax         ....    0.9800
   Min. Damping (>=0)   DampMin         ....    0.0000
   Turn off err/grad.   DampErr         ....    0.1000
 Fernandez-Rico         CNVRico         .... off

SCF Procedure:
 Maximum # iterations   MaxIter         ....   200
 SCF integral mode      SCFMode         .... Direct
   Integral package                     .... LIBINT
 Reset frequency        DirectResetFreq ....    20
 Integral Threshold     Thresh          ....  1.000e-12 Eh
 Primitive CutOff       TCut            ....  1.000e-14 Eh

Convergence Tolerance:
 Convergence Check Mode ConvCheckMode   .... Total+1el-Energy
 Convergence forced     ConvForced      .... 0
 Energy Change          TolE            ....  1.000e-09 Eh
 1-El. energy change                    ....  1.000e-06 Eh
 DIIS Error             TolErr          ....  1.000e-08


Diagonalization of the overlap matrix:
Smallest eigenvalue                        ... 1.950e-07
Time for diagonalization                   ...    0.063 sec
Threshold for overlap eigenvalues          ... 1.000e-08
Number of eigenvalues below threshold      ... 0
Time for construction of square roots      ...    0.165 sec
Total time needed                          ...    0.230 sec

-------------------
DFT GRID GENERATION
-------------------

General Integration Accuracy     IntAcc      ...  5.670
Radial Grid Type                 RadialGrid  ... Gauss-Chebyshev
Angular Grid (max. acc.)         AngularGrid ... Lebedev-770
Angular grid pruning method      GridPruning ... 3 (G Style)
Weight generation scheme         WeightScheme... Becke
Basis function cutoff            BFCut       ...    1.0000e-12
Integration weight cutoff        WCut        ...    1.0000e-14
Grids for H and He will be reduced by one unit

# of grid points (after initial pruning)     ...  93706 (   0.0 sec)
# of grid points (after weights+screening)   ...  91880 (   0.0 sec)
nearest neighbour list constructed           ...    0.0 sec
Grid point re-assignment to atoms done       ...    0.0 sec
Grid point division into batches done        ...    2.0 sec
Reduced shell lists constructed in    2.3 sec

Total number of grid points                  ...    91880
Total number of batches                      ...     1438
Average number of points per batch           ...       63
Average number of grid points per atom       ...    22970
Average number of shells per batch           ...    82.68 (67.22%)
Average number of basis functions per batch  ...   366.46 (70.07%)
Average number of large shells per batch     ...    73.42 (88.80%)
Average number of large basis fcns per batch ...   326.79 (89.18%)
Maximum spatial batch extension              ...  21.10, 16.88, 17.76 au
Average spatial batch extension              ...   0.69,  0.66,  0.63 au

Time for grid setup =    2.763 sec

------------------------------
INITIAL GUESS: MODEL POTENTIAL
------------------------------
Loading Hartree-Fock densities                     ... done
Calculating cut-offs                               ... done
Setting up the integral package                    ... done
Initializing the effective Hamiltonian             ... done
Starting the Coulomb interaction                   ... done (   0.1 sec)
Reading the grid                                   ... done
Mapping shells                                     ... done
Starting the XC term evaluation                    ... done (   2.3 sec)
  promolecular density results
     # of electrons  =     23.999512720
     EX              =    -24.077211013
     EC              =     -0.792264548
     EX+EC           =    -24.869475561
Transforming the Hamiltonian                       ... done (   0.0 sec)
Diagonalizing the Hamiltonian                      ... done (   0.1 sec)
Back transforming the eigenvectors                 ... done (   0.0 sec)
Now organizing SCF variables                       ... done
                      ------------------
                      INITIAL GUESS DONE (   5.4 sec)
                      ------------------
--------------
SCF ITERATIONS
--------------
ITER       Energy         Delta-E        Max-DP      RMS-DP      [F,P]     Damp
               ***  Starting incremental Fock matrix formation  ***
  0   -225.0909187381   0.000000000000 0.00879094  0.00009266  0.1648270 0.7000
  1   -225.1103570575  -0.019438319368 0.00639805  0.00006619  0.0561618 0.7000
                               ***Turning on DIIS***
  2   -225.1163758333  -0.006018775837 0.00864196  0.00011844  0.0298091 0.0000
  3   -225.1294950422  -0.013119208885 0.00504361  0.00003959  0.0266627 0.0000
  4   -225.1304047034  -0.000909661255 0.00165797  0.00001119  0.0133173 0.0000
  5   -225.1306667223  -0.000262018842 0.00029308  0.00000245  0.0019774 0.0000
  6   -225.1306770459  -0.000010323581 0.00019075  0.00000200  0.0004201 0.0000
  7   -225.1306775146  -0.000000468725 0.00002478  0.00000025  0.0000804 0.0000
  8   -225.1306775405  -0.000000025898 0.00002569  0.00000019  0.0000171 0.0000
  9   -225.1306775414  -0.000000000907 0.00004605  0.00000033  0.0000042 0.0000
 10   -225.1306775414  -0.000000000031 0.00019470  0.00000151  0.0000013 0.0000
 11   -225.1306775414  -0.000000000004 0.00025515  0.00000170  0.0000001 0.0000
                 **** Energy Check signals convergence ****

               *****************************************************
               *                     SUCCESS                       *
               *           SCF CONVERGED AFTER  12 CYCLES          *
               *****************************************************


----------------
TOTAL SCF ENERGY
----------------

Total Energy       :         -225.13067754 Eh           -6126.11718 eV

Components:
Nuclear Repulsion  :           61.97413712 Eh            1686.40201 eV
Electronic Energy  :         -287.10481466 Eh           -7812.51919 eV
One Electron Energy:         -435.28170834 Eh          -11844.61745 eV
Two Electron Energy:          148.17689368 Eh            4032.09826 eV

Virial components:
Potential Energy   :         -449.65178857 Eh          -12235.64722 eV
Kinetic Energy     :          224.52111103 Eh            6109.53003 eV
Virial Ratio       :            2.00271496


DFT components:
N(Alpha)           :       12.000001732586 electrons
N(Beta)            :       12.000001732586 electrons
N(Total)           :       24.000003465171 electrons
E(X)               :      -24.370701657107 Eh       
E(C)               :       -0.796793719333 Eh       
E(XC)              :      -25.167495376441 Eh       
DFET-embed. en.    :        0.000000000000 Eh       

---------------
SCF CONVERGENCE
---------------

  Last Energy change         ...   -8.4412e-12  Tolerance :   1.0000e-09
  Last MAX-Density change    ...    5.3495e-05  Tolerance :   1.0000e-08
  Last RMS-Density change    ...    4.0097e-07  Tolerance :   1.0000e-09
  Last DIIS Error            ...    1.7767e-08  Tolerance :   1.0000e-08

             **** THE GBW FILE WAS UPDATED (bhf2_pbe.gbw) ****
             **** DENSITY FILE WAS UPDATED (bhf2_pbe.scfp.tmp) ****
             **** ENERGY FILE WAS UPDATED (bhf2_pbe.en.tmp) ****
----------------------
UHF SPIN CONTAMINATION
----------------------

Warning: in a DFT calculation there is little theoretical justification to 
         calculate <S**2> as in Hartree-Fock theory. We will do it anyways
         but you should keep in mind that the values have only limited relevance

Expectation value of <S**2>     :    -0.000000
Ideal value S*(S+1) for S=0.0   :     0.000000
Deviation                       :    -0.000000

----------------
ORBITAL ENERGIES
----------------
                 SPIN UP ORBITALS
  NO   OCC          E(Eh)            E(eV) 
   0   1.0000     -24.284510      -660.8151 
   1   1.0000     -24.284510      -660.8151 
   2   1.0000      -6.609241      -179.8466 
   3   1.0000      -1.151052       -31.3217 
   4   1.0000      -1.123420       -30.5698 
   5   1.0000      -0.530992       -14.4490 
   6   1.0000      -0.485701       -13.2166 
   7   1.0000      -0.462935       -12.5971 
   8   1.0000      -0.446750       -12.1567 
   9   1.0000      -0.394985       -10.7481 
  10   1.0000      -0.374937       -10.2026 
  11   1.0000      -0.336021        -9.1436 
  12   0.0000      -0.053914        -1.4671 
  13   0.0000      -0.008669        -0.2359 
  14   0.0000       0.007129         0.1940 
  15   0.0000       0.009611         0.2615 
  16   0.0000       0.015920         0.4332 
  17   0.0000       0.029481         0.8022 
  18   0.0000       0.040480         1.1015 
  19   0.0000       0.044836         1.2201 
  20   0.0000       0.055983         1.5234 
  21   0.0000       0.056473         1.5367 
  22   0.0000       0.056498         1.5374 
  23   0.0000       0.057471         1.5639 
  24   0.0000       0.060069         1.6346 
  25   0.0000       0.062512         1.7010 
  26   0.0000       0.088027         2.3953 
  27   0.0000       0.089379         2.4321 
  28   0.0000       0.091122         2.4796 
  29   0.0000       0.095679         2.6036 
  30   0.0000       0.097328         2.6484 
  31   0.0000       0.100046         2.7224 
  32   0.0000       0.109238         2.9725 
  33   0.0000       0.112833         3.0703 
  34   0.0000       0.121845         3.3156 
  35   0.0000       0.136801         3.7225 
  36   0.0000       0.142277         3.8715 
  37   0.0000       0.142744         3.8843 
  38   0.0000       0.156407         4.2561 
  39   0.0000       0.157853         4.2954 
  40   0.0000       0.163901         4.4600 
  41   0.0000       0.166786         4.5385 
  42   0.0000       0.169179         4.6036 
  43   0.0000       0.169184         4.6037 
  44   0.0000       0.174422         4.7463 
  45   0.0000       0.180484         4.9112 
  46   0.0000       0.187317         5.0972 
  47   0.0000       0.201373         5.4796 
  48   0.0000       0.205650         5.5960 
  49   0.0000       0.207640         5.6502 
  50   0.0000       0.209084         5.6895 
  51   0.0000       0.218387         5.9426 
  52   0.0000       0.221071         6.0157 
  53   0.0000       0.225195         6.1279 
  54   0.0000       0.229624         6.2484 
  55   0.0000       0.231324         6.2946 
  56   0.0000       0.238047         6.4776 
  57   0.0000       0.238771         6.4973 
  58   0.0000       0.243148         6.6164 
  59   0.0000       0.266981         7.2649 
  60   0.0000       0.279844         7.6150 
  61   0.0000       0.283387         7.7113 
  62   0.0000       0.290442         7.9033 
  63   0.0000       0.298887         8.1331 
  64   0.0000       0.311059         8.4644 
  65   0.0000       0.312936         8.5154 
  66   0.0000       0.313970         8.5436 
  67   0.0000       0.317831         8.6486 
  68   0.0000       0.326874         8.8947 
  69   0.0000       0.328005         8.9255 
  70   0.0000       0.328855         8.9486 
  71   0.0000       0.333821         9.0837 
  72   0.0000       0.342725         9.3260 
  73   0.0000       0.348132         9.4732 
  74   0.0000       0.351305         9.5595 
  75   0.0000       0.351683         9.5698 
  76   0.0000       0.354830         9.6554 
  77   0.0000       0.358045         9.7429 
  78   0.0000       0.364075         9.9070 
  79   0.0000       0.364610         9.9215 
  80   0.0000       0.375972        10.2307 
  81   0.0000       0.387902        10.5554 
  82   0.0000       0.401003        10.9119 
  83   0.0000       0.406654        11.0656 
  84   0.0000       0.411845        11.2069 
  85   0.0000       0.418521        11.3885 
  86   0.0000       0.438308        11.9270 
  87   0.0000       0.446639        12.1537 
  88   0.0000       0.448311        12.1992 
  89   0.0000       0.466230        12.6868 
  90   0.0000       0.468998        12.7621 
  91   0.0000       0.472402        12.8547 
  92   0.0000       0.476848        12.9757 
  93   0.0000       0.477406        12.9909 
  94   0.0000       0.498483        13.5644 
  95   0.0000       0.505829        13.7643 
  96   0.0000       0.506822        13.7913 
  97   0.0000       0.511515        13.9190 
  98   0.0000       0.514778        14.0078 
  99   0.0000       0.535834        14.5808 
 100   0.0000       0.558916        15.2089 
 101   0.0000       0.566852        15.4248 
 102   0.0000       0.566897        15.4260 
 103   0.0000       0.567704        15.4480 
 104   0.0000       0.585447        15.9308 
 105   0.0000       0.589450        16.0397 
 106   0.0000       0.623430        16.9644 
 107   0.0000       0.625935        17.0326 
 108   0.0000       0.626793        17.0559 
 109   0.0000       0.650726        17.7072 
 110   0.0000       0.668184        18.1822 
 111   0.0000       0.672280        18.2937 
 112   0.0000       0.674240        18.3470 
 113   0.0000       0.674841        18.3633 
 114   0.0000       0.678027        18.4501 
 115   0.0000       0.684907        18.6373 
 116   0.0000       0.707176        19.2432 
 117   0.0000       0.710712        19.3395 
 118   0.0000       0.715030        19.4569 
 119   0.0000       0.715243        19.4627 
 120   0.0000       0.720021        19.5928 
 121   0.0000       0.735362        20.0102 
 122   0.0000       0.745117        20.2757 
 123   0.0000       0.746664        20.3178 
 124   0.0000       0.768245        20.9050 
 125   0.0000       0.769612        20.9422 
 126   0.0000       0.771806        21.0019 
 127   0.0000       0.784280        21.3414 
 128   0.0000       0.784883        21.3578 
 129   0.0000       0.788703        21.4617 
 130   0.0000       0.790275        21.5045 
 131   0.0000       0.816120        22.2077 
 132   0.0000       0.829584        22.5741 
 133   0.0000       0.835699        22.7405 
 134   0.0000       0.841035        22.8857 
 135   0.0000       0.854000        23.2385 
 136   0.0000       0.892028        24.2733 
 137   0.0000       0.900475        24.5032 
 138   0.0000       0.905505        24.6400 
 139   0.0000       0.908689        24.7267 
 140   0.0000       0.927791        25.2465 
 141   0.0000       0.937405        25.5081 
 142   0.0000       0.945181        25.7197 
 143   0.0000       0.957963        26.0675 
 144   0.0000       0.960478        26.1359 
 145   0.0000       0.972213        26.4553 
 146   0.0000       0.974211        26.5096 
 147   0.0000       0.974673        26.5222 
 148   0.0000       0.987091        26.8601 
 149   0.0000       1.017313        27.6825 
 150   0.0000       1.027242        27.9527 
 151   0.0000       1.032236        28.0886 
 152   0.0000       1.036250        28.1978 
 153   0.0000       1.046687        28.4818 
 154   0.0000       1.059711        28.8362 
 155   0.0000       1.062495        28.9120 
 156   0.0000       1.070369        29.1262 
 157   0.0000       1.092844        29.7378 
 158   0.0000       1.130741        30.7690 
 159   0.0000       1.169358        31.8198 
 160   0.0000       1.169368        31.8201 
 161   0.0000       1.184967        32.2446 
 162   0.0000       1.191875        32.4326 
 163   0.0000       1.208850        32.8945 
 164   0.0000       1.213558        33.0226 
 165   0.0000       1.219917        33.1956 
 166   0.0000       1.223087        33.2819 
 167   0.0000       1.250529        34.0286 
 168   0.0000       1.252815        34.0908 
 169   0.0000       1.264722        34.4148 
 170   0.0000       1.280165        34.8351 
 171   0.0000       1.283824        34.9346 
 172   0.0000       1.310750        35.6673 
 173   0.0000       1.321755        35.9668 
 174   0.0000       1.326225        36.0884 
 175   0.0000       1.354925        36.8694 
 176   0.0000       1.360248        37.0142 
 177   0.0000       1.364020        37.1169 
 178   0.0000       1.383269        37.6407 
 179   0.0000       1.392939        37.9038 
 180   0.0000       1.403253        38.1844 
 181   0.0000       1.407238        38.2929 
 182   0.0000       1.415365        38.5140 
 183   0.0000       1.432858        38.9901 
 184   0.0000       1.442683        39.2574 
 185   0.0000       1.447226        39.3810 
 186   0.0000       1.456865        39.6433 
 187   0.0000       1.464145        39.8414 
 188   0.0000       1.491191        40.5774 
 189   0.0000       1.505305        40.9614 
 190   0.0000       1.526989        41.5515 
 191   0.0000       1.537265        41.8311 
 192   0.0000       1.546856        42.0921 
 193   0.0000       1.552618        42.2489 
 194   0.0000       1.571126        42.7525 
 195   0.0000       1.591801        43.3151 
 196   0.0000       1.597189        43.4617 
 197   0.0000       1.598690        43.5026 
 198   0.0000       1.629251        44.3342 
 199   0.0000       1.640178        44.6315 
 200   0.0000       1.652001        44.9532 
 201   0.0000       1.681286        45.7501 
 202   0.0000       1.688987        45.9597 
 203   0.0000       1.689605        45.9765 
 204   0.0000       1.698169        46.2095 
 205   0.0000       1.707750        46.4702 
 206   0.0000       1.758589        47.8536 
 207   0.0000       1.759094        47.8674 
 208   0.0000       1.800926        49.0057 
 209   0.0000       1.848588        50.3026 
 210   0.0000       1.872510        50.9536 
 211   0.0000       1.913548        52.0703 
 212   0.0000       1.946581        52.9692 
 213   0.0000       1.959284        53.3148 
 214   0.0000       1.984838        54.0102 
 215   0.0000       1.989684        54.1421 
 216   0.0000       2.056577        55.9623 
 217   0.0000       2.062650        56.1276 
 218   0.0000       2.093933        56.9788 
 219   0.0000       2.189391        59.5763 
 220   0.0000       2.195663        59.7470 
 221   0.0000       2.278019        61.9880 
 222   0.0000       2.281511        62.0831 
 223   0.0000       2.316983        63.0483 
 224   0.0000       2.320583        63.1463 
 225   0.0000       2.396333        65.2075 
 226   0.0000       2.407164        65.5023 
 227   0.0000       2.442332        66.4592 
 228   0.0000       2.456792        66.8527 
 229   0.0000       2.500076        68.0305 
 230   0.0000       2.506923        68.2168 
 231   0.0000       2.521681        68.6184 
 232   0.0000       2.549808        69.3838 
 233   0.0000       2.569767        69.9269 
 234   0.0000       2.632638        71.6377 
 235   0.0000       2.637150        71.7605 
 236   0.0000       2.649073        72.0849 
 237   0.0000       2.719957        74.0138 
 238   0.0000       2.734774        74.4170 
 239   0.0000       2.781313        75.6834 
 240   0.0000       2.792590        75.9902 
 241   0.0000       2.874727        78.2253 
 242   0.0000       2.877393        78.2979 
 243   0.0000       2.929158        79.7064 
 244   0.0000       2.937996        79.9469 
 245   0.0000       3.058887        83.2365 
 246   0.0000       3.063027        83.3492 
 247   0.0000       3.081087        83.8407 
 248   0.0000       3.129217        85.1503 
 249   0.0000       3.133885        85.2774 
 250   0.0000       3.151241        85.7496 
 251   0.0000       3.173526        86.3560 
 252   0.0000       3.272349        89.0452 
 253   0.0000       3.302890        89.8762 
 254   0.0000       3.339492        90.8722 
 255   0.0000       3.403339        92.6096 
 256   0.0000       3.421072        93.0921 
 257   0.0000       3.431456        93.3747 
 258   0.0000       3.446035        93.7714 
 259   0.0000       3.524529        95.9073 
 260   0.0000       3.573855        97.2495 
 261   0.0000       3.580877        97.4406 
 262   0.0000       3.607270        98.1588 
 263   0.0000       3.676884       100.0531 
 264   0.0000       3.845417       104.6391 
 265   0.0000       3.852183       104.8232 
 266   0.0000       3.867480       105.2395 
 267   0.0000       3.889970       105.8515 
 268   0.0000       3.905544       106.2753 
 269   0.0000       3.923784       106.7716 
 270   0.0000       3.945668       107.3671 
 271   0.0000       3.967744       107.9678 
 272   0.0000       4.024913       109.5235 
 273   0.0000       4.062266       110.5399 
 274   0.0000       4.150995       112.9543 
 275   0.0000       4.164938       113.3337 
 276   0.0000       4.191219       114.0489 
 277   0.0000       4.243905       115.4825 
 278   0.0000       4.263060       116.0038 
 279   0.0000       4.446988       121.0087 
 280   0.0000       4.543195       123.6266 
 281   0.0000       4.649126       126.5092 
 282   0.0000       4.664435       126.9257 
 283   0.0000       4.710777       128.1868 
 284   0.0000       4.787287       130.2687 
 285   0.0000       4.862762       132.3225 
 286   0.0000       4.934416       134.2723 
 287   0.0000       4.979860       135.5089 
 288   0.0000       5.022852       136.6788 
 289   0.0000       5.110366       139.0601 
 290   0.0000       5.257376       143.0605 
 291   0.0000       5.277948       143.6203 
 292   0.0000       5.349742       145.5739 
 293   0.0000       5.419666       147.4766 
 294   0.0000       5.426338       147.6582 
 295   0.0000       5.482126       149.1762 
 296   0.0000       5.492323       149.4537 
 297   0.0000       5.546397       150.9251 
 298   0.0000       5.625906       153.0887 
 299   0.0000       5.707858       155.3187 
 300   0.0000       5.786106       157.4479 
 301   0.0000       5.787607       157.4888 
 302   0.0000       5.817702       158.3077 
 303   0.0000       5.855975       159.3492 
 304   0.0000       5.886684       160.1848 
 305   0.0000       5.968316       162.4061 
 306   0.0000       5.973096       162.5362 
 307   0.0000       6.028129       164.0337 
 308   0.0000       6.095411       165.8646 
 309   0.0000       6.217177       169.1780 
 310   0.0000       6.226146       169.4220 
 311   0.0000       6.258153       170.2930 
 312   0.0000       6.271402       170.6535 
 313   0.0000       6.301759       171.4796 
 314   0.0000       6.405808       174.3109 
 315   0.0000       6.503664       176.9737 
 316   0.0000       6.505529       177.0244 
 317   0.0000       6.610226       179.8734 
 318   0.0000       6.695754       182.2007 
 319   0.0000       6.766298       184.1203 
 320   0.0000       6.867254       186.8675 
 321   0.0000       6.907073       187.9510 
 322   0.0000       7.016920       190.9401 
 323   0.0000       7.094492       193.0509 
 324   0.0000       7.116213       193.6420 
 325   0.0000       7.119139       193.7216 
 326   0.0000       7.122913       193.8243 
 327   0.0000       7.135597       194.1695 
 328   0.0000       7.258684       197.5188 
 329   0.0000       7.275521       197.9770 
 330   0.0000       7.280470       198.1117 
 331   0.0000       7.503695       204.1859 
 332   0.0000       7.508001       204.3031 
 333   0.0000       7.643878       208.0005 
 334   0.0000       7.673156       208.7972 
 335   0.0000       7.681785       209.0320 
 336   0.0000       7.704373       209.6467 
 337   0.0000       7.707240       209.7247 
 338   0.0000       7.763654       211.2598 
 339   0.0000       8.056364       219.2248 
 340   0.0000       8.237527       224.1545 
 341   0.0000       8.357745       227.4258 
 342   0.0000       8.501942       231.3496 
 343   0.0000       8.591394       233.7837 
 344   0.0000       8.648436       235.3359 
 345   0.0000       8.711418       237.0497 
 346   0.0000       8.750071       238.1015 
 347   0.0000       8.787421       239.1179 
 348   0.0000       8.869859       241.3611 
 349   0.0000       8.884773       241.7670 
 350   0.0000       8.912761       242.5286 
 351   0.0000       8.978584       244.3197 
 352   0.0000       9.012061       245.2307 
 353   0.0000       9.075620       246.9602 
 354   0.0000       9.279097       252.4971 
 355   0.0000       9.324288       253.7268 
 356   0.0000       9.362785       254.7743 
 357   0.0000       9.589874       260.9537 
 358   0.0000       9.617541       261.7066 
 359   0.0000       9.656123       262.7565 
 360   0.0000       9.731459       264.8065 
 361   0.0000       9.754156       265.4241 
 362   0.0000       9.754457       265.4323 
 363   0.0000       9.788296       266.3531 
 364   0.0000       9.837789       267.6998 
 365   0.0000       9.913543       269.7612 
 366   0.0000       9.929304       270.1901 
 367   0.0000       9.976710       271.4801 
 368   0.0000      10.188202       277.2351 
 369   0.0000      10.298667       280.2410 
 370   0.0000      10.331264       281.1280 
 371   0.0000      10.453234       284.4470 
 372   0.0000      10.588018       288.1146 
 373   0.0000      10.702806       291.2382 
 374   0.0000      10.799209       293.8614 
 375   0.0000      10.890335       296.3411 
 376   0.0000      11.043516       300.5093 
 377   0.0000      11.153484       303.5017 
 378   0.0000      11.199525       304.7546 
 379   0.0000      11.299711       307.4808 
 380   0.0000      11.547363       314.2197 
 381   0.0000      11.671664       317.6021 
 382   0.0000      11.840455       322.1952 
 383   0.0000      11.868689       322.9635 
 384   0.0000      12.011217       326.8418 
 385   0.0000      12.194662       331.8336 
 386   0.0000      12.219292       332.5038 
 387   0.0000      12.264647       333.7380 
 388   0.0000      12.329930       335.5144 
 389   0.0000      12.360803       336.3546 
 390   0.0000      12.400464       337.4338 
 391   0.0000      12.472980       339.4070 
 392   0.0000      12.487621       339.8054 
 393   0.0000      12.553168       341.5891 
 394   0.0000      12.608685       343.0997 
 395   0.0000      12.648396       344.1804 
 396   0.0000      12.648678       344.1880 
 397   0.0000      12.649477       344.2098 
 398   0.0000      12.653097       344.3083 
 399   0.0000      12.665765       344.6530 
 400   0.0000      12.672779       344.8439 
 401   0.0000      12.689034       345.2862 
 402   0.0000      12.694231       345.4276 
 403   0.0000      12.716375       346.0302 
 404   0.0000      12.784941       347.8959 
 405   0.0000      12.804644       348.4321 
 406   0.0000      12.852018       349.7212 
 407   0.0000      12.940076       352.1174 
 408   0.0000      12.951097       352.4173 
 409   0.0000      12.982735       353.2782 
 410   0.0000      13.148723       357.7950 
 411   0.0000      13.149272       357.8099 
 412   0.0000      13.158340       358.0566 
 413   0.0000      13.300810       361.9334 
 414   0.0000      13.396902       364.5483 
 415   0.0000      13.653772       371.5380 
 416   0.0000      13.804735       375.6459 
 417   0.0000      13.854115       376.9896 
 418   0.0000      14.003152       381.0452 
 419   0.0000      14.024581       381.6283 
 420   0.0000      14.036300       381.9472 
 421   0.0000      14.147817       384.9817 
 422   0.0000      14.206924       386.5900 
 423   0.0000      14.267972       388.2513 
 424   0.0000      14.380664       391.3178 
 425   0.0000      14.400863       391.8674 
 426   0.0000      14.631169       398.1343 
 427   0.0000      14.672451       399.2577 
 428   0.0000      14.690712       399.7546 
 429   0.0000      14.700640       400.0247 
 430   0.0000      14.821604       403.3164 
 431   0.0000      15.005622       408.3237 
 432   0.0000      15.007832       408.3839 
 433   0.0000      15.038345       409.2142 
 434   0.0000      15.052247       409.5925 
 435   0.0000      15.071727       410.1225 
 436   0.0000      15.133956       411.8159 
 437   0.0000      15.163045       412.6074 
 438   0.0000      15.340458       417.4351 
 439   0.0000      15.453025       420.4982 
 440   0.0000      15.492792       421.5803 
 441   0.0000      15.576476       423.8575 
 442   0.0000      15.779732       429.3883 
 443   0.0000      16.030046       436.1997 
 444   0.0000      16.292973       443.3543 
 445   0.0000      16.322656       444.1620 
 446   0.0000      16.745592       455.6707 
 447   0.0000      16.749396       455.7742 
 448   0.0000      16.754511       455.9134 
 449   0.0000      16.922377       460.4813 
 450   0.0000      16.971519       461.8185 
 451   0.0000      17.002797       462.6696 
 452   0.0000      17.149729       466.6679 
 453   0.0000      17.483899       475.7611 
 454   0.0000      17.877363       486.4678 
 455   0.0000      18.121868       493.1211 
 456   0.0000      18.612380       506.4686 
 457   0.0000      19.352818       526.6169 
 458   0.0000      19.426218       528.6143 
 459   0.0000      19.492035       530.4052 
 460   0.0000      19.899038       541.4804 
 461   0.0000      20.082493       546.4724 
 462   0.0000      20.096749       546.8603 
 463   0.0000      20.097620       546.8841 
 464   0.0000      20.105006       547.0850 
 465   0.0000      20.213612       550.0404 
 466   0.0000      20.362066       554.0800 
 467   0.0000      20.367807       554.2362 
 468   0.0000      20.370542       554.3106 
 469   0.0000      20.427227       555.8531 
 470   0.0000      20.606022       560.7184 
 471   0.0000      20.678284       562.6847 
 472   0.0000      20.933762       569.6366 
 473   0.0000      21.102300       574.2228 
 474   0.0000      21.140360       575.2584 
 475   0.0000      21.170267       576.0722 
 476   0.0000      21.963373       597.6538 
 477   0.0000      21.975039       597.9712 
 478   0.0000      22.131562       602.2304 
 479   0.0000      22.156086       602.8978 
 480   0.0000      22.191482       603.8609 
 481   0.0000      22.251413       605.4917 
 482   0.0000      22.503743       612.3580 
 483   0.0000      23.031542       626.7201 
 484   0.0000      23.155807       630.1016 
 485   0.0000      23.437851       637.7763 
 486   0.0000      23.867588       649.4701 
 487   0.0000      24.939414       678.6359 
 488   0.0000      30.407202       827.4220 
 489   0.0000      30.471224       829.1641 
 490   0.0000      30.499679       829.9384 
 491   0.0000      30.513474       830.3138 
 492   0.0000      30.763213       837.1096 
 493   0.0000      30.804464       838.2321 
 494   0.0000      31.055729       845.0693 
 495   0.0000      31.111917       846.5983 
 496   0.0000      32.023750       871.4105 
 497   0.0000      32.086636       873.1218 
 498   0.0000      40.820606      1110.7851 
 499   0.0000      41.737430      1135.7332 
 500   0.0000      41.740247      1135.8099 
 501   0.0000      41.896529      1140.0625 
 502   0.0000      42.069379      1144.7660 
 503   0.0000      42.112953      1145.9517 
 504   0.0000      42.130052      1146.4170 
 505   0.0000      44.351984      1206.8788 
 506   0.0000      44.519932      1211.4489 
 507   0.0000      80.114453      2180.0251 
 508   0.0000      91.006364      2476.4091 
 509   0.0000      91.289559      2484.1152 
 510   0.0000      91.317115      2484.8650 
 511   0.0000      91.356474      2485.9360 
 512   0.0000      91.374075      2486.4150 
 513   0.0000      91.383057      2486.6594 
 514   0.0000      91.543251      2491.0185 
 515   0.0000      91.571095      2491.7762 
 516   0.0000      91.747877      2496.5867 
 517   0.0000      91.770101      2497.1914 
 518   0.0000      92.041564      2504.5783 
 519   0.0000      92.473484      2516.3314 
 520   0.0000      92.496713      2516.9635 
 521   0.0000     202.538139      5511.3430 
 522   0.0000     202.590991      5512.7811 

                 SPIN DOWN ORBITALS
  NO   OCC          E(Eh)            E(eV) 
   0   1.0000     -24.284510      -660.8151 
   1   1.0000     -24.284510      -660.8151 
   2   1.0000      -6.609241      -179.8466 
   3   1.0000      -1.151052       -31.3217 
   4   1.0000      -1.123420       -30.5698 
   5   1.0000      -0.530992       -14.4490 
   6   1.0000      -0.485701       -13.2166 
   7   1.0000      -0.462935       -12.5971 
   8   1.0000      -0.446750       -12.1567 
   9   1.0000      -0.394985       -10.7481 
  10   1.0000      -0.374937       -10.2026 
  11   1.0000      -0.336021        -9.1436 
  12   0.0000      -0.053914        -1.4671 
  13   0.0000      -0.008669        -0.2359 
  14   0.0000       0.007129         0.1940 
  15   0.0000       0.009611         0.2615 
  16   0.0000       0.015920         0.4332 
  17   0.0000       0.029481         0.8022 
  18   0.0000       0.040480         1.1015 
  19   0.0000       0.044836         1.2201 
  20   0.0000       0.055983         1.5234 
  21   0.0000       0.056473         1.5367 
  22   0.0000       0.056498         1.5374 
  23   0.0000       0.057471         1.5639 
  24   0.0000       0.060069         1.6346 
  25   0.0000       0.062512         1.7010 
  26   0.0000       0.088027         2.3953 
  27   0.0000       0.089379         2.4321 
  28   0.0000       0.091122         2.4796 
  29   0.0000       0.095679         2.6036 
  30   0.0000       0.097328         2.6484 
  31   0.0000       0.100046         2.7224 
  32   0.0000       0.109238         2.9725 
  33   0.0000       0.112833         3.0703 
  34   0.0000       0.121845         3.3156 
  35   0.0000       0.136801         3.7225 
  36   0.0000       0.142277         3.8715 
  37   0.0000       0.142744         3.8843 
  38   0.0000       0.156407         4.2561 
  39   0.0000       0.157853         4.2954 
  40   0.0000       0.163901         4.4600 
  41   0.0000       0.166786         4.5385 
  42   0.0000       0.169179         4.6036 
  43   0.0000       0.169184         4.6037 
  44   0.0000       0.174422         4.7463 
  45   0.0000       0.180484         4.9112 
  46   0.0000       0.187317         5.0972 
  47   0.0000       0.201373         5.4796 
  48   0.0000       0.205650         5.5960 
  49   0.0000       0.207640         5.6502 
  50   0.0000       0.209084         5.6895 
  51   0.0000       0.218387         5.9426 
  52   0.0000       0.221071         6.0157 
  53   0.0000       0.225195         6.1279 
  54   0.0000       0.229624         6.2484 
  55   0.0000       0.231324         6.2946 
  56   0.0000       0.238047         6.4776 
  57   0.0000       0.238771         6.4973 
  58   0.0000       0.243148         6.6164 
  59   0.0000       0.266981         7.2649 
  60   0.0000       0.279844         7.6150 
  61   0.0000       0.283387         7.7113 
  62   0.0000       0.290442         7.9033 
  63   0.0000       0.298887         8.1331 
  64   0.0000       0.311059         8.4644 
  65   0.0000       0.312936         8.5154 
  66   0.0000       0.313970         8.5436 
  67   0.0000       0.317831         8.6486 
  68   0.0000       0.326874         8.8947 
  69   0.0000       0.328005         8.9255 
  70   0.0000       0.328855         8.9486 
  71   0.0000       0.333821         9.0837 
  72   0.0000       0.342725         9.3260 
  73   0.0000       0.348132         9.4732 
  74   0.0000       0.351305         9.5595 
  75   0.0000       0.351683         9.5698 
  76   0.0000       0.354830         9.6554 
  77   0.0000       0.358045         9.7429 
  78   0.0000       0.364075         9.9070 
  79   0.0000       0.364610         9.9215 
  80   0.0000       0.375972        10.2307 
  81   0.0000       0.387902        10.5554 
  82   0.0000       0.401003        10.9119 
  83   0.0000       0.406654        11.0656 
  84   0.0000       0.411845        11.2069 
  85   0.0000       0.418521        11.3885 
  86   0.0000       0.438308        11.9270 
  87   0.0000       0.446639        12.1537 
  88   0.0000       0.448311        12.1992 
  89   0.0000       0.466230        12.6868 
  90   0.0000       0.468998        12.7621 
  91   0.0000       0.472402        12.8547 
  92   0.0000       0.476848        12.9757 
  93   0.0000       0.477406        12.9909 
  94   0.0000       0.498483        13.5644 
  95   0.0000       0.505829        13.7643 
  96   0.0000       0.506822        13.7913 
  97   0.0000       0.511515        13.9190 
  98   0.0000       0.514778        14.0078 
  99   0.0000       0.535834        14.5808 
 100   0.0000       0.558916        15.2089 
 101   0.0000       0.566852        15.4248 
 102   0.0000       0.566897        15.4260 
 103   0.0000       0.567704        15.4480 
 104   0.0000       0.585447        15.9308 
 105   0.0000       0.589450        16.0397 
 106   0.0000       0.623430        16.9644 
 107   0.0000       0.625935        17.0326 
 108   0.0000       0.626793        17.0559 
 109   0.0000       0.650726        17.7072 
 110   0.0000       0.668184        18.1822 
 111   0.0000       0.672280        18.2937 
 112   0.0000       0.674240        18.3470 
 113   0.0000       0.674841        18.3633 
 114   0.0000       0.678027        18.4501 
 115   0.0000       0.684907        18.6373 
 116   0.0000       0.707176        19.2432 
 117   0.0000       0.710712        19.3395 
 118   0.0000       0.715030        19.4569 
 119   0.0000       0.715243        19.4627 
 120   0.0000       0.720021        19.5928 
 121   0.0000       0.735362        20.0102 
 122   0.0000       0.745117        20.2757 
 123   0.0000       0.746664        20.3178 
 124   0.0000       0.768245        20.9050 
 125   0.0000       0.769612        20.9422 
 126   0.0000       0.771806        21.0019 
 127   0.0000       0.784280        21.3414 
 128   0.0000       0.784883        21.3578 
 129   0.0000       0.788703        21.4617 
 130   0.0000       0.790275        21.5045 
 131   0.0000       0.816120        22.2077 
 132   0.0000       0.829584        22.5741 
 133   0.0000       0.835699        22.7405 
 134   0.0000       0.841035        22.8857 
 135   0.0000       0.854000        23.2385 
 136   0.0000       0.892028        24.2733 
 137   0.0000       0.900475        24.5032 
 138   0.0000       0.905505        24.6400 
 139   0.0000       0.908689        24.7267 
 140   0.0000       0.927791        25.2465 
 141   0.0000       0.937405        25.5081 
 142   0.0000       0.945181        25.7197 
 143   0.0000       0.957963        26.0675 
 144   0.0000       0.960478        26.1359 
 145   0.0000       0.972213        26.4553 
 146   0.0000       0.974211        26.5096 
 147   0.0000       0.974673        26.5222 
 148   0.0000       0.987091        26.8601 
 149   0.0000       1.017313        27.6825 
 150   0.0000       1.027242        27.9527 
 151   0.0000       1.032236        28.0886 
 152   0.0000       1.036250        28.1978 
 153   0.0000       1.046687        28.4818 
 154   0.0000       1.059711        28.8362 
 155   0.0000       1.062495        28.9120 
 156   0.0000       1.070369        29.1262 
 157   0.0000       1.092844        29.7378 
 158   0.0000       1.130741        30.7690 
 159   0.0000       1.169358        31.8198 
 160   0.0000       1.169368        31.8201 
 161   0.0000       1.184967        32.2446 
 162   0.0000       1.191875        32.4326 
 163   0.0000       1.208850        32.8945 
 164   0.0000       1.213558        33.0226 
 165   0.0000       1.219917        33.1956 
 166   0.0000       1.223087        33.2819 
 167   0.0000       1.250529        34.0286 
 168   0.0000       1.252815        34.0908 
 169   0.0000       1.264722        34.4148 
 170   0.0000       1.280165        34.8351 
 171   0.0000       1.283824        34.9346 
 172   0.0000       1.310750        35.6673 
 173   0.0000       1.321755        35.9668 
 174   0.0000       1.326225        36.0884 
 175   0.0000       1.354925        36.8694 
 176   0.0000       1.360248        37.0142 
 177   0.0000       1.364020        37.1169 
 178   0.0000       1.383269        37.6407 
 179   0.0000       1.392939        37.9038 
 180   0.0000       1.403253        38.1844 
 181   0.0000       1.407238        38.2929 
 182   0.0000       1.415365        38.5140 
 183   0.0000       1.432858        38.9901 
 184   0.0000       1.442683        39.2574 
 185   0.0000       1.447226        39.3810 
 186   0.0000       1.456865        39.6433 
 187   0.0000       1.464145        39.8414 
 188   0.0000       1.491191        40.5774 
 189   0.0000       1.505305        40.9614 
 190   0.0000       1.526989        41.5515 
 191   0.0000       1.537265        41.8311 
 192   0.0000       1.546856        42.0921 
 193   0.0000       1.552618        42.2489 
 194   0.0000       1.571126        42.7525 
 195   0.0000       1.591801        43.3151 
 196   0.0000       1.597189        43.4617 
 197   0.0000       1.598690        43.5026 
 198   0.0000       1.629251        44.3342 
 199   0.0000       1.640178        44.6315 
 200   0.0000       1.652001        44.9532 
 201   0.0000       1.681286        45.7501 
 202   0.0000       1.688987        45.9597 
 203   0.0000       1.689605        45.9765 
 204   0.0000       1.698169        46.2095 
 205   0.0000       1.707750        46.4702 
 206   0.0000       1.758589        47.8536 
 207   0.0000       1.759094        47.8674 
 208   0.0000       1.800926        49.0057 
 209   0.0000       1.848588        50.3026 
 210   0.0000       1.872510        50.9536 
 211   0.0000       1.913548        52.0703 
 212   0.0000       1.946581        52.9692 
 213   0.0000       1.959284        53.3148 
 214   0.0000       1.984838        54.0102 
 215   0.0000       1.989684        54.1421 
 216   0.0000       2.056577        55.9623 
 217   0.0000       2.062650        56.1276 
 218   0.0000       2.093933        56.9788 
 219   0.0000       2.189391        59.5763 
 220   0.0000       2.195663        59.7470 
 221   0.0000       2.278019        61.9880 
 222   0.0000       2.281511        62.0831 
 223   0.0000       2.316983        63.0483 
 224   0.0000       2.320583        63.1463 
 225   0.0000       2.396333        65.2075 
 226   0.0000       2.407164        65.5023 
 227   0.0000       2.442332        66.4592 
 228   0.0000       2.456792        66.8527 
 229   0.0000       2.500076        68.0305 
 230   0.0000       2.506923        68.2168 
 231   0.0000       2.521681        68.6184 
 232   0.0000       2.549808        69.3838 
 233   0.0000       2.569767        69.9269 
 234   0.0000       2.632638        71.6377 
 235   0.0000       2.637150        71.7605 
 236   0.0000       2.649073        72.0849 
 237   0.0000       2.719957        74.0138 
 238   0.0000       2.734774        74.4170 
 239   0.0000       2.781313        75.6834 
 240   0.0000       2.792590        75.9902 
 241   0.0000       2.874727        78.2253 
 242   0.0000       2.877393        78.2979 
 243   0.0000       2.929158        79.7064 
 244   0.0000       2.937996        79.9469 
 245   0.0000       3.058887        83.2365 
 246   0.0000       3.063027        83.3492 
 247   0.0000       3.081087        83.8407 
 248   0.0000       3.129217        85.1503 
 249   0.0000       3.133885        85.2774 
 250   0.0000       3.151241        85.7496 
 251   0.0000       3.173526        86.3560 
 252   0.0000       3.272349        89.0452 
 253   0.0000       3.302890        89.8762 
 254   0.0000       3.339492        90.8722 
 255   0.0000       3.403339        92.6096 
 256   0.0000       3.421072        93.0921 
 257   0.0000       3.431456        93.3747 
 258   0.0000       3.446035        93.7714 
 259   0.0000       3.524529        95.9073 
 260   0.0000       3.573855        97.2495 
 261   0.0000       3.580877        97.4406 
 262   0.0000       3.607270        98.1588 
 263   0.0000       3.676884       100.0531 
 264   0.0000       3.845417       104.6391 
 265   0.0000       3.852183       104.8232 
 266   0.0000       3.867480       105.2395 
 267   0.0000       3.889970       105.8515 
 268   0.0000       3.905544       106.2753 
 269   0.0000       3.923784       106.7716 
 270   0.0000       3.945668       107.3671 
 271   0.0000       3.967744       107.9678 
 272   0.0000       4.024913       109.5235 
 273   0.0000       4.062266       110.5399 
 274   0.0000       4.150995       112.9543 
 275   0.0000       4.164938       113.3337 
 276   0.0000       4.191219       114.0489 
 277   0.0000       4.243905       115.4825 
 278   0.0000       4.263060       116.0038 
 279   0.0000       4.446988       121.0087 
 280   0.0000       4.543195       123.6266 
 281   0.0000       4.649126       126.5092 
 282   0.0000       4.664435       126.9257 
 283   0.0000       4.710777       128.1868 
 284   0.0000       4.787287       130.2687 
 285   0.0000       4.862762       132.3225 
 286   0.0000       4.934416       134.2723 
 287   0.0000       4.979860       135.5089 
 288   0.0000       5.022852       136.6788 
 289   0.0000       5.110366       139.0601 
 290   0.0000       5.257376       143.0605 
 291   0.0000       5.277948       143.6203 
 292   0.0000       5.349742       145.5739 
 293   0.0000       5.419666       147.4766 
 294   0.0000       5.426338       147.6582 
 295   0.0000       5.482126       149.1762 
 296   0.0000       5.492323       149.4537 
 297   0.0000       5.546397       150.9251 
 298   0.0000       5.625906       153.0887 
 299   0.0000       5.707858       155.3187 
 300   0.0000       5.786106       157.4479 
 301   0.0000       5.787607       157.4888 
 302   0.0000       5.817702       158.3077 
 303   0.0000       5.855975       159.3492 
 304   0.0000       5.886684       160.1848 
 305   0.0000       5.968316       162.4061 
 306   0.0000       5.973096       162.5362 
 307   0.0000       6.028129       164.0337 
 308   0.0000       6.095411       165.8646 
 309   0.0000       6.217177       169.1780 
 310   0.0000       6.226146       169.4220 
 311   0.0000       6.258153       170.2930 
 312   0.0000       6.271402       170.6535 
 313   0.0000       6.301759       171.4796 
 314   0.0000       6.405808       174.3109 
 315   0.0000       6.503664       176.9737 
 316   0.0000       6.505529       177.0244 
 317   0.0000       6.610226       179.8734 
 318   0.0000       6.695754       182.2007 
 319   0.0000       6.766298       184.1203 
 320   0.0000       6.867254       186.8675 
 321   0.0000       6.907073       187.9510 
 322   0.0000       7.016920       190.9401 
 323   0.0000       7.094492       193.0509 
 324   0.0000       7.116213       193.6420 
 325   0.0000       7.119139       193.7216 
 326   0.0000       7.122913       193.8243 
 327   0.0000       7.135597       194.1695 
 328   0.0000       7.258684       197.5188 
 329   0.0000       7.275521       197.9770 
 330   0.0000       7.280470       198.1117 
 331   0.0000       7.503695       204.1859 
 332   0.0000       7.508001       204.3031 
 333   0.0000       7.643878       208.0005 
 334   0.0000       7.673156       208.7972 
 335   0.0000       7.681785       209.0320 
 336   0.0000       7.704373       209.6467 
 337   0.0000       7.707240       209.7247 
 338   0.0000       7.763654       211.2598 
 339   0.0000       8.056364       219.2248 
 340   0.0000       8.237527       224.1545 
 341   0.0000       8.357745       227.4258 
 342   0.0000       8.501942       231.3496 
 343   0.0000       8.591394       233.7837 
 344   0.0000       8.648436       235.3359 
 345   0.0000       8.711418       237.0497 
 346   0.0000       8.750071       238.1015 
 347   0.0000       8.787421       239.1179 
 348   0.0000       8.869859       241.3611 
 349   0.0000       8.884773       241.7670 
 350   0.0000       8.912761       242.5286 
 351   0.0000       8.978584       244.3197 
 352   0.0000       9.012061       245.2307 
 353   0.0000       9.075620       246.9602 
 354   0.0000       9.279097       252.4971 
 355   0.0000       9.324288       253.7268 
 356   0.0000       9.362785       254.7743 
 357   0.0000       9.589874       260.9537 
 358   0.0000       9.617541       261.7066 
 359   0.0000       9.656123       262.7565 
 360   0.0000       9.731459       264.8065 
 361   0.0000       9.754156       265.4241 
 362   0.0000       9.754457       265.4323 
 363   0.0000       9.788296       266.3531 
 364   0.0000       9.837789       267.6998 
 365   0.0000       9.913543       269.7612 
 366   0.0000       9.929304       270.1901 
 367   0.0000       9.976710       271.4801 
 368   0.0000      10.188202       277.2351 
 369   0.0000      10.298667       280.2410 
 370   0.0000      10.331264       281.1280 
 371   0.0000      10.453234       284.4470 
 372   0.0000      10.588018       288.1146 
 373   0.0000      10.702806       291.2382 
 374   0.0000      10.799209       293.8614 
 375   0.0000      10.890335       296.3411 
 376   0.0000      11.043516       300.5093 
 377   0.0000      11.153484       303.5017 
 378   0.0000      11.199525       304.7546 
 379   0.0000      11.299711       307.4808 
 380   0.0000      11.547363       314.2197 
 381   0.0000      11.671664       317.6021 
 382   0.0000      11.840455       322.1952 
 383   0.0000      11.868689       322.9635 
 384   0.0000      12.011217       326.8418 
 385   0.0000      12.194662       331.8336 
 386   0.0000      12.219292       332.5038 
 387   0.0000      12.264647       333.7380 
 388   0.0000      12.329930       335.5144 
 389   0.0000      12.360803       336.3546 
 390   0.0000      12.400464       337.4338 
 391   0.0000      12.472980       339.4070 
 392   0.0000      12.487621       339.8054 
 393   0.0000      12.553168       341.5891 
 394   0.0000      12.608685       343.0997 
 395   0.0000      12.648396       344.1804 
 396   0.0000      12.648678       344.1880 
 397   0.0000      12.649477       344.2098 
 398   0.0000      12.653097       344.3083 
 399   0.0000      12.665765       344.6530 
 400   0.0000      12.672779       344.8439 
 401   0.0000      12.689034       345.2862 
 402   0.0000      12.694231       345.4276 
 403   0.0000      12.716375       346.0302 
 404   0.0000      12.784941       347.8959 
 405   0.0000      12.804644       348.4321 
 406   0.0000      12.852018       349.7212 
 407   0.0000      12.940076       352.1174 
 408   0.0000      12.951097       352.4173 
 409   0.0000      12.982735       353.2782 
 410   0.0000      13.148723       357.7950 
 411   0.0000      13.149272       357.8099 
 412   0.0000      13.158340       358.0566 
 413   0.0000      13.300810       361.9334 
 414   0.0000      13.396902       364.5483 
 415   0.0000      13.653772       371.5380 
 416   0.0000      13.804735       375.6459 
 417   0.0000      13.854115       376.9896 
 418   0.0000      14.003152       381.0452 
 419   0.0000      14.024581       381.6283 
 420   0.0000      14.036300       381.9472 
 421   0.0000      14.147817       384.9817 
 422   0.0000      14.206924       386.5900 
 423   0.0000      14.267972       388.2513 
 424   0.0000      14.380664       391.3178 
 425   0.0000      14.400863       391.8674 
 426   0.0000      14.631169       398.1343 
 427   0.0000      14.672451       399.2577 
 428   0.0000      14.690712       399.7546 
 429   0.0000      14.700640       400.0247 
 430   0.0000      14.821604       403.3164 
 431   0.0000      15.005622       408.3237 
 432   0.0000      15.007832       408.3839 
 433   0.0000      15.038345       409.2142 
 434   0.0000      15.052247       409.5925 
 435   0.0000      15.071727       410.1225 
 436   0.0000      15.133956       411.8159 
 437   0.0000      15.163045       412.6074 
 438   0.0000      15.340458       417.4351 
 439   0.0000      15.453025       420.4982 
 440   0.0000      15.492792       421.5803 
 441   0.0000      15.576476       423.8575 
 442   0.0000      15.779732       429.3883 
 443   0.0000      16.030046       436.1997 
 444   0.0000      16.292973       443.3543 
 445   0.0000      16.322656       444.1620 
 446   0.0000      16.745592       455.6707 
 447   0.0000      16.749396       455.7742 
 448   0.0000      16.754511       455.9134 
 449   0.0000      16.922377       460.4813 
 450   0.0000      16.971519       461.8185 
 451   0.0000      17.002797       462.6696 
 452   0.0000      17.149729       466.6679 
 453   0.0000      17.483899       475.7611 
 454   0.0000      17.877363       486.4678 
 455   0.0000      18.121868       493.1211 
 456   0.0000      18.612380       506.4686 
 457   0.0000      19.352818       526.6169 
 458   0.0000      19.426218       528.6143 
 459   0.0000      19.492035       530.4052 
 460   0.0000      19.899038       541.4804 
 461   0.0000      20.082493       546.4724 
 462   0.0000      20.096749       546.8603 
 463   0.0000      20.097620       546.8841 
 464   0.0000      20.105006       547.0850 
 465   0.0000      20.213612       550.0404 
 466   0.0000      20.362066       554.0800 
 467   0.0000      20.367807       554.2362 
 468   0.0000      20.370542       554.3106 
 469   0.0000      20.427227       555.8531 
 470   0.0000      20.606022       560.7184 
 471   0.0000      20.678284       562.6847 
 472   0.0000      20.933762       569.6366 
 473   0.0000      21.102300       574.2228 
 474   0.0000      21.140360       575.2584 
 475   0.0000      21.170267       576.0722 
 476   0.0000      21.963373       597.6538 
 477   0.0000      21.975039       597.9712 
 478   0.0000      22.131562       602.2304 
 479   0.0000      22.156086       602.8978 
 480   0.0000      22.191482       603.8609 
 481   0.0000      22.251413       605.4917 
 482   0.0000      22.503743       612.3580 
 483   0.0000      23.031542       626.7201 
 484   0.0000      23.155807       630.1016 
 485   0.0000      23.437851       637.7763 
 486   0.0000      23.867588       649.4701 
 487   0.0000      24.939414       678.6359 
 488   0.0000      30.407202       827.4220 
 489   0.0000      30.471224       829.1641 
 490   0.0000      30.499679       829.9384 
 491   0.0000      30.513474       830.3138 
 492   0.0000      30.763213       837.1096 
 493   0.0000      30.804464       838.2321 
 494   0.0000      31.055729       845.0693 
 495   0.0000      31.111917       846.5983 
 496   0.0000      32.023750       871.4105 
 497   0.0000      32.086636       873.1218 
 498   0.0000      40.820606      1110.7851 
 499   0.0000      41.737430      1135.7332 
 500   0.0000      41.740247      1135.8099 
 501   0.0000      41.896529      1140.0625 
 502   0.0000      42.069379      1144.7660 
 503   0.0000      42.112953      1145.9517 
 504   0.0000      42.130052      1146.4170 
 505   0.0000      44.351984      1206.8788 
 506   0.0000      44.519932      1211.4489 
 507   0.0000      80.114453      2180.0251 
 508   0.0000      91.006364      2476.4091 
 509   0.0000      91.289559      2484.1152 
 510   0.0000      91.317115      2484.8650 
 511   0.0000      91.356474      2485.9360 
 512   0.0000      91.374075      2486.4150 
 513   0.0000      91.383057      2486.6594 
 514   0.0000      91.543251      2491.0185 
 515   0.0000      91.571095      2491.7762 
 516   0.0000      91.747877      2496.5867 
 517   0.0000      91.770101      2497.1914 
 518   0.0000      92.041564      2504.5783 
 519   0.0000      92.473484      2516.3314 
 520   0.0000      92.496713      2516.9635 
 521   0.0000     202.538139      5511.3430 
 522   0.0000     202.590991      5512.7811 

                    ********************************
                    * MULLIKEN POPULATION ANALYSIS *
                    ********************************

--------------------------------------------
MULLIKEN ATOMIC CHARGES AND SPIN POPULATIONS
--------------------------------------------
   0 B :    0.394208   -0.000000
   1 H :    0.070695   -0.000000
   2 F :   -0.232454    0.000000
   3 F :   -0.232449    0.000000
Sum of atomic charges         :   -0.0000000
Sum of atomic spin populations:    0.0000000

-----------------------------------------------------
MULLIKEN REDUCED ORBITAL CHARGES AND SPIN POPULATIONS
-----------------------------------------------------
CHARGE
  0 B s       :     2.881933  s :     2.881933
      pz      :     0.750546  p :     1.478124
      px      :     0.228545
      py      :     0.499033
      dz2     :     0.070593  d :     0.203519
      dxz     :     0.009702
      dyz     :     0.043794
      dx2y2   :     0.044351
      dxy     :     0.035080
      f0      :     0.003903  f :     0.035882
      f+1     :     0.000136
      f-1     :     0.012539
      f+2     :     0.005865
      f-2     :     0.005878
      f+3     :     0.003873
      f-3     :     0.003687
      g0      :     0.001047  g :     0.006171
      g+1     :     0.000103
      g-1     :     0.001192
      g+2     :     0.000972
      g-2     :     0.000070
      g+3     :     0.001046
      g-3     :     0.001016
      g+4     :     0.000326
      g-4     :     0.000398
      h0      :     0.000010  h :     0.000162
      h+1     :    -0.000001
      h-1     :     0.000017
      h+2     :     0.000014
      h-2     :    -0.000002
      h+3     :     0.000015
      h-3     :     0.000028
      h+4     :     0.000033
      h-4     :     0.000019
      h+5     :     0.000014
      h-5     :     0.000014
  1 H s       :     0.918278  s :     0.918278
      pz      :     0.005601  p :     0.016819
      px      :     0.005048
      py      :     0.006170
      dz2     :     0.000030  d :    -0.002544
      dxz     :    -0.001577
      dyz     :    -0.002281
      dx2y2   :    -0.000574
      dxy     :     0.001857
      f0      :    -0.000112  f :    -0.002464
      f+1     :    -0.001806
      f-1     :    -0.000339
      f+2     :    -0.000418
      f-2     :     0.000202
      f+3     :    -0.000127
      f-3     :     0.000137
      g0      :    -0.000236  g :    -0.000784
      g+1     :    -0.000349
      g-1     :    -0.000094
      g+2     :    -0.000025
      g-2     :    -0.000091
      g+3     :    -0.000060
      g-3     :     0.000054
      g+4     :     0.000017
      g-4     :     0.000002
  2 F s       :     3.876193  s :     3.876193
      pz      :     1.825523  p :     5.343966
      px      :     1.846319
      py      :     1.672123
      dz2     :     0.002794  d :     0.016279
      dxz     :     0.002218
      dyz     :    -0.000345
      dx2y2   :     0.003659
      dxy     :     0.007953
      f0      :    -0.000445  f :    -0.001564
      f+1     :    -0.000073
      f-1     :    -0.000434
      f+2     :    -0.001615
      f-2     :     0.000558
      f+3     :    -0.000061
      f-3     :     0.000505
      g0      :    -0.000031  g :    -0.001865
      g+1     :     0.000008
      g-1     :    -0.000384
      g+2     :    -0.000266
      g-2     :    -0.000077
      g+3     :     0.000055
      g-3     :    -0.000526
      g+4     :    -0.000008
      g-4     :    -0.000637
      h0      :    -0.000049  h :    -0.000554
      h+1     :    -0.000005
      h-1     :    -0.000002
      h+2     :    -0.000064
      h-2     :     0.000002
      h+3     :    -0.000038
      h-3     :    -0.000032
      h+4     :    -0.000117
      h-4     :     0.000009
      h+5     :    -0.000219
      h-5     :    -0.000038
  3 F s       :     3.876185  s :     3.876185
      pz      :     1.825523  p :     5.343967
      px      :     1.846319
      py      :     1.672125
      dz2     :     0.002794  d :     0.016280
      dxz     :     0.002218
      dyz     :    -0.000344
      dx2y2   :     0.003659
      dxy     :     0.007953
      f0      :    -0.000445  f :    -0.001564
      f+1     :    -0.000073
      f-1     :    -0.000434
      f+2     :    -0.001615
      f-2     :     0.000558
      f+3     :    -0.000061
      f-3     :     0.000505
      g0      :    -0.000031  g :    -0.001865
      g+1     :     0.000008
      g-1     :    -0.000384
      g+2     :    -0.000266
      g-2     :    -0.000077
      g+3     :     0.000055
      g-3     :    -0.000526
      g+4     :    -0.000008
      g-4     :    -0.000637
      h0      :    -0.000049  h :    -0.000554
      h+1     :    -0.000005
      h-1     :    -0.000002
      h+2     :    -0.000064
      h-2     :     0.000002
      h+3     :    -0.000038
      h-3     :    -0.000032
      h+4     :    -0.000117
      h-4     :     0.000009
      h+5     :    -0.000219
      h-5     :    -0.000038

SPIN
  0 B s       :    -0.000000  s :    -0.000000
      pz      :    -0.000000  p :    -0.000000
      px      :    -0.000000
      py      :    -0.000000
      dz2     :    -0.000000  d :    -0.000000
      dxz     :     0.000000
      dyz     :     0.000000
      dx2y2   :    -0.000000
      dxy     :    -0.000000
      f0      :    -0.000000  f :    -0.000000
      f+1     :    -0.000000
      f-1     :    -0.000000
      f+2     :    -0.000000
      f-2     :     0.000000
      f+3     :     0.000000
      f-3     :     0.000000
      g0      :     0.000000  g :     0.000000
      g+1     :    -0.000000
      g-1     :    -0.000000
      g+2     :     0.000000
      g-2     :    -0.000000
      g+3     :     0.000000
      g-3     :     0.000000
      g+4     :    -0.000000
      g-4     :     0.000000
      h0      :    -0.000000  h :     0.000000
      h+1     :     0.000000
      h-1     :     0.000000
      h+2     :    -0.000000
      h-2     :     0.000000
      h+3     :     0.000000
      h-3     :     0.000000
      h+4     :     0.000000
      h-4     :     0.000000
      h+5     :     0.000000
      h-5     :    -0.000000
  1 H s       :    -0.000000  s :    -0.000000
      pz      :    -0.000000  p :    -0.000000
      px      :     0.000000
      py      :    -0.000000
      dz2     :    -0.000000  d :    -0.000000
      dxz     :    -0.000000
      dyz     :    -0.000000
      dx2y2   :     0.000000
      dxy     :     0.000000
      f0      :    -0.000000  f :    -0.000000
      f+1     :    -0.000000
      f-1     :    -0.000000
      f+2     :     0.000000
      f-2     :     0.000000
      f+3     :    -0.000000
      f-3     :    -0.000000
      g0      :    -0.000000  g :    -0.000000
      g+1     :    -0.000000
      g-1     :    -0.000000
      g+2     :     0.000000
      g-2     :     0.000000
      g+3     :    -0.000000
      g-3     :    -0.000000
      g+4     :     0.000000
      g-4     :     0.000000
  2 F s       :     0.000000  s :     0.000000
      pz      :    -0.000000  p :     0.000000
      px      :     0.000000
      py      :     0.000000
      dz2     :    -0.000000  d :     0.000000
      dxz     :     0.000000
      dyz     :    -0.000000
      dx2y2   :     0.000000
      dxy     :     0.000000
      f0      :    -0.000000  f :     0.000000
      f+1     :    -0.000000
      f-1     :    -0.000000
      f+2     :    -0.000000
      f-2     :     0.000000
      f+3     :    -0.000000
      f-3     :     0.000000
      g0      :    -0.000000  g :     0.000000
      g+1     :    -0.000000
      g-1     :    -0.000000
      g+2     :     0.000000
      g-2     :    -0.000000
      g+3     :     0.000000
      g-3     :    -0.000000
      g+4     :     0.000000
      g-4     :    -0.000000
      h0      :     0.000000  h :     0.000000
      h+1     :     0.000000
      h-1     :     0.000000
      h+2     :     0.000000
      h-2     :     0.000000
      h+3     :     0.000000
      h-3     :    -0.000000
      h+4     :    -0.000000
      h-4     :     0.000000
      h+5     :    -0.000000
      h-5     :     0.000000
  3 F s       :     0.000000  s :     0.000000
      pz      :    -0.000000  p :     0.000000
      px      :     0.000000
      py      :     0.000000
      dz2     :    -0.000000  d :    -0.000000
      dxz     :     0.000000
      dyz     :     0.000000
      dx2y2   :    -0.000000
      dxy     :     0.000000
      f0      :    -0.000000  f :    -0.000000
      f+1     :    -0.000000
      f-1     :     0.000000
      f+2     :     0.000000
      f-2     :     0.000000
      f+3     :     0.000000
      f-3     :    -0.000000
      g0      :     0.000000  g :    -0.000000
      g+1     :    -0.000000
      g-1     :    -0.000000
      g+2     :     0.000000
      g-2     :    -0.000000
      g+3     :     0.000000
      g-3     :     0.000000
      g+4     :    -0.000000
      g-4     :    -0.000000
      h0      :     0.000000  h :    -0.000000
      h+1     :    -0.000000
      h-1     :     0.000000
      h+2     :     0.000000
      h-2     :    -0.000000
      h+3     :    -0.000000
      h-3     :    -0.000000
      h+4     :    -0.000000
      h-4     :     0.000000
      h+5     :     0.000000
      h-5     :    -0.000000


                     *******************************
                     * LOEWDIN POPULATION ANALYSIS *
                     *******************************

-------------------------------------------
LOEWDIN ATOMIC CHARGES AND SPIN POPULATIONS
-------------------------------------------
   0 B :   -0.397600   -0.000000
   1 H :   -0.363104   -0.000000
   2 F :    0.380352    0.000000
   3 F :    0.380352    0.000000

----------------------------------------------------
LOEWDIN REDUCED ORBITAL CHARGES AND SPIN POPULATIONS
----------------------------------------------------
CHARGE
  0 B s       :     2.378205  s :     2.378205
      pz      :     0.641838  p :     1.467781
      px      :     0.244299
      py      :     0.581644
      dz2     :     0.208039  d :     0.925611
      dxz     :     0.042499
      dyz     :     0.299660
      dx2y2   :     0.206800
      dxy     :     0.168613
      f0      :     0.041633  f :     0.466243
      f+1     :     0.000273
      f-1     :     0.144465
      f+2     :     0.091650
      f-2     :     0.073911
      f+3     :     0.054032
      f-3     :     0.060279
      g0      :     0.013383  g :     0.150628
      g+1     :     0.001075
      g-1     :     0.023638
      g+2     :     0.028218
      g-2     :     0.003623
      g+3     :     0.025083
      g-3     :     0.021272
      g+4     :     0.013415
      g-4     :     0.020921
      h0      :     0.000717  h :     0.009132
      h+1     :     0.000051
      h-1     :     0.001104
      h+2     :     0.001032
      h-2     :     0.000041
      h+3     :     0.000403
      h-3     :     0.001533
      h+4     :     0.001441
      h-4     :     0.001692
      h+5     :     0.000572
      h-5     :     0.000546
  1 H s       :     0.758737  s :     0.758737
      pz      :     0.104467  p :     0.160897
      px      :     0.020625
      py      :     0.035805
      dz2     :     0.056398  d :     0.162433
      dxz     :     0.029953
      dyz     :     0.063766
      dx2y2   :     0.006711
      dxy     :     0.005605
      f0      :     0.034885  f :     0.143641
      f+1     :     0.019975
      f-1     :     0.046489
      f+2     :     0.020984
      f-2     :     0.017063
      f+3     :     0.001350
      f-3     :     0.002895
      g0      :     0.022677  g :     0.137397
      g+1     :     0.009695
      g-1     :     0.039591
      g+2     :     0.027417
      g-2     :     0.022631
      g+3     :     0.005051
      g-3     :     0.008749
      g+4     :     0.000805
      g-4     :     0.000781
  2 F s       :     3.278648  s :     3.278648
      pz      :     1.610398  p :     4.762203
      px      :     1.505564
      py      :     1.646241
      dz2     :     0.046186  d :     0.193345
      dxz     :     0.001961
      dyz     :     0.071033
      dx2y2   :     0.049623
      dxy     :     0.024542
      f0      :     0.014210  f :     0.159950
      f+1     :     0.001352
      f-1     :     0.056955
      f+2     :     0.028117
      f-2     :     0.002553
      f+3     :     0.026231
      f-3     :     0.030532
      g0      :     0.009124  g :     0.129783
      g+1     :     0.000185
      g-1     :     0.030602
      g+2     :     0.025600
      g-2     :     0.002399
      g+3     :     0.001271
      g-3     :     0.015171
      g+4     :     0.020754
      g-4     :     0.024678
      h0      :     0.008167  h :     0.095719
      h+1     :     0.000235
      h-1     :     0.007842
      h+2     :     0.019987
      h-2     :     0.000069
      h+3     :     0.002814
      h-3     :     0.011366
      h+4     :     0.010196
      h-4     :     0.000384
      h+5     :     0.020854
      h-5     :     0.013807
  3 F s       :     3.278648  s :     3.278648
      pz      :     1.610398  p :     4.762203
      px      :     1.505564
      py      :     1.646241
      dz2     :     0.046186  d :     0.193345
      dxz     :     0.001961
      dyz     :     0.071033
      dx2y2   :     0.049623
      dxy     :     0.024542
      f0      :     0.014210  f :     0.159950
      f+1     :     0.001352
      f-1     :     0.056955
      f+2     :     0.028117
      f-2     :     0.002553
      f+3     :     0.026231
      f-3     :     0.030532
      g0      :     0.009124  g :     0.129783
      g+1     :     0.000185
      g-1     :     0.030602
      g+2     :     0.025600
      g-2     :     0.002399
      g+3     :     0.001271
      g-3     :     0.015171
      g+4     :     0.020754
      g-4     :     0.024678
      h0      :     0.008167  h :     0.095719
      h+1     :     0.000235
      h-1     :     0.007842
      h+2     :     0.019987
      h-2     :     0.000069
      h+3     :     0.002814
      h-3     :     0.011366
      h+4     :     0.010196
      h-4     :     0.000384
      h+5     :     0.020854
      h-5     :     0.013807

SPIN
  0 B s       :    -0.000000  s :    -0.000000
      pz      :    -0.000000  p :    -0.000000
      px      :     0.000000
      py      :     0.000000
      dz2     :    -0.000000  d :    -0.000000
      dxz     :     0.000000
      dyz     :     0.000000
      dx2y2   :    -0.000000
      dxy     :     0.000000
      f0      :     0.000000  f :     0.000000
      f+1     :    -0.000000
      f-1     :     0.000000
      f+2     :     0.000000
      f-2     :    -0.000000
      f+3     :    -0.000000
      f-3     :     0.000000
      g0      :     0.000000  g :     0.000000
      g+1     :     0.000000
      g-1     :     0.000000
      g+2     :     0.000000
      g-2     :    -0.000000
      g+3     :    -0.000000
      g-3     :     0.000000
      g+4     :    -0.000000
      g-4     :    -0.000000
      h0      :    -0.000000  h :     0.000000
      h+1     :    -0.000000
      h-1     :    -0.000000
      h+2     :     0.000000
      h-2     :     0.000000
      h+3     :    -0.000000
      h-3     :     0.000000
      h+4     :     0.000000
      h-4     :    -0.000000
      h+5     :     0.000000
      h-5     :     0.000000
  1 H s       :     0.000000  s :     0.000000
      pz      :    -0.000000  p :    -0.000000
      px      :     0.000000
      py      :    -0.000000
      dz2     :     0.000000  d :     0.000000
      dxz     :    -0.000000
      dyz     :    -0.000000
      dx2y2   :     0.000000
      dxy     :     0.000000
      f0      :    -0.000000  f :     0.000000
      f+1     :    -0.000000
      f-1     :     0.000000
      f+2     :     0.000000
      f-2     :     0.000000
      f+3     :    -0.000000
      f-3     :     0.000000
      g0      :    -0.000000  g :    -0.000000
      g+1     :    -0.000000
      g-1     :    -0.000000
      g+2     :    -0.000000
      g-2     :    -0.000000
      g+3     :     0.000000
      g-3     :     0.000000
      g+4     :     0.000000
      g-4     :     0.000000
  2 F s       :     0.000000  s :     0.000000
      pz      :     0.000000  p :     0.000000
      px      :    -0.000000
      py      :     0.000000
      dz2     :    -0.000000  d :    -0.000000
      dxz     :     0.000000
      dyz     :    -0.000000
      dx2y2   :     0.000000
      dxy     :    -0.000000
      f0      :     0.000000  f :    -0.000000
      f+1     :     0.000000
      f-1     :     0.000000
      f+2     :    -0.000000
      f-2     :     0.000000
      f+3     :    -0.000000
      f-3     :    -0.000000
      g0      :    -0.000000  g :    -0.000000
      g+1     :     0.000000
      g-1     :    -0.000000
      g+2     :     0.000000
      g-2     :     0.000000
      g+3     :     0.000000
      g-3     :     0.000000
      g+4     :    -0.000000
      g-4     :     0.000000
      h0      :     0.000000  h :    -0.000000
      h+1     :     0.000000
      h-1     :     0.000000
      h+2     :     0.000000
      h-2     :     0.000000
      h+3     :     0.000000
      h-3     :    -0.000000
      h+4     :    -0.000000
      h-4     :     0.000000
      h+5     :     0.000000
      h-5     :    -0.000000
  3 F s       :     0.000000  s :     0.000000
      pz      :     0.000000  p :     0.000000
      px      :     0.000000
      py      :     0.000000
      dz2     :     0.000000  d :    -0.000000
      dxz     :     0.000000
      dyz     :    -0.000000
      dx2y2   :    -0.000000
      dxy     :    -0.000000
      f0      :     0.000000  f :     0.000000
      f+1     :    -0.000000
      f-1     :     0.000000
      f+2     :    -0.000000
      f-2     :     0.000000
      f+3     :     0.000000
      f-3     :    -0.000000
      g0      :    -0.000000  g :    -0.000000
      g+1     :     0.000000
      g-1     :    -0.000000
      g+2     :    -0.000000
      g-2     :    -0.000000
      g+3     :    -0.000000
      g-3     :     0.000000
      g+4     :    -0.000000
      g-4     :     0.000000
      h0      :     0.000000  h :    -0.000000
      h+1     :     0.000000
      h-1     :    -0.000000
      h+2     :    -0.000000
      h-2     :     0.000000
      h+3     :     0.000000
      h-3     :    -0.000000
      h+4     :    -0.000000
      h-4     :    -0.000000
      h+5     :    -0.000000
      h-5     :    -0.000000


                      *****************************
                      * MAYER POPULATION ANALYSIS *
                      *****************************

  NA   - Mulliken gross atomic population
  ZA   - Total nuclear charge
  QA   - Mulliken gross atomic charge
  VA   - Mayer's total valence
  BVA  - Mayer's bonded valence
  FA   - Mayer's free valence

  ATOM       NA         ZA         QA         VA         BVA        FA
  0 B      4.6058     5.0000     0.3942     3.4571     3.4571    -0.0000
  1 H      0.9293     1.0000     0.0707     1.0069     1.0069    -0.0000
  2 F      9.2325     9.0000    -0.2325     1.2152     1.2152    -0.0000
  3 F      9.2324     9.0000    -0.2324     1.2151     1.2151     0.0000

  Mayer bond orders larger than 0.1
B(  0-B ,  1-H ) :   0.9447 B(  0-B ,  2-F ) :   1.2562 B(  0-B ,  3-F ) :   1.2562 


-------
TIMINGS
-------

Total SCF time: 0 days 0 hours 38 min 59 sec 

Total time                  ....    2339.192 sec
Sum of individual times     ....    2337.870 sec  ( 99.9%)

Fock matrix formation       ....    2327.588 sec  ( 99.5%)
  XC integration            ....      61.687 sec  (  2.7% of F)
    Basis function eval.    ....       3.577 sec  (  5.8% of XC)
    Density eval.           ....      17.527 sec  ( 28.4% of XC)
    XC-Functional eval.     ....       0.357 sec  (  0.6% of XC)
    XC-Potential eval.      ....      38.196 sec  ( 61.9% of XC)
Diagonalization             ....       3.087 sec  (  0.1%)
Density matrix formation    ....       0.056 sec  (  0.0%)
Population analysis         ....       0.230 sec  (  0.0%)
Initial guess               ....       2.631 sec  (  0.1%)
Orbital Transformation      ....       0.000 sec  (  0.0%)
Orbital Orthonormalization  ....       0.000 sec  (  0.0%)
DIIS solution               ....       1.516 sec  (  0.1%)
Grid generation             ....       2.763 sec  (  0.1%)

-------------------------   --------------------
FINAL SINGLE POINT ENERGY      -225.130677541444
-------------------------   --------------------


                            ***************************************
                            *     ORCA property calculations      *
                            ***************************************

                                    ---------------------
                                    Active property flags
                                    ---------------------
   (+) Dipole Moment
   (+) Polarizability


------------------------------------------------------------------------------
                       ORCA ELECTRIC PROPERTIES CALCULATION
------------------------------------------------------------------------------

Dipole Moment Calculation                       ... on
Quadrupole Moment Calculation                   ... off
Polarizability Calculation                      ... Analytic (CP-SCF)
GBWName                                         ... bhf2_pbe.gbw
Electron density file                           ... bhf2_pbe.scfp.tmp
The origin for moment calculation is the CENTER OF MASS  = ( 0.000000,  0.000000 -0.064330)

-------------
DIPOLE MOMENT
-------------
                                X             Y             Z
Electronic contribution:      0.00000       0.00000      -1.23980
Nuclear contribution   :      0.00000       0.00000       1.54468
                        -----------------------------------------
Total Dipole Moment    :      0.00000       0.00000       0.30488
                        -----------------------------------------
Magnitude (a.u.)       :      0.30488
Magnitude (Debye)      :      0.77494



--------------------
Rotational spectrum 
--------------------
 
Rotational constants in cm-1:     2.516169     0.350242     0.307446 
Rotational constants in MHz : 75432.840017 10499.986151  9217.010668 

 Dipole components along the rotational axes: 
x,y,z [a.u.] :     0.000000     0.304878     0.000000 
x,y,z [Debye]:     0.000000     0.774937     0.000000 

 
Transforming and storing MO dipole integrals   ... done

                ... starting polarizability calculation

Opening the Dipole integral file               ... (bhf2_pbe.dmo.tmp) done
Reading Dipole-MO integrals                    ... done
Solving CP-SCF equations                       ... 

           ************************************************************
           *        Program running with 4 parallel MPI-processes     *
           *              working on a common directory               *
           ************************************************************

------------------------------------------------------------------------------
                           ORCA CP-SCF CALCULATION
------------------------------------------------------------------------------

Input orbitals are from        ... bhf2_pbe.gbw
Input Perturbation             ... bhf2_pbe.cpv.tmp
Wavefunction output            ... bhf2_pbe.cpu.tmp
Perturbation mode              ... Real perturbation (singlet)
Solver                         ... POPLE
Max. number of iterations      ... 200
Convergence tolerance          ... 1.000e-06
Integral handling              ... Direct
Number of perturbations        ... 3
Number of operators            ... 2
Orbital ranges used for CP-SCF:
 Operator 0:  Orbitals   0... 11  to  12...522
 Operator 1:  Orbitals   0... 11  to  12...522
DFT calculation                         ... on
Exchange functional (SCF)               ... PBE
Exchange functional (CP-SCF)            ... PBE
   PBE kappa parameter  XKappa (SCF)    ...  0.804000
   PBE kappa parameter  XKappa (CP-SCF) ...  0.804000
   PBE mue parameter   XMuePBE (SCF)    ...  0.219520
   PBE mue parameter   XMuePBE (CP-SCF) ...  0.219520
Correlation functional (SCF)            ... PBE
Correlation functional (CP-SCF)         ... PBE
   PBE beta parameter CBetaPBE (SCF)    ...  0.066725
   PBE beta parameter CBetaPBE (CP-SCF) ...  0.066725
 LDA part of GGA corr.  LDAOpt (SCF)    ... PW91-LDA
 LDA part of GGA corr.  LDAOpt (CP-SCF) ... PW91-LDA
Variables per vector in CP-SCF ... 12264
Number of vectors sought       ... 3
Recalculating density on grid  ... done
Calculating the xc-kernel      ... done
     CP-SCF ITERATION   0: 
     CP-SCF ITERATION   1:      0.118798921056
     CP-SCF ITERATION   2:      0.001414750555
     CP-SCF ITERATION   3:      0.000086298735
     CP-SCF ITERATION   4:      0.000001115605
     CP-SCF ITERATION   5:      0.000000182540
done
Reading CP-SCF coefficients                    ... done
Doing the polarizability tensor   ... done
Cleaning up                                    ... done

-------------------------
THE POLARIZABILITY TENSOR
-------------------------

The raw cartesian tensor (atomic units):
   15.12321      0.00000     -0.00000  
    0.00000     19.40600     -0.00000  
   -0.00000     -0.00000     18.67184  
diagonalized tensor: 
   15.12321     18.67184     19.40600  

    1.00000      0.00000      0.00000  
   -0.00000     -0.00000      1.00000  
    0.00000     -1.00000     -0.00000  

Isotropic polarizability :  17.73368


Timings for individual modules:

Sum of individual times         ...     4160.146 sec (=  69.336 min)
GTO integral calculation        ...        2.801 sec (=   0.047 min)   0.1 %
SCF iterations                  ...     2339.528 sec (=  38.992 min)  56.2 %
Solution of CP-SCF eqns.        ...     1817.817 sec (=  30.297 min)  43.7 %
                             ****ORCA TERMINATED NORMALLY****
TOTAL RUN TIME: 0 days 1 hours 9 minutes 21 seconds 171 msec
