
                                 *****************
                                 * O   R   C   A *
                                 *****************

           --- An Ab Initio, DFT and Semiempirical electronic structure package ---

                  #######################################################
                  #                        -***-                        #
                  #          Department of theory and spectroscopy      #
                  #               Directorship: Frank Neese             #
                  #        Max Planck Institute fuer Kohlenforschung    #
                  #                Kaiser Wilhelm Platz 1               #
                  #                 D-45470 Muelheim/Ruhr               #
                  #                      Germany                        #
                  #                                                     #
                  #                  All rights reserved                #
                  #                        -***-                        #
                  #######################################################


                         Program Version 4.1.2  - RELEASE  -


 With contributions from (in alphabetic order):
   Daniel Aravena         : Magnetic Properties
   Michael Atanasov       : Ab Initio Ligand Field Theory
   Alexander A. Auer      : GIAO ZORA
   Ute Becker             : Parallelization
   Giovanni Bistoni       : ED, Open-shell LED
   Martin Brehm           : Molecular dynamics
   Dmytro Bykov           : SCF Hessian
   Vijay G. Chilkuri      : MRCI spin determinant printing
   Dipayan Datta          : RHF DLPNO-CCSD density
   Achintya Kumar Dutta   : EOM-CC, STEOM-CC
   Dmitry Ganyushin       : Spin-Orbit,Spin-Spin,Magnetic field MRCI
   Miquel Garcia          : C-PCM Hessian
   Yang Guo               : DLPNO-NEVPT2, CIM, IAO-localization
   Andreas Hansen         : Spin unrestricted coupled pair/coupled cluster methods
   Benjamin Helmich-Paris : CASSCF linear response (MC-RPA)
   Lee Huntington         : MR-EOM, pCC
   Robert Izsak           : Overlap fitted RIJCOSX, COSX-SCS-MP3, EOM
   Christian Kollmar      : KDIIS, OOCD, Brueckner-CCSD(T), CCSD density
   Simone Kossmann        : Meta GGA functionals, TD-DFT gradient, OOMP2, MP2 Hessian
   Martin Krupicka        : AUTO-CI
   Lucas Lang             : DCDCAS
   Dagmar Lenk            : GEPOL surface, SMD
   Dimitrios Liakos       : Extrapolation schemes; parallel MDCI
   Dimitrios Manganas     : ROCIS; embedding schemes
   Dimitrios Pantazis     : SARC Basis sets
   Taras Petrenko         : DFT Hessian,TD-DFT gradient, ASA, ECA, R-Raman, ABS, FL, XAS/XES, NRVS
   Peter Pinski           : DLPNO-MP2, DLPNO-MP2 Gradient
   Christoph Reimann      : Effective Core Potentials
   Marius Retegan         : Local ZFS, SOC
   Christoph Riplinger    : Optimizer, TS searches, QM/MM, DLPNO-CCSD(T), (RO)-DLPNO pert. Triples
   Tobias Risthaus        : Range-separated hybrids, TD-DFT gradient, RPA, STAB
   Michael Roemelt        : Restricted open shell CIS
   Masaaki Saitow         : Open-shell DLPNO
   Barbara Sandhoefer     : DKH picture change effects
   Avijit Sen             : IP-ROCIS
   Kantharuban Sivalingam : CASSCF convergence, NEVPT2, FIC-MRCI
   Bernardo de Souza      : ESD, SOC TD-DFT
   Georgi Stoychev        : AutoAux, RI-MP2 NMR
   Willem Van den Heuvel  : Paramagnetic NMR
   Boris Wezisla          : Elementary symmetry handling
   Frank Wennmohs         : Technical directorship


 We gratefully acknowledge several colleagues who have allowed us to
 interface, adapt or use parts of their codes:
   Stefan Grimme, W. Hujo, H. Kruse,             : VdW corrections, initial TS optimization,
                  C. Bannwarth                     DFT functionals, gCP, sTDA/sTD-DF
   Ed Valeev                                     : LibInt (2-el integral package), F12 methods
   Garnet Chan, S. Sharma, J. Yang, R. Olivares  : DMRG
   Ulf Ekstrom                                   : XCFun DFT Library
   Mihaly Kallay                                 : mrcc  (arbitrary order and MRCC methods)
   Andreas Klamt, Michael Diedenhofen            : otool_cosmo (COSMO solvation model)
   Jiri Pittner, Ondrej Demel                    : Mk-CCSD
   Frank Weinhold                                : gennbo (NPA and NBO analysis)
   Christopher J. Cramer and Donald G. Truhlar   : smd solvation model
   Lars Goerigk                                  : TD-DFT with DH, B97 family of functionals
   V. Asgeirsson, H. Jonsson                     : NEB implementation
   FAccTs GmbH                                   : IRC, NEB, NEB-TS, Multilevel


 Your calculation uses the libint2 library for the computation of 2-el integrals
 For citations please refer to: http://libint.valeyev.net

 This ORCA versions uses:
   CBLAS   interface :  Fast vector & matrix operations
   LAPACKE interface :  Fast linear algebra routines
   SCALAPACK package :  Parallel linear algebra routines


----- Orbital basis set information -----
Your calculation utilizes the basis: aug-pc-4
   H, C-F              : F. Jensen, J. Chem. Phys. 115, 9113 (2001).
                         F. Jensen, J. Chem. Phys. 116, 7372 (2002).
                         F. Jensen, J. Chem. Phys. 117, 9234 (2002).
   Si-Cl               : F. Jensen, T. Helgaker, J. Chem. Phys. 121, 3463 (2004).
   He-B, Ne-Mg, Al, Ar : F. Jensen, J. Phys. Chem. A 111, 11198 (2007).
   K, Ca, Ga-Kr        : F. Jensen, J. Chem. Phys. 136, 094110 (2012).
   Sc-Zn               : F. Jensen, J. Chem. Phys. 138, 014107 (2013).

================================================================================
                                        WARNINGS
                       Please study these warnings very carefully!
================================================================================


INFO   : the flag for use of LIBINT has been found!

================================================================================
                                       INPUT FILE
================================================================================
NAME = bo_pbe.inp
|  1> !uks pbe nori aug-pc-4 grid7 nofinalgrid verytightscf
|  2> 
|  3> %maxcore 1500
|  4> 
|  5> %pal nprocs 1 end
|  6> 
|  7> %scf
|  8> 	maxiter 200
|  9> end
| 10> %elprop
| 11> 	dipole true
| 12> 	 polar 1
| 13> 	 maxiter 200
| 14> end
| 15> 
| 16> * xyz 0 2
| 17> B 0.0000 0.0000 0.0000
| 18> O 0.0000 0.0000 1.2045
| 19> *
| 20> 
| 21>                          ****END OF INPUT****
================================================================================

                       ****************************
                       * Single Point Calculation *
                       ****************************

---------------------------------
CARTESIAN COORDINATES (ANGSTROEM)
---------------------------------
  B      0.000000    0.000000    0.000000
  O      0.000000    0.000000    1.204500

----------------------------
CARTESIAN COORDINATES (A.U.)
----------------------------
  NO LB      ZA    FRAG     MASS         X           Y           Z
   0 B     5.0000    0    10.810    0.000000    0.000000    0.000000
   1 O     8.0000    0    15.999    0.000000    0.000000    2.276175

--------------------------------
INTERNAL COORDINATES (ANGSTROEM)
--------------------------------
 B      0   0   0     0.000000000000     0.00000000     0.00000000
 O      1   0   0     1.204500000000     0.00000000     0.00000000

---------------------------
INTERNAL COORDINATES (A.U.)
---------------------------
 B      0   0   0     0.000000000000     0.00000000     0.00000000
 O      1   0   0     2.276175128308     0.00000000     0.00000000

---------------------
BASIS SET INFORMATION
---------------------
There are 2 groups of distinct atoms

 Group   1 Type B   : 27s12p7d4f3g2h contracted to 9s8p7d4f3g2h pattern {1191111111/51111111/1111111/1111/111/11}
 Group   2 Type O   : 27s12p7d4f3g2h contracted to 9s8p7d4f3g2h pattern {1191111111/51111111/1111111/1111/111/11}

Atom   0B    basis set group =>   1
Atom   1O    basis set group =>   2
------------------------------------------------------------------------------
                           ORCA GTO INTEGRAL CALCULATION
------------------------------------------------------------------------------

                         BASIS SET STATISTICS AND STARTUP INFO

 # of primitive gaussian shells          ...  110
 # of primitive gaussian functions       ...  350
 # of contracted shells                  ...   66
 # of contracted basis functions         ...  290
 Highest angular momentum                ...    5
 Maximum contraction depth               ...   11
 Integral package used                   ... LIBINT
 Integral threshhold            Thresh   ...  1.000e-12
 Primitive cut-off              TCut     ...  1.000e-14


------------------------------ INTEGRAL EVALUATION ----------------------------


 * One electron integrals 
 Pre-screening matrix                    ... done
 Shell pair data                         ... done (   0.001 sec)

-------------------------------------------------------------------------------
                                 ORCA SCF
-------------------------------------------------------------------------------

------------
SCF SETTINGS
------------
Hamiltonian:
 Density Functional     Method          .... DFT(GTOs)
 Exchange Functional    Exchange        .... PBE
   PBE kappa parameter   XKappa         ....  0.804000
   PBE mue parameter    XMuePBE         ....  0.219520
 Correlation Functional Correlation     .... PBE
   PBE beta parameter  CBetaPBE         ....  0.066725
 LDA part of GGA corr.  LDAOpt          .... PW91-LDA
 Gradients option       PostSCFGGA      .... off
   Density functional embedding theory  .... OFF
   NL short-range parameter             ....  6.400000


General Settings:
 Integral files         IntName         .... bo_pbe
 Hartree-Fock type      HFTyp           .... UHF
 Total Charge           Charge          ....    0
 Multiplicity           Mult            ....    2
 Number of Electrons    NEL             ....   13
 Basis Dimension        Dim             ....  290
 Nuclear Repulsion      ENuc            ....     17.5733402507 Eh

Convergence Acceleration:
 DIIS                   CNVDIIS         .... on
   Start iteration      DIISMaxIt       ....    12
   Startup error        DIISStart       ....  0.200000
   # of expansion vecs  DIISMaxEq       ....     5
   Bias factor          DIISBfac        ....   1.050
   Max. coefficient     DIISMaxC        ....  10.000
 Newton-Raphson         CNVNR           .... off
 SOSCF                  CNVSOSCF        .... off
 Level Shifting         CNVShift        .... on
   Level shift para.    LevelShift      ....    0.2500
   Turn off err/grad.   ShiftErr        ....    0.0010
 Zerner damping         CNVZerner       .... off
 Static damping         CNVDamp         .... on
   Fraction old density DampFac         ....    0.7000
   Max. Damping (<1)    DampMax         ....    0.9800
   Min. Damping (>=0)   DampMin         ....    0.0000
   Turn off err/grad.   DampErr         ....    0.1000
 Fernandez-Rico         CNVRico         .... off

SCF Procedure:
 Maximum # iterations   MaxIter         ....   200
 SCF integral mode      SCFMode         .... Direct
   Integral package                     .... LIBINT
 Reset frequency        DirectResetFreq ....    20
 Integral Threshold     Thresh          ....  1.000e-12 Eh
 Primitive CutOff       TCut            ....  1.000e-14 Eh

Convergence Tolerance:
 Convergence Check Mode ConvCheckMode   .... Total+1el-Energy
 Convergence forced     ConvForced      .... 0
 Energy Change          TolE            ....  1.000e-09 Eh
 1-El. energy change                    ....  1.000e-06 Eh
 DIIS Error             TolErr          ....  1.000e-08


Diagonalization of the overlap matrix:
Smallest eigenvalue                        ... 1.752e-06
Time for diagonalization                   ...    0.016 sec
Threshold for overlap eigenvalues          ... 1.000e-08
Number of eigenvalues below threshold      ... 0
Time for construction of square roots      ...    0.012 sec
Total time needed                          ...    0.028 sec

-------------------
DFT GRID GENERATION
-------------------

General Integration Accuracy     IntAcc      ...  5.670
Radial Grid Type                 RadialGrid  ... Gauss-Chebyshev
Angular Grid (max. acc.)         AngularGrid ... Lebedev-770
Angular grid pruning method      GridPruning ... 3 (G Style)
Weight generation scheme         WeightScheme... Becke
Basis function cutoff            BFCut       ...    1.0000e-12
Integration weight cutoff        WCut        ...    1.0000e-14
Grids for H and He will be reduced by one unit

# of grid points (after initial pruning)     ...  49900 (   0.0 sec)
# of grid points (after weights+screening)   ...  49701 (   0.0 sec)
nearest neighbour list constructed           ...    0.0 sec
Grid point re-assignment to atoms done       ...    0.0 sec
Grid point division into batches done        ...    1.1 sec
Reduced shell lists constructed in    1.6 sec

Total number of grid points                  ...    49701
Total number of batches                      ...      777
Average number of points per batch           ...       63
Average number of grid points per atom       ...    24850
Average number of shells per batch           ...    49.71 (75.32%)
Average number of basis functions per batch  ...   225.54 (77.77%)
Average number of large shells per batch     ...    45.31 (91.16%)
Average number of large basis fcns per batch ...   207.03 (91.80%)
Maximum spatial batch extension              ...  24.06, 24.06, 18.81 au
Average spatial batch extension              ...   3.08,  3.05,  2.74 au

Time for grid setup =    1.590 sec

------------------------------
INITIAL GUESS: MODEL POTENTIAL
------------------------------
Loading Hartree-Fock densities                     ... done
Calculating cut-offs                               ... done
Setting up the integral package                    ... done
Initializing the effective Hamiltonian             ... done
Starting the Coulomb interaction                   ... done (   0.0 sec)
Reading the grid                                   ... done
Mapping shells                                     ... done
Starting the XC term evaluation                    ... done (   2.2 sec)
  promolecular density results
     # of electrons  =     12.999999665
     EX              =    -11.847746269
     EC              =     -0.392714376
     EX+EC           =    -12.240460645
Transforming the Hamiltonian                       ... done (   0.0 sec)
Diagonalizing the Hamiltonian                      ... done (   0.0 sec)
Back transforming the eigenvectors                 ... done (   0.0 sec)
Now organizing SCF variables                       ... done
                      ------------------
                      INITIAL GUESS DONE (   4.0 sec)
                      ------------------
--------------
SCF ITERATIONS
--------------
ITER       Energy         Delta-E        Max-DP      RMS-DP      [F,P]     Damp
               ***  Starting incremental Fock matrix formation  ***
  0    -99.7949974562   0.000000000000 0.03074503  0.00031815  0.3635238 0.7000
  1    -99.8842737276  -0.089276271458 0.01275584  0.00012987  0.0541014 0.7000
                               ***Turning on DIIS***
  2    -99.8924501969  -0.008176469252 0.02861240  0.00019747  0.0806529 0.0000
  3    -99.9525984266  -0.060148229749 0.01037885  0.00008194  0.0724857 0.0000
  4    -99.9568757972  -0.004277370560 0.00706091  0.00004945  0.0298409 0.0000
  5    -99.9579068327  -0.001031035510 0.00328329  0.00002406  0.0090781 0.0000
  6    -99.9580387190  -0.000131886300 0.00108256  0.00000969  0.0035999 0.0000
  7    -99.9580691202  -0.000030401219 0.00084618  0.00000820  0.0009317 0.0000
  8    -99.9580816467  -0.000012526533 0.00016234  0.00000189  0.0006016 0.0000
  9    -99.9580828724  -0.000001225657 0.00007296  0.00000071  0.0000877 0.0000
 10    -99.9580830575  -0.000000185130 0.00002939  0.00000027  0.0000164 0.0000
 11    -99.9580830848  -0.000000027258 0.00002074  0.00000017  0.0000168 0.0000
 12    -99.9580830929  -0.000000008105 0.00000755  0.00000007  0.0000057 0.0000
 13    -99.9580830938  -0.000000000956 0.00000156  0.00000002  0.0000005 0.0000
                 **** Energy Check signals convergence ****

               *****************************************************
               *                     SUCCESS                       *
               *           SCF CONVERGED AFTER  14 CYCLES          *
               *****************************************************


----------------
TOTAL SCF ENERGY
----------------

Total Energy       :          -99.95808309 Eh           -2719.99772 eV

Components:
Nuclear Repulsion  :           17.57334025 Eh             478.19490 eV
Electronic Energy  :         -117.53142334 Eh           -3198.19262 eV
One Electron Energy:         -171.14533597 Eh           -4657.10135 eV
Two Electron Energy:           53.61391263 Eh            1458.90873 eV

Virial components:
Potential Energy   :         -199.61015887 Eh           -5431.66856 eV
Kinetic Energy     :           99.65207578 Eh            2711.67084 eV
Virial Ratio       :            2.00307076


DFT components:
N(Alpha)           :        7.000000149322 electrons
N(Beta)            :        6.000000165660 electrons
N(Total)           :       13.000000314982 electrons
E(X)               :      -12.076574734364 Eh       
E(C)               :       -0.395297816238 Eh       
E(XC)              :      -12.471872550601 Eh       
DFET-embed. en.    :        0.000000000000 Eh       

---------------
SCF CONVERGENCE
---------------

  Last Energy change         ...   -2.2595e-11  Tolerance :   1.0000e-09
  Last MAX-Density change    ...    4.4552e-06  Tolerance :   1.0000e-08
  Last RMS-Density change    ...    3.7277e-08  Tolerance :   1.0000e-09
  Last DIIS Error            ...    1.3968e-07  Tolerance :   1.0000e-08

             **** THE GBW FILE WAS UPDATED (bo_pbe.gbw) ****
             **** DENSITY FILE WAS UPDATED (bo_pbe.scfp.tmp) ****
             **** ENERGY FILE WAS UPDATED (bo_pbe.en.tmp) ****
----------------------
UHF SPIN CONTAMINATION
----------------------

Warning: in a DFT calculation there is little theoretical justification to 
         calculate <S**2> as in Hartree-Fock theory. We will do it anyways
         but you should keep in mind that the values have only limited relevance

Expectation value of <S**2>     :     0.759549
Ideal value S*(S+1) for S=0.5   :     0.750000
Deviation                       :     0.009549

----------------
ORBITAL ENERGIES
----------------
                 SPIN UP ORBITALS
  NO   OCC          E(Eh)            E(eV) 
   0   1.0000     -18.772631      -510.8293 
   1   1.0000      -6.594233      -179.4382 
   2   1.0000      -0.919959       -25.0334 
   3   1.0000      -0.397285       -10.8107 
   4   1.0000      -0.338338        -9.2066 
   5   1.0000      -0.338338        -9.2066 
   6   1.0000      -0.306322        -8.3354 
   7   0.0000      -0.059028        -1.6062 
   8   0.0000      -0.059028        -1.6062 
   9   0.0000      -0.002613        -0.0711 
  10   0.0000       0.010113         0.2752 
  11   0.0000       0.015639         0.4256 
  12   0.0000       0.015639         0.4256 
  13   0.0000       0.041613         1.1323 
  14   0.0000       0.052545         1.4298 
  15   0.0000       0.053212         1.4480 
  16   0.0000       0.053212         1.4480 
  17   0.0000       0.061638         1.6773 
  18   0.0000       0.061638         1.6773 
  19   0.0000       0.062094         1.6897 
  20   0.0000       0.062094         1.6897 
  21   0.0000       0.085178         2.3178 
  22   0.0000       0.096807         2.6342 
  23   0.0000       0.098450         2.6790 
  24   0.0000       0.098450         2.6790 
  25   0.0000       0.134685         3.6650 
  26   0.0000       0.134685         3.6650 
  27   0.0000       0.141952         3.8627 
  28   0.0000       0.147602         4.0165 
  29   0.0000       0.147602         4.0165 
  30   0.0000       0.151035         4.1099 
  31   0.0000       0.151035         4.1099 
  32   0.0000       0.153595         4.1795 
  33   0.0000       0.172020         4.6809 
  34   0.0000       0.172020         4.6809 
  35   0.0000       0.186857         5.0846 
  36   0.0000       0.186857         5.0846 
  37   0.0000       0.203460         5.5364 
  38   0.0000       0.226996         6.1769 
  39   0.0000       0.226996         6.1769 
  40   0.0000       0.232344         6.3224 
  41   0.0000       0.232344         6.3224 
  42   0.0000       0.233085         6.3426 
  43   0.0000       0.233085         6.3426 
  44   0.0000       0.234052         6.3689 
  45   0.0000       0.241235         6.5643 
  46   0.0000       0.241235         6.5643 
  47   0.0000       0.247768         6.7421 
  48   0.0000       0.247768         6.7421 
  49   0.0000       0.254704         6.9308 
  50   0.0000       0.325203         8.8492 
  51   0.0000       0.325203         8.8492 
  52   0.0000       0.332810         9.0562 
  53   0.0000       0.344865         9.3843 
  54   0.0000       0.344865         9.3843 
  55   0.0000       0.350255         9.5309 
  56   0.0000       0.350255         9.5309 
  57   0.0000       0.350512         9.5379 
  58   0.0000       0.358361         9.7515 
  59   0.0000       0.358361         9.7515 
  60   0.0000       0.360145         9.8001 
  61   0.0000       0.360145         9.8001 
  62   0.0000       0.365003         9.9322 
  63   0.0000       0.365003         9.9322 
  64   0.0000       0.370738        10.0883 
  65   0.0000       0.370738        10.0883 
  66   0.0000       0.397338        10.8121 
  67   0.0000       0.415890        11.3169 
  68   0.0000       0.420628        11.4459 
  69   0.0000       0.420628        11.4459 
  70   0.0000       0.434207        11.8154 
  71   0.0000       0.434207        11.8154 
  72   0.0000       0.449922        12.2430 
  73   0.0000       0.449922        12.2430 
  74   0.0000       0.495602        13.4860 
  75   0.0000       0.495602        13.4860 
  76   0.0000       0.522450        14.2166 
  77   0.0000       0.570592        15.5266 
  78   0.0000       0.596465        16.2306 
  79   0.0000       0.596465        16.2306 
  80   0.0000       0.601898        16.3785 
  81   0.0000       0.601899        16.3785 
  82   0.0000       0.682331        18.5672 
  83   0.0000       0.685163        18.6442 
  84   0.0000       0.685163        18.6442 
  85   0.0000       0.713859        19.4251 
  86   0.0000       0.713859        19.4251 
  87   0.0000       0.719179        19.5699 
  88   0.0000       0.719179        19.5699 
  89   0.0000       0.737545        20.0696 
  90   0.0000       0.737545        20.0696 
  91   0.0000       0.762713        20.7545 
  92   0.0000       0.778192        21.1757 
  93   0.0000       0.778192        21.1757 
  94   0.0000       0.784301        21.3419 
  95   0.0000       0.812361        22.1055 
  96   0.0000       0.812361        22.1055 
  97   0.0000       0.832983        22.6666 
  98   0.0000       0.832983        22.6666 
  99   0.0000       0.876625        23.8542 
 100   0.0000       0.885744        24.1023 
 101   0.0000       0.885744        24.1023 
 102   0.0000       0.919827        25.0298 
 103   0.0000       0.919827        25.0298 
 104   0.0000       0.966467        26.2989 
 105   0.0000       0.966467        26.2989 
 106   0.0000       0.996582        27.1184 
 107   0.0000       0.996582        27.1184 
 108   0.0000       1.001299        27.2467 
 109   0.0000       1.030341        28.0370 
 110   0.0000       1.030341        28.0370 
 111   0.0000       1.050412        28.5832 
 112   0.0000       1.071939        29.1689 
 113   0.0000       1.071939        29.1689 
 114   0.0000       1.229525        33.4571 
 115   0.0000       1.240420        33.7536 
 116   0.0000       1.240420        33.7536 
 117   0.0000       1.337286        36.3894 
 118   0.0000       1.337286        36.3894 
 119   0.0000       1.393798        37.9272 
 120   0.0000       1.393798        37.9272 
 121   0.0000       1.436622        39.0925 
 122   0.0000       1.509223        41.0681 
 123   0.0000       1.509223        41.0681 
 124   0.0000       1.568463        42.6801 
 125   0.0000       1.647180        44.8221 
 126   0.0000       1.647180        44.8221 
 127   0.0000       1.744031        47.4575 
 128   0.0000       1.744031        47.4575 
 129   0.0000       1.744393        47.4674 
 130   0.0000       1.815643        49.4062 
 131   0.0000       1.815643        49.4062 
 132   0.0000       1.819844        49.5205 
 133   0.0000       1.819844        49.5205 
 134   0.0000       1.961704        53.3807 
 135   0.0000       1.971602        53.6500 
 136   0.0000       1.971602        53.6500 
 137   0.0000       2.056558        55.9618 
 138   0.0000       2.237541        60.8866 
 139   0.0000       2.237541        60.8866 
 140   0.0000       2.361173        64.2508 
 141   0.0000       2.361173        64.2508 
 142   0.0000       2.398399        65.2638 
 143   0.0000       2.690189        73.2038 
 144   0.0000       2.690189        73.2038 
 145   0.0000       2.828514        76.9678 
 146   0.0000       2.906066        79.0781 
 147   0.0000       2.906066        79.0781 
 148   0.0000       3.108483        84.5861 
 149   0.0000       3.121444        84.9388 
 150   0.0000       3.121444        84.9388 
 151   0.0000       3.155961        85.8781 
 152   0.0000       3.155961        85.8781 
 153   0.0000       3.256857        88.6236 
 154   0.0000       3.256857        88.6236 
 155   0.0000       3.468856        94.3924 
 156   0.0000       3.619004        98.4781 
 157   0.0000       3.619004        98.4781 
 158   0.0000       3.622384        98.5701 
 159   0.0000       3.622384        98.5701 
 160   0.0000       3.798422       103.3603 
 161   0.0000       3.798422       103.3603 
 162   0.0000       3.800227       103.4094 
 163   0.0000       3.849260       104.7437 
 164   0.0000       3.849260       104.7437 
 165   0.0000       3.872716       105.3820 
 166   0.0000       3.872716       105.3820 
 167   0.0000       3.895198       105.9937 
 168   0.0000       4.042288       109.9963 
 169   0.0000       4.042288       109.9963 
 170   0.0000       4.303871       117.1143 
 171   0.0000       4.303871       117.1143 
 172   0.0000       4.338045       118.0442 
 173   0.0000       4.338045       118.0442 
 174   0.0000       4.421690       120.3203 
 175   0.0000       4.658720       126.7702 
 176   0.0000       4.979541       135.5002 
 177   0.0000       4.979541       135.5002 
 178   0.0000       5.131154       139.6258 
 179   0.0000       5.131154       139.6258 
 180   0.0000       5.147204       140.0626 
 181   0.0000       5.520360       150.2166 
 182   0.0000       5.520360       150.2166 
 183   0.0000       5.582934       151.9193 
 184   0.0000       5.955237       162.0502 
 185   0.0000       5.955237       162.0502 
 186   0.0000       6.244320       169.9166 
 187   0.0000       6.244320       169.9166 
 188   0.0000       6.305707       171.5870 
 189   0.0000       6.305707       171.5870 
 190   0.0000       6.813669       185.4094 
 191   0.0000       7.108143       193.4224 
 192   0.0000       7.108143       193.4224 
 193   0.0000       7.292998       198.4526 
 194   0.0000       7.378387       200.7761 
 195   0.0000       7.378388       200.7761 
 196   0.0000       7.496982       204.0032 
 197   0.0000       7.496982       204.0032 
 198   0.0000       7.737500       210.5481 
 199   0.0000       8.088502       220.0993 
 200   0.0000       8.088502       220.0993 
 201   0.0000       8.810152       239.7364 
 202   0.0000       9.123693       248.2683 
 203   0.0000       9.123693       248.2683 
 204   0.0000       9.169982       249.5279 
 205   0.0000       9.169982       249.5279 
 206   0.0000       9.224270       251.0052 
 207   0.0000       9.224270       251.0052 
 208   0.0000       9.308127       253.2870 
 209   0.0000       9.308127       253.2870 
 210   0.0000       9.333757       253.9845 
 211   0.0000       9.333757       253.9845 
 212   0.0000       9.473965       257.7997 
 213   0.0000       9.473965       257.7997 
 214   0.0000       9.605071       261.3673 
 215   0.0000       9.605071       261.3673 
 216   0.0000       9.671355       263.1710 
 217   0.0000       9.671355       263.1710 
 218   0.0000       9.828963       267.4597 
 219   0.0000      10.092825       274.6397 
 220   0.0000      10.092825       274.6397 
 221   0.0000      10.164895       276.6009 
 222   0.0000      10.164895       276.6009 
 223   0.0000      10.273725       279.5623 
 224   0.0000      10.276062       279.6259 
 225   0.0000      10.276062       279.6259 
 226   0.0000      10.628339       289.2118 
 227   0.0000      10.628339       289.2118 
 228   0.0000      10.725638       291.8594 
 229   0.0000      10.725638       291.8594 
 230   0.0000      10.960215       298.2426 
 231   0.0000      11.004450       299.4463 
 232   0.0000      11.145102       303.2736 
 233   0.0000      11.145102       303.2736 
 234   0.0000      11.447558       311.5039 
 235   0.0000      11.447558       311.5039 
 236   0.0000      11.534152       313.8602 
 237   0.0000      12.037137       327.5472 
 238   0.0000      12.037137       327.5472 
 239   0.0000      12.166590       331.0698 
 240   0.0000      12.166590       331.0698 
 241   0.0000      12.333298       335.6061 
 242   0.0000      12.594229       342.7064 
 243   0.0000      12.594229       342.7064 
 244   0.0000      12.767074       347.4098 
 245   0.0000      12.767075       347.4098 
 246   0.0000      12.921783       351.6196 
 247   0.0000      12.921783       351.6196 
 248   0.0000      13.079790       355.9192 
 249   0.0000      13.079790       355.9192 
 250   0.0000      13.462665       366.3377 
 251   0.0000      13.591974       369.8564 
 252   0.0000      13.591974       369.8564 
 253   0.0000      14.936469       406.4420 
 254   0.0000      14.936469       406.4420 
 255   0.0000      15.045732       409.4152 
 256   0.0000      16.518502       449.4913 
 257   0.0000      16.518502       449.4913 
 258   0.0000      16.992993       462.4029 
 259   0.0000      16.992994       462.4029 
 260   0.0000      17.026098       463.3037 
 261   0.0000      17.256816       469.5818 
 262   0.0000      17.256816       469.5818 
 263   0.0000      18.012885       490.1555 
 264   0.0000      18.012885       490.1555 
 265   0.0000      18.624264       506.7920 
 266   0.0000      18.659073       507.7392 
 267   0.0000      18.659073       507.7392 
 268   0.0000      19.867249       540.6153 
 269   0.0000      20.118632       547.4558 
 270   0.0000      20.118633       547.4558 
 271   0.0000      20.678638       562.6944 
 272   0.0000      20.678638       562.6944 
 273   0.0000      22.819417       620.9479 
 274   0.0000      22.919977       623.6843 
 275   0.0000      22.919977       623.6843 
 276   0.0000      23.860331       649.2726 
 277   0.0000      23.860331       649.2726 
 278   0.0000      25.844230       703.2573 
 279   0.0000      30.136400       820.0531 
 280   0.0000      31.923535       868.6835 
 281   0.0000      31.923535       868.6835 
 282   0.0000      34.039821       926.2706 
 283   0.0000      66.511600      1809.8726 
 284   0.0000      66.511611      1809.8729 
 285   0.0000      67.069870      1825.0640 
 286   0.0000      67.069870      1825.0640 
 287   0.0000      68.192568      1855.6141 
 288   0.0000      78.503444      2136.1873 
 289   0.0000     143.282371      3898.9115 

                 SPIN DOWN ORBITALS
  NO   OCC          E(Eh)            E(eV) 
   0   1.0000     -18.773144      -510.8432 
   1   1.0000      -6.579334      -179.0328 
   2   1.0000      -0.918381       -24.9904 
   3   1.0000      -0.385321       -10.4851 
   4   1.0000      -0.335275        -9.1233 
   5   1.0000      -0.335275        -9.1233 
   6   0.0000      -0.200612        -5.4589 
   7   0.0000      -0.017355        -0.4723 
   8   0.0000      -0.017355        -0.4723 
   9   0.0000       0.011976         0.3259 
  10   0.0000       0.015299         0.4163 
  11   0.0000       0.020162         0.5486 
  12   0.0000       0.020162         0.5486 
  13   0.0000       0.054979         1.4961 
  14   0.0000       0.054979         1.4961 
  15   0.0000       0.056804         1.5457 
  16   0.0000       0.057265         1.5582 
  17   0.0000       0.068429         1.8620 
  18   0.0000       0.068429         1.8620 
  19   0.0000       0.074785         2.0350 
  20   0.0000       0.074785         2.0350 
  21   0.0000       0.094437         2.5698 
  22   0.0000       0.106035         2.8854 
  23   0.0000       0.106644         2.9019 
  24   0.0000       0.106644         2.9019 
  25   0.0000       0.140333         3.8187 
  26   0.0000       0.140333         3.8187 
  27   0.0000       0.153369         4.1734 
  28   0.0000       0.153369         4.1734 
  29   0.0000       0.153641         4.1808 
  30   0.0000       0.154973         4.2170 
  31   0.0000       0.154973         4.2170 
  32   0.0000       0.174359         4.7446 
  33   0.0000       0.186833         5.0840 
  34   0.0000       0.186833         5.0840 
  35   0.0000       0.202019         5.4972 
  36   0.0000       0.202019         5.4972 
  37   0.0000       0.224513         6.1093 
  38   0.0000       0.239134         6.5072 
  39   0.0000       0.239134         6.5072 
  40   0.0000       0.242153         6.5893 
  41   0.0000       0.242153         6.5893 
  42   0.0000       0.242583         6.6010 
  43   0.0000       0.250139         6.8066 
  44   0.0000       0.250139         6.8066 
  45   0.0000       0.253108         6.8874 
  46   0.0000       0.253108         6.8874 
  47   0.0000       0.254993         6.9387 
  48   0.0000       0.254993         6.9387 
  49   0.0000       0.267510         7.2793 
  50   0.0000       0.335508         9.1296 
  51   0.0000       0.335508         9.1296 
  52   0.0000       0.347119         9.4456 
  53   0.0000       0.352373         9.5886 
  54   0.0000       0.352373         9.5886 
  55   0.0000       0.363012         9.8781 
  56   0.0000       0.363012         9.8781 
  57   0.0000       0.363252         9.8846 
  58   0.0000       0.371468        10.1082 
  59   0.0000       0.371468        10.1082 
  60   0.0000       0.372232        10.1289 
  61   0.0000       0.372232        10.1289 
  62   0.0000       0.375253        10.2112 
  63   0.0000       0.375253        10.2112 
  64   0.0000       0.378780        10.3071 
  65   0.0000       0.378780        10.3071 
  66   0.0000       0.426730        11.6119 
  67   0.0000       0.433415        11.7938 
  68   0.0000       0.433415        11.7938 
  69   0.0000       0.451469        12.2851 
  70   0.0000       0.451469        12.2851 
  71   0.0000       0.452938        12.3251 
  72   0.0000       0.455420        12.3926 
  73   0.0000       0.455420        12.3926 
  74   0.0000       0.518672        14.1138 
  75   0.0000       0.518672        14.1138 
  76   0.0000       0.539039        14.6680 
  77   0.0000       0.587076        15.9752 
  78   0.0000       0.614440        16.7198 
  79   0.0000       0.614440        16.7198 
  80   0.0000       0.633398        17.2356 
  81   0.0000       0.633398        17.2356 
  82   0.0000       0.689758        18.7693 
  83   0.0000       0.692686        18.8490 
  84   0.0000       0.692686        18.8490 
  85   0.0000       0.721200        19.6249 
  86   0.0000       0.721200        19.6249 
  87   0.0000       0.722440        19.6586 
  88   0.0000       0.722440        19.6586 
  89   0.0000       0.743152        20.2222 
  90   0.0000       0.743152        20.2222 
  91   0.0000       0.784903        21.3583 
  92   0.0000       0.794383        21.6163 
  93   0.0000       0.794383        21.6163 
  94   0.0000       0.813056        22.1244 
  95   0.0000       0.829527        22.5726 
  96   0.0000       0.829527        22.5726 
  97   0.0000       0.845479        23.0066 
  98   0.0000       0.845479        23.0066 
  99   0.0000       0.892833        24.2952 
 100   0.0000       0.892833        24.2952 
 101   0.0000       0.906862        24.6770 
 102   0.0000       0.924725        25.1630 
 103   0.0000       0.924725        25.1630 
 104   0.0000       0.968614        26.3573 
 105   0.0000       0.968614        26.3573 
 106   0.0000       1.006180        27.3796 
 107   0.0000       1.006180        27.3796 
 108   0.0000       1.033423        28.1209 
 109   0.0000       1.043907        28.4062 
 110   0.0000       1.043908        28.4062 
 111   0.0000       1.064181        28.9578 
 112   0.0000       1.090655        29.6782 
 113   0.0000       1.090655        29.6782 
 114   0.0000       1.237547        33.6754 
 115   0.0000       1.264789        34.4167 
 116   0.0000       1.264789        34.4167 
 117   0.0000       1.393552        37.9205 
 118   0.0000       1.393552        37.9205 
 119   0.0000       1.422359        38.7044 
 120   0.0000       1.422359        38.7044 
 121   0.0000       1.455142        39.5964 
 122   0.0000       1.565867        42.6094 
 123   0.0000       1.565867        42.6094 
 124   0.0000       1.637680        44.5635 
 125   0.0000       1.674736        45.5719 
 126   0.0000       1.674736        45.5719 
 127   0.0000       1.766399        48.0662 
 128   0.0000       1.766399        48.0662 
 129   0.0000       1.805480        49.1296 
 130   0.0000       1.821414        49.5632 
 131   0.0000       1.821414        49.5632 
 132   0.0000       1.853597        50.4389 
 133   0.0000       1.853597        50.4389 
 134   0.0000       1.980276        53.8860 
 135   0.0000       1.980276        53.8860 
 136   0.0000       1.990907        54.1753 
 137   0.0000       2.083873        56.7051 
 138   0.0000       2.249701        61.2175 
 139   0.0000       2.249701        61.2175 
 140   0.0000       2.369457        64.4762 
 141   0.0000       2.369457        64.4762 
 142   0.0000       2.403070        65.3909 
 143   0.0000       2.717092        73.9358 
 144   0.0000       2.717092        73.9358 
 145   0.0000       2.870602        78.1131 
 146   0.0000       2.946828        80.1873 
 147   0.0000       2.946828        80.1873 
 148   0.0000       3.167509        86.1923 
 149   0.0000       3.188688        86.7686 
 150   0.0000       3.188688        86.7686 
 151   0.0000       3.204399        87.1961 
 152   0.0000       3.204399        87.1961 
 153   0.0000       3.307998        90.0152 
 154   0.0000       3.307998        90.0152 
 155   0.0000       3.507828        95.4528 
 156   0.0000       3.681902       100.1896 
 157   0.0000       3.681902       100.1896 
 158   0.0000       3.701463       100.7219 
 159   0.0000       3.701463       100.7219 
 160   0.0000       3.828703       104.1843 
 161   0.0000       3.828703       104.1843 
 162   0.0000       3.852260       104.8253 
 163   0.0000       3.946868       107.3997 
 164   0.0000       3.946868       107.3997 
 165   0.0000       3.959743       107.7501 
 166   0.0000       3.959743       107.7501 
 167   0.0000       4.016087       109.2833 
 168   0.0000       4.042503       110.0021 
 169   0.0000       4.042503       110.0021 
 170   0.0000       4.311648       117.3259 
 171   0.0000       4.311648       117.3259 
 172   0.0000       4.360760       118.6623 
 173   0.0000       4.360760       118.6623 
 174   0.0000       4.440958       120.8446 
 175   0.0000       4.686486       127.5258 
 176   0.0000       5.006419       136.2316 
 177   0.0000       5.006419       136.2316 
 178   0.0000       5.126208       139.4912 
 179   0.0000       5.126208       139.4912 
 180   0.0000       5.172165       140.7418 
 181   0.0000       5.525293       150.3509 
 182   0.0000       5.525293       150.3509 
 183   0.0000       5.608643       152.6189 
 184   0.0000       5.949668       161.8987 
 185   0.0000       5.949668       161.8987 
 186   0.0000       6.264274       170.4596 
 187   0.0000       6.264274       170.4596 
 188   0.0000       6.309121       171.6799 
 189   0.0000       6.309121       171.6799 
 190   0.0000       6.858514       186.6297 
 191   0.0000       7.124179       193.8588 
 192   0.0000       7.124179       193.8588 
 193   0.0000       7.314208       199.0297 
 194   0.0000       7.395155       201.2324 
 195   0.0000       7.395155       201.2324 
 196   0.0000       7.542221       205.2343 
 197   0.0000       7.542221       205.2343 
 198   0.0000       7.778583       211.6660 
 199   0.0000       8.101185       220.4445 
 200   0.0000       8.101185       220.4445 
 201   0.0000       8.858560       241.0537 
 202   0.0000       9.133422       248.5330 
 203   0.0000       9.133422       248.5331 
 204   0.0000       9.211147       250.6480 
 205   0.0000       9.211147       250.6480 
 206   0.0000       9.271618       252.2935 
 207   0.0000       9.271618       252.2935 
 208   0.0000       9.329618       253.8718 
 209   0.0000       9.329619       253.8718 
 210   0.0000       9.378158       255.1927 
 211   0.0000       9.378158       255.1927 
 212   0.0000       9.493438       258.3296 
 213   0.0000       9.493438       258.3296 
 214   0.0000       9.683131       263.4914 
 215   0.0000       9.683131       263.4914 
 216   0.0000       9.764565       265.7073 
 217   0.0000       9.764565       265.7073 
 218   0.0000       9.894158       269.2337 
 219   0.0000      10.166100       276.6336 
 220   0.0000      10.166100       276.6336 
 221   0.0000      10.221289       278.1354 
 222   0.0000      10.221289       278.1354 
 223   0.0000      10.310252       280.5562 
 224   0.0000      10.359343       281.8920 
 225   0.0000      10.359343       281.8920 
 226   0.0000      10.663036       290.1560 
 227   0.0000      10.663036       290.1560 
 228   0.0000      10.774589       293.1915 
 229   0.0000      10.774589       293.1915 
 230   0.0000      10.997654       299.2614 
 231   0.0000      11.048420       300.6428 
 232   0.0000      11.165268       303.8224 
 233   0.0000      11.165268       303.8224 
 234   0.0000      11.517487       313.4068 
 235   0.0000      11.517487       313.4068 
 236   0.0000      11.572941       314.9157 
 237   0.0000      12.028454       327.3109 
 238   0.0000      12.028454       327.3109 
 239   0.0000      12.166670       331.0719 
 240   0.0000      12.166670       331.0719 
 241   0.0000      12.367568       336.5386 
 242   0.0000      12.586106       342.4854 
 243   0.0000      12.586106       342.4854 
 244   0.0000      12.768711       347.4543 
 245   0.0000      12.768712       347.4543 
 246   0.0000      12.945893       352.2756 
 247   0.0000      12.945893       352.2756 
 248   0.0000      13.092054       356.2529 
 249   0.0000      13.092054       356.2529 
 250   0.0000      13.477858       366.7512 
 251   0.0000      13.625492       370.7685 
 252   0.0000      13.625492       370.7685 
 253   0.0000      14.955847       406.9693 
 254   0.0000      14.955847       406.9693 
 255   0.0000      15.077658       410.2839 
 256   0.0000      16.541617       450.1203 
 257   0.0000      16.541617       450.1203 
 258   0.0000      16.981717       462.0960 
 259   0.0000      16.981717       462.0960 
 260   0.0000      17.048570       463.9152 
 261   0.0000      17.253403       469.4890 
 262   0.0000      17.253403       469.4890 
 263   0.0000      18.015110       490.2161 
 264   0.0000      18.015110       490.2161 
 265   0.0000      18.639766       507.2138 
 266   0.0000      18.664435       507.8851 
 267   0.0000      18.664435       507.8851 
 268   0.0000      19.897543       541.4397 
 269   0.0000      20.141428       548.0761 
 270   0.0000      20.141429       548.0761 
 271   0.0000      20.712523       563.6164 
 272   0.0000      20.712523       563.6164 
 273   0.0000      22.852040       621.8356 
 274   0.0000      22.909816       623.4078 
 275   0.0000      22.909817       623.4078 
 276   0.0000      23.864080       649.3746 
 277   0.0000      23.864080       649.3746 
 278   0.0000      25.857368       703.6148 
 279   0.0000      30.135842       820.0380 
 280   0.0000      31.918357       868.5427 
 281   0.0000      31.918357       868.5427 
 282   0.0000      34.046138       926.4425 
 283   0.0000      66.504921      1809.6909 
 284   0.0000      66.504932      1809.6912 
 285   0.0000      67.071544      1825.1095 
 286   0.0000      67.071544      1825.1095 
 287   0.0000      68.197596      1855.7509 
 288   0.0000      78.525671      2136.7921 
 289   0.0000     143.281803      3898.8961 

                    ********************************
                    * MULLIKEN POPULATION ANALYSIS *
                    ********************************

--------------------------------------------
MULLIKEN ATOMIC CHARGES AND SPIN POPULATIONS
--------------------------------------------
   0 B :    0.392917    0.951294
   1 O :   -0.392917    0.048706
Sum of atomic charges         :   -0.0000000
Sum of atomic spin populations:    1.0000000

-----------------------------------------------------
MULLIKEN REDUCED ORBITAL CHARGES AND SPIN POPULATIONS
-----------------------------------------------------
CHARGE
  0 B s       :     3.038700  s :     3.038700
      pz      :     0.669716  p :     1.479173
      px      :     0.404728
      py      :     0.404728
      dz2     :     0.028063  d :     0.073602
      dxz     :     0.022769
      dyz     :     0.022769
      dx2y2   :     0.000000
      dxy     :     0.000000
      f0      :     0.003726  f :     0.013308
      f+1     :     0.004791
      f-1     :     0.004791
      f+2     :     0.000000
      f-2     :     0.000000
      f+3     :     0.000000
      f-3     :     0.000000
      g0      :     0.000483  g :     0.002189
      g+1     :     0.000853
      g-1     :     0.000853
      g+2     :     0.000000
      g-2     :     0.000000
      g+3     :     0.000000
      g-3     :     0.000000
      g+4     :     0.000000
      g-4     :     0.000000
      h0      :     0.000036  h :     0.000111
      h+1     :     0.000038
      h-1     :     0.000038
      h+2     :     0.000000
      h-2     :     0.000000
      h+3     :     0.000000
      h-3     :     0.000000
      h+4     :     0.000000
      h-4     :     0.000000
      h+5     :     0.000000
      h-5     :     0.000000
  1 O s       :     3.819112  s :     3.819112
      pz      :     1.426744  p :     4.523862
      px      :     1.548559
      py      :     1.548559
      dz2     :     0.012156  d :     0.045096
      dxz     :     0.016470
      dyz     :     0.016470
      dx2y2   :     0.000000
      dxy     :    -0.000000
      f0      :     0.001055  f :     0.004251
      f+1     :     0.001598
      f-1     :     0.001598
      f+2     :    -0.000000
      f-2     :     0.000000
      f+3     :     0.000000
      f-3     :     0.000000
      g0      :     0.000169  g :     0.000515
      g+1     :     0.000173
      g-1     :     0.000173
      g+2     :    -0.000000
      g-2     :    -0.000000
      g+3     :     0.000000
      g-3     :     0.000000
      g+4     :     0.000000
      g-4     :    -0.000000
      h0      :     0.000042  h :     0.000081
      h+1     :     0.000020
      h-1     :     0.000020
      h+2     :    -0.000000
      h-2     :    -0.000000
      h+3     :     0.000000
      h-3     :     0.000000
      h+4     :     0.000000
      h-4     :     0.000000
      h+5     :     0.000000
      h-5     :     0.000000

SPIN
  0 B s       :     0.471238  s :     0.471238
      pz      :     0.396698  p :     0.500671
      px      :     0.051987
      py      :     0.051987
      dz2     :    -0.000464  d :    -0.021232
      dxz     :    -0.010384
      dyz     :    -0.010384
      dx2y2   :    -0.000000
      dxy     :    -0.000000
      f0      :     0.000280  f :     0.000335
      f+1     :     0.000027
      f-1     :     0.000027
      f+2     :    -0.000000
      f-2     :     0.000000
      f+3     :     0.000000
      f-3     :     0.000000
      g0      :     0.000067  g :     0.000285
      g+1     :     0.000109
      g-1     :     0.000109
      g+2     :    -0.000000
      g-2     :     0.000000
      g+3     :     0.000000
      g-3     :     0.000000
      g+4     :     0.000000
      g-4     :     0.000000
      h0      :     0.000003  h :    -0.000003
      h+1     :    -0.000003
      h-1     :    -0.000003
      h+2     :    -0.000000
      h-2     :    -0.000000
      h+3     :     0.000000
      h-3     :     0.000000
      h+4     :     0.000000
      h-4     :     0.000000
      h+5     :     0.000000
      h-5     :     0.000000
  1 O s       :     0.064079  s :     0.064079
      pz      :     0.058527  p :    -0.030081
      px      :    -0.044304
      py      :    -0.044304
      dz2     :     0.008606  d :     0.012827
      dxz     :     0.002111
      dyz     :     0.002111
      dx2y2   :    -0.000000
      dxy     :    -0.000000
      f0      :     0.000823  f :     0.001654
      f+1     :     0.000415
      f-1     :     0.000415
      f+2     :    -0.000000
      f-2     :     0.000000
      f+3     :    -0.000000
      f-3     :    -0.000000
      g0      :     0.000118  g :     0.000192
      g+1     :     0.000037
      g-1     :     0.000037
      g+2     :     0.000000
      g-2     :     0.000000
      g+3     :     0.000000
      g-3     :     0.000000
      g+4     :    -0.000000
      g-4     :    -0.000000
      h0      :     0.000025  h :     0.000035
      h+1     :     0.000005
      h-1     :     0.000005
      h+2     :     0.000000
      h-2     :    -0.000000
      h+3     :    -0.000000
      h-3     :    -0.000000
      h+4     :     0.000000
      h-4     :     0.000000
      h+5     :    -0.000000
      h-5     :    -0.000000


                     *******************************
                     * LOEWDIN POPULATION ANALYSIS *
                     *******************************

-------------------------------------------
LOEWDIN ATOMIC CHARGES AND SPIN POPULATIONS
-------------------------------------------
   0 B :   -0.161423    0.763570
   1 O :    0.161423    0.236430

----------------------------------------------------
LOEWDIN REDUCED ORBITAL CHARGES AND SPIN POPULATIONS
----------------------------------------------------
CHARGE
  0 B s       :     2.678358  s :     2.678358
      pz      :     0.835751  p :     1.756313
      px      :     0.460281
      py      :     0.460281
      dz2     :     0.232698  d :     0.471794
      dxz     :     0.119548
      dyz     :     0.119548
      dx2y2   :     0.000000
      dxy     :     0.000000
      f0      :     0.072169  f :     0.190974
      f+1     :     0.059403
      f-1     :     0.059403
      f+2     :     0.000000
      f-2     :     0.000000
      f+3     :     0.000000
      f-3     :     0.000000
      g0      :     0.014187  g :     0.059955
      g+1     :     0.022884
      g-1     :     0.022884
      g+2     :     0.000000
      g-2     :     0.000000
      g+3     :     0.000000
      g-3     :     0.000000
      g+4     :     0.000000
      g-4     :     0.000000
      h0      :     0.001188  h :     0.004028
      h+1     :     0.001420
      h-1     :     0.001420
      h+2     :     0.000000
      h-2     :     0.000000
      h+3     :     0.000000
      h-3     :     0.000000
      h+4     :     0.000000
      h-4     :     0.000000
      h+5     :     0.000000
      h-5     :     0.000000
  1 O s       :     3.335892  s :     3.335892
      pz      :     1.682898  p :     4.273405
      px      :     1.295254
      py      :     1.295254
      dz2     :     0.096020  d :     0.146105
      dxz     :     0.025043
      dyz     :     0.025043
      dx2y2   :     0.000000
      dxy     :     0.000000
      f0      :     0.039263  f :     0.064351
      f+1     :     0.012544
      f-1     :     0.012544
      f+2     :     0.000000
      f-2     :     0.000000
      f+3     :     0.000000
      f-3     :     0.000000
      g0      :     0.009469  g :     0.015757
      g+1     :     0.003144
      g-1     :     0.003144
      g+2     :     0.000000
      g-2     :     0.000000
      g+3     :     0.000000
      g-3     :     0.000000
      g+4     :     0.000000
      g-4     :     0.000000
      h0      :     0.002109  h :     0.003067
      h+1     :     0.000479
      h-1     :     0.000479
      h+2     :     0.000000
      h-2     :     0.000000
      h+3     :     0.000000
      h-3     :     0.000000
      h+4     :     0.000000
      h-4     :     0.000000
      h+5     :     0.000000
      h-5     :     0.000000

SPIN
  0 B s       :     0.360259  s :     0.360259
      pz      :     0.350336  p :     0.437637
      px      :     0.043650
      py      :     0.043650
      dz2     :     0.000644  d :    -0.028426
      dxz     :    -0.014535
      dyz     :    -0.014535
      dx2y2   :    -0.000000
      dxy     :    -0.000000
      f0      :     0.000694  f :    -0.004373
      f+1     :    -0.002533
      f-1     :    -0.002533
      f+2     :    -0.000000
      f-2     :     0.000000
      f+3     :     0.000000
      f-3     :     0.000000
      g0      :     0.000229  g :    -0.001460
      g+1     :    -0.000845
      g-1     :    -0.000845
      g+2     :    -0.000000
      g-2     :    -0.000000
      g+3     :     0.000000
      g-3     :     0.000000
      g+4     :     0.000000
      g-4     :     0.000000
      h0      :     0.000047  h :    -0.000066
      h+1     :    -0.000057
      h-1     :    -0.000057
      h+2     :    -0.000000
      h-2     :    -0.000000
      h+3     :     0.000000
      h-3     :     0.000000
      h+4     :     0.000000
      h-4     :     0.000000
      h+5     :     0.000000
      h-5     :     0.000000
  1 O s       :     0.071828  s :     0.071828
      pz      :     0.128730  p :     0.060612
      px      :    -0.034059
      py      :    -0.034059
      dz2     :     0.063251  d :     0.073095
      dxz     :     0.004922
      dyz     :     0.004922
      dx2y2   :    -0.000000
      dxy     :    -0.000000
      f0      :     0.018003  f :     0.023056
      f+1     :     0.002526
      f-1     :     0.002526
      f+2     :    -0.000000
      f-2     :     0.000000
      f+3     :    -0.000000
      f-3     :    -0.000000
      g0      :     0.004903  g :     0.006407
      g+1     :     0.000752
      g-1     :     0.000752
      g+2     :    -0.000000
      g-2     :     0.000000
      g+3     :     0.000000
      g-3     :     0.000000
      g+4     :    -0.000000
      g-4     :     0.000000
      h0      :     0.001076  h :     0.001432
      h+1     :     0.000178
      h-1     :     0.000178
      h+2     :     0.000000
      h-2     :     0.000000
      h+3     :    -0.000000
      h-3     :    -0.000000
      h+4     :     0.000000
      h-4     :     0.000000
      h+5     :    -0.000000
      h-5     :    -0.000000


                      *****************************
                      * MAYER POPULATION ANALYSIS *
                      *****************************

  NA   - Mulliken gross atomic population
  ZA   - Total nuclear charge
  QA   - Mulliken gross atomic charge
  VA   - Mayer's total valence
  BVA  - Mayer's bonded valence
  FA   - Mayer's free valence

  ATOM       NA         ZA         QA         VA         BVA        FA
  0 B      4.6071     5.0000     0.3929     3.2088     2.4573     0.7516
  1 O      8.3929     8.0000    -0.3929     2.4857     2.4573     0.0285

  Mayer bond orders larger than 0.1
B(  0-B ,  1-O ) :   2.4573 

-------
TIMINGS
-------

Total SCF time: 0 days 0 hours 24 min 51 sec 

Total time                  ....    1491.774 sec
Sum of individual times     ....    1491.244 sec  (100.0%)

Fock matrix formation       ....    1486.111 sec  ( 99.6%)
  XC integration            ....      66.398 sec  (  4.5% of F)
    Basis function eval.    ....       5.017 sec  (  7.6% of XC)
    Density eval.           ....      13.184 sec  ( 19.9% of XC)
    XC-Functional eval.     ....       0.856 sec  (  1.3% of XC)
    XC-Potential eval.      ....      46.499 sec  ( 70.0% of XC)
Diagonalization             ....       0.722 sec  (  0.0%)
Density matrix formation    ....       0.015 sec  (  0.0%)
Population analysis         ....       0.065 sec  (  0.0%)
Initial guess               ....       2.366 sec  (  0.2%)
Orbital Transformation      ....       0.000 sec  (  0.0%)
Orbital Orthonormalization  ....       0.000 sec  (  0.0%)
DIIS solution               ....       0.374 sec  (  0.0%)
Grid generation             ....       1.590 sec  (  0.1%)

-------------------------   --------------------
FINAL SINGLE POINT ENERGY       -99.958083093861
-------------------------   --------------------


                            ***************************************
                            *     ORCA property calculations      *
                            ***************************************

                                    ---------------------
                                    Active property flags
                                    ---------------------
   (+) Dipole Moment
   (+) Polarizability


------------------------------------------------------------------------------
                       ORCA ELECTRIC PROPERTIES CALCULATION
------------------------------------------------------------------------------

Dipole Moment Calculation                       ... on
Quadrupole Moment Calculation                   ... off
Polarizability Calculation                      ... Analytic (CP-SCF)
GBWName                                         ... bo_pbe.gbw
Electron density file                           ... bo_pbe.scfp.tmp
The origin for moment calculation is the CENTER OF MASS  = ( 0.000000,  0.000000  1.358369)

-------------
DIPOLE MOMENT
-------------
                                X             Y             Z
Electronic contribution:     -0.00000      -0.00000      -1.40976
Nuclear contribution   :      0.00000       0.00000       0.55060
                        -----------------------------------------
Total Dipole Moment    :     -0.00000      -0.00000      -0.85917
                        -----------------------------------------
Magnitude (a.u.)       :      0.85917
Magnitude (Debye)      :      2.18383



--------------------
Rotational spectrum 
--------------------
 
Rotational constants in cm-1:     0.000000     1.801131     1.801131 
Rotational constants in MHz :     0.000000 53996.558117 53996.558117 

 Dipole components along the rotational axes: 
x,y,z [a.u.] :    -0.859166    -0.000000    -0.000000 
x,y,z [Debye]:    -2.183828    -0.000000    -0.000000 

 
Transforming and storing MO dipole integrals   ... done

                ... starting polarizability calculation

Opening the Dipole integral file               ... (bo_pbe.dmo.tmp) done
Reading Dipole-MO integrals                    ... done
Solving CP-SCF equations                       ... 
------------------------------------------------------------------------------
                           ORCA CP-SCF CALCULATION
------------------------------------------------------------------------------

Input orbitals are from        ... bo_pbe.gbw
Input Perturbation             ... bo_pbe.cpv.tmp
Wavefunction output            ... bo_pbe.cpu.tmp
Perturbation mode              ... Real perturbation (singlet)
Solver                         ... POPLE
Max. number of iterations      ... 200
Convergence tolerance          ... 1.000e-06
Integral handling              ... Direct
Number of perturbations        ... 3
Number of operators            ... 2
Orbital ranges used for CP-SCF:
 Operator 0:  Orbitals   0...  6  to   7...289
 Operator 1:  Orbitals   0...  5  to   6...289
DFT calculation                         ... on
Exchange functional (SCF)               ... PBE
Exchange functional (CP-SCF)            ... PBE
   PBE kappa parameter  XKappa (SCF)    ...  0.804000
   PBE kappa parameter  XKappa (CP-SCF) ...  0.804000
   PBE mue parameter   XMuePBE (SCF)    ...  0.219520
   PBE mue parameter   XMuePBE (CP-SCF) ...  0.219520
Correlation functional (SCF)            ... PBE
Correlation functional (CP-SCF)         ... PBE
   PBE beta parameter CBetaPBE (SCF)    ...  0.066725
   PBE beta parameter CBetaPBE (CP-SCF) ...  0.066725
 LDA part of GGA corr.  LDAOpt (SCF)    ... PW91-LDA
 LDA part of GGA corr.  LDAOpt (CP-SCF) ... PW91-LDA
Variables per vector in CP-SCF ... 3685
Number of vectors sought       ... 3
Recalculating density on grid  ... done
Calculating the xc-kernel      ... done
     CP-SCF ITERATION   0: 
     CP-SCF ITERATION   1:      0.436758114297
     CP-SCF ITERATION   2:      0.016420728306
     CP-SCF ITERATION   3:      0.001835843680
     CP-SCF ITERATION   4:      0.000068616936
     CP-SCF ITERATION   5:      0.000002957008
     CP-SCF ITERATION   6:      0.000000173599
done
Reading CP-SCF coefficients                    ... done
Doing the polarizability tensor   ... done
Cleaning up                                    ... done

-------------------------
THE POLARIZABILITY TENSOR
-------------------------

The raw cartesian tensor (atomic units):
   16.53785      0.00000      0.00000  
    0.00000     16.53785      0.00000  
    0.00000      0.00000     20.46094  
diagonalized tensor: 
   16.53785     16.53785     20.46094  

   -0.97883     -0.20467      0.00000  
    0.20467     -0.97883      0.00000  
    0.00000      0.00000      1.00000  

Isotropic polarizability :  17.84555


Timings for individual modules:

Sum of individual times         ...     2548.900 sec (=  42.482 min)
GTO integral calculation        ...        0.954 sec (=   0.016 min)   0.0 %
SCF iterations                  ...     1491.803 sec (=  24.863 min)  58.5 %
Solution of CP-SCF eqns.        ...     1056.143 sec (=  17.602 min)  41.4 %
                             ****ORCA TERMINATED NORMALLY****
TOTAL RUN TIME: 0 days 0 hours 42 minutes 35 seconds 113 msec
