
                                 *****************
                                 * O   R   C   A *
                                 *****************

           --- An Ab Initio, DFT and Semiempirical electronic structure package ---

                  #######################################################
                  #                        -***-                        #
                  #          Department of theory and spectroscopy      #
                  #               Directorship: Frank Neese             #
                  #        Max Planck Institute fuer Kohlenforschung    #
                  #                Kaiser Wilhelm Platz 1               #
                  #                 D-45470 Muelheim/Ruhr               #
                  #                      Germany                        #
                  #                                                     #
                  #                  All rights reserved                #
                  #                        -***-                        #
                  #######################################################


                         Program Version 4.1.2  - RELEASE  -


 With contributions from (in alphabetic order):
   Daniel Aravena         : Magnetic Properties
   Michael Atanasov       : Ab Initio Ligand Field Theory
   Alexander A. Auer      : GIAO ZORA
   Ute Becker             : Parallelization
   Giovanni Bistoni       : ED, Open-shell LED
   Martin Brehm           : Molecular dynamics
   Dmytro Bykov           : SCF Hessian
   Vijay G. Chilkuri      : MRCI spin determinant printing
   Dipayan Datta          : RHF DLPNO-CCSD density
   Achintya Kumar Dutta   : EOM-CC, STEOM-CC
   Dmitry Ganyushin       : Spin-Orbit,Spin-Spin,Magnetic field MRCI
   Miquel Garcia          : C-PCM Hessian
   Yang Guo               : DLPNO-NEVPT2, CIM, IAO-localization
   Andreas Hansen         : Spin unrestricted coupled pair/coupled cluster methods
   Benjamin Helmich-Paris : CASSCF linear response (MC-RPA)
   Lee Huntington         : MR-EOM, pCC
   Robert Izsak           : Overlap fitted RIJCOSX, COSX-SCS-MP3, EOM
   Christian Kollmar      : KDIIS, OOCD, Brueckner-CCSD(T), CCSD density
   Simone Kossmann        : Meta GGA functionals, TD-DFT gradient, OOMP2, MP2 Hessian
   Martin Krupicka        : AUTO-CI
   Lucas Lang             : DCDCAS
   Dagmar Lenk            : GEPOL surface, SMD
   Dimitrios Liakos       : Extrapolation schemes; parallel MDCI
   Dimitrios Manganas     : ROCIS; embedding schemes
   Dimitrios Pantazis     : SARC Basis sets
   Taras Petrenko         : DFT Hessian,TD-DFT gradient, ASA, ECA, R-Raman, ABS, FL, XAS/XES, NRVS
   Peter Pinski           : DLPNO-MP2, DLPNO-MP2 Gradient
   Christoph Reimann      : Effective Core Potentials
   Marius Retegan         : Local ZFS, SOC
   Christoph Riplinger    : Optimizer, TS searches, QM/MM, DLPNO-CCSD(T), (RO)-DLPNO pert. Triples
   Tobias Risthaus        : Range-separated hybrids, TD-DFT gradient, RPA, STAB
   Michael Roemelt        : Restricted open shell CIS
   Masaaki Saitow         : Open-shell DLPNO
   Barbara Sandhoefer     : DKH picture change effects
   Avijit Sen             : IP-ROCIS
   Kantharuban Sivalingam : CASSCF convergence, NEVPT2, FIC-MRCI
   Bernardo de Souza      : ESD, SOC TD-DFT
   Georgi Stoychev        : AutoAux, RI-MP2 NMR
   Willem Van den Heuvel  : Paramagnetic NMR
   Boris Wezisla          : Elementary symmetry handling
   Frank Wennmohs         : Technical directorship


 We gratefully acknowledge several colleagues who have allowed us to
 interface, adapt or use parts of their codes:
   Stefan Grimme, W. Hujo, H. Kruse,             : VdW corrections, initial TS optimization,
                  C. Bannwarth                     DFT functionals, gCP, sTDA/sTD-DF
   Ed Valeev                                     : LibInt (2-el integral package), F12 methods
   Garnet Chan, S. Sharma, J. Yang, R. Olivares  : DMRG
   Ulf Ekstrom                                   : XCFun DFT Library
   Mihaly Kallay                                 : mrcc  (arbitrary order and MRCC methods)
   Andreas Klamt, Michael Diedenhofen            : otool_cosmo (COSMO solvation model)
   Jiri Pittner, Ondrej Demel                    : Mk-CCSD
   Frank Weinhold                                : gennbo (NPA and NBO analysis)
   Christopher J. Cramer and Donald G. Truhlar   : smd solvation model
   Lars Goerigk                                  : TD-DFT with DH, B97 family of functionals
   V. Asgeirsson, H. Jonsson                     : NEB implementation
   FAccTs GmbH                                   : IRC, NEB, NEB-TS, Multilevel


 Your calculation uses the libint2 library for the computation of 2-el integrals
 For citations please refer to: http://libint.valeyev.net

 This ORCA versions uses:
   CBLAS   interface :  Fast vector & matrix operations
   LAPACKE interface :  Fast linear algebra routines
   SCALAPACK package :  Parallel linear algebra routines


----- Orbital basis set information -----
Your calculation utilizes the basis: aug-pc-4
   H, C-F              : F. Jensen, J. Chem. Phys. 115, 9113 (2001).
                         F. Jensen, J. Chem. Phys. 116, 7372 (2002).
                         F. Jensen, J. Chem. Phys. 117, 9234 (2002).
   Si-Cl               : F. Jensen, T. Helgaker, J. Chem. Phys. 121, 3463 (2004).
   He-B, Ne-Mg, Al, Ar : F. Jensen, J. Phys. Chem. A 111, 11198 (2007).
   K, Ca, Ga-Kr        : F. Jensen, J. Chem. Phys. 136, 094110 (2012).
   Sc-Zn               : F. Jensen, J. Chem. Phys. 138, 014107 (2013).

================================================================================
                                        WARNINGS
                       Please study these warnings very carefully!
================================================================================


INFO   : the flag for use of LIBINT has been found!

================================================================================
                                       INPUT FILE
================================================================================
NAME = c2h2_pbe.inp
|  1> !uks pbe nori aug-pc-4 grid7 nofinalgrid verytightscf
|  2> 
|  3> %maxcore 1500
|  4> 
|  5> %pal nprocs 1 end
|  6> 
|  7> %scf
|  8> 	maxiter 200
|  9> end
| 10> %elprop
| 11> 	dipole true
| 12> 	 polar 1
| 13> 	 maxiter 200
| 14> end
| 15> 
| 16> * xyz 0 1
| 17> C 0.0000 0.0000 0.6013
| 18> C 0.0000 0.0000 -0.6013
| 19> H 0.0000 0.0000 1.6644
| 20> H 0.0000 0.0000 -1.6644
| 21> *
| 22> 
| 23>                          ****END OF INPUT****
================================================================================

                       ****************************
                       * Single Point Calculation *
                       ****************************

---------------------------------
CARTESIAN COORDINATES (ANGSTROEM)
---------------------------------
  C      0.000000    0.000000    0.601300
  C      0.000000    0.000000   -0.601300
  H      0.000000    0.000000    1.664400
  H      0.000000    0.000000   -1.664400

----------------------------
CARTESIAN COORDINATES (A.U.)
----------------------------
  NO LB      ZA    FRAG     MASS         X           Y           Z
   0 C     6.0000    0    12.011    0.000000    0.000000    1.136292
   1 C     6.0000    0    12.011    0.000000    0.000000   -1.136292
   2 H     1.0000    0     1.008    0.000000    0.000000    3.145260
   3 H     1.0000    0     1.008    0.000000    0.000000   -3.145260

--------------------------------
INTERNAL COORDINATES (ANGSTROEM)
--------------------------------
 C      0   0   0     0.000000000000     0.00000000     0.00000000
 C      1   0   0     1.202600000000     0.00000000     0.00000000
 H      1   2   0     1.063100000000   180.00000000     0.00000000
 H      2   1   3     1.063100000000   180.00000000     0.00000000

---------------------------
INTERNAL COORDINATES (A.U.)
---------------------------
 C      0   0   0     0.000000000000     0.00000000     0.00000000
 C      1   0   0     2.272584648654     0.00000000     0.00000000
 H      1   2   0     2.008967852972   180.00000000     0.00000000
 H      2   1   3     2.008967852972   180.00000000     0.00000000

---------------------
BASIS SET INFORMATION
---------------------
There are 2 groups of distinct atoms

 Group   1 Type C   : 28s12p7d4f3g2h contracted to 9s8p7d4f3g2h pattern {11101111111/51111111/1111111/1111/111/11}
 Group   2 Type H   : 12s7p4d3f2g contracted to 8s7p4d3f2g pattern {51111111/1111111/1111/111/11}

Atom   0C    basis set group =>   1
Atom   1C    basis set group =>   1
Atom   2H    basis set group =>   2
Atom   3H    basis set group =>   2
------------------------------------------------------------------------------
                           ORCA GTO INTEGRAL CALCULATION
------------------------------------------------------------------------------

                         BASIS SET STATISTICS AND STARTUP INFO

 # of primitive gaussian shells          ...  168
 # of primitive gaussian functions       ...  536
 # of contracted shells                  ...  114
 # of contracted basis functions         ...  466
 Highest angular momentum                ...    5
 Maximum contraction depth               ...   11
 Integral package used                   ... LIBINT
 Integral threshhold            Thresh   ...  1.000e-12
 Primitive cut-off              TCut     ...  1.000e-14


------------------------------ INTEGRAL EVALUATION ----------------------------


 * One electron integrals 
 Pre-screening matrix                    ... done
 Shell pair data                         ... done (   0.002 sec)

-------------------------------------------------------------------------------
                                 ORCA SCF
-------------------------------------------------------------------------------

------------
SCF SETTINGS
------------
Hamiltonian:
 Density Functional     Method          .... DFT(GTOs)
 Exchange Functional    Exchange        .... PBE
   PBE kappa parameter   XKappa         ....  0.804000
   PBE mue parameter    XMuePBE         ....  0.219520
 Correlation Functional Correlation     .... PBE
   PBE beta parameter  CBetaPBE         ....  0.066725
 LDA part of GGA corr.  LDAOpt          .... PW91-LDA
 Gradients option       PostSCFGGA      .... off
   Density functional embedding theory  .... OFF
   NL short-range parameter             ....  6.400000


General Settings:
 Integral files         IntName         .... c2h2_pbe
 Hartree-Fock type      HFTyp           .... UHF
 Total Charge           Charge          ....    0
 Multiplicity           Mult            ....    1
 Number of Electrons    NEL             ....   14
 Basis Dimension        Dim             ....  466
 Nuclear Repulsion      ENuc            ....     24.7759016674 Eh

Convergence Acceleration:
 DIIS                   CNVDIIS         .... on
   Start iteration      DIISMaxIt       ....    12
   Startup error        DIISStart       ....  0.200000
   # of expansion vecs  DIISMaxEq       ....     5
   Bias factor          DIISBfac        ....   1.050
   Max. coefficient     DIISMaxC        ....  10.000
 Newton-Raphson         CNVNR           .... off
 SOSCF                  CNVSOSCF        .... off
 Level Shifting         CNVShift        .... on
   Level shift para.    LevelShift      ....    0.2500
   Turn off err/grad.   ShiftErr        ....    0.0010
 Zerner damping         CNVZerner       .... off
 Static damping         CNVDamp         .... on
   Fraction old density DampFac         ....    0.7000
   Max. Damping (<1)    DampMax         ....    0.9800
   Min. Damping (>=0)   DampMin         ....    0.0000
   Turn off err/grad.   DampErr         ....    0.1000
 Fernandez-Rico         CNVRico         .... off

SCF Procedure:
 Maximum # iterations   MaxIter         ....   200
 SCF integral mode      SCFMode         .... Direct
   Integral package                     .... LIBINT
 Reset frequency        DirectResetFreq ....    20
 Integral Threshold     Thresh          ....  1.000e-12 Eh
 Primitive CutOff       TCut            ....  1.000e-14 Eh

Convergence Tolerance:
 Convergence Check Mode ConvCheckMode   .... Total+1el-Energy
 Convergence forced     ConvForced      .... 0
 Energy Change          TolE            ....  1.000e-09 Eh
 1-El. energy change                    ....  1.000e-06 Eh
 DIIS Error             TolErr          ....  1.000e-08


Diagonalization of the overlap matrix:
Smallest eigenvalue                        ... 2.651e-08
Time for diagonalization                   ...    0.042 sec
Threshold for overlap eigenvalues          ... 1.000e-08
Number of eigenvalues below threshold      ... 0
Time for construction of square roots      ...    0.029 sec
Total time needed                          ...    0.073 sec

-------------------
DFT GRID GENERATION
-------------------

General Integration Accuracy     IntAcc      ...  5.670
Radial Grid Type                 RadialGrid  ... Gauss-Chebyshev
Angular Grid (max. acc.)         AngularGrid ... Lebedev-770
Angular grid pruning method      GridPruning ... 3 (G Style)
Weight generation scheme         WeightScheme... Becke
Basis function cutoff            BFCut       ...    1.0000e-12
Integration weight cutoff        WCut        ...    1.0000e-14
Grids for H and He will be reduced by one unit

# of grid points (after initial pruning)     ...  85740 (   0.0 sec)
# of grid points (after weights+screening)   ...  84014 (   0.0 sec)
nearest neighbour list constructed           ...    0.0 sec
Grid point re-assignment to atoms done       ...    0.0 sec
Grid point division into batches done        ...    1.5 sec
Reduced shell lists constructed in    2.6 sec

Total number of grid points                  ...    84014
Total number of batches                      ...     1316
Average number of points per batch           ...       63
Average number of grid points per atom       ...    21004
Average number of shells per batch           ...    83.49 (73.24%)
Average number of basis functions per batch  ...   349.47 (74.99%)
Average number of large shells per batch     ...    74.46 (89.19%)
Average number of large basis fcns per batch ...   312.88 (89.53%)
Maximum spatial batch extension              ...  20.36, 20.36, 18.10 au
Average spatial batch extension              ...   2.39,  2.40,  1.89 au

Time for grid setup =    2.672 sec

------------------------------
INITIAL GUESS: MODEL POTENTIAL
------------------------------
Loading Hartree-Fock densities                     ... done
Calculating cut-offs                               ... done
Setting up the integral package                    ... done
Initializing the effective Hamiltonian             ... done
Starting the Coulomb interaction                   ... done (   0.1 sec)
Reading the grid                                   ... done
Mapping shells                                     ... done
Starting the XC term evaluation                    ... done (   7.3 sec)
  promolecular density results
     # of electrons  =     13.999020430
     EX              =    -10.726952232
     EC              =     -0.421409607
     EX+EC           =    -11.148361839
Transforming the Hamiltonian                       ... done (   0.0 sec)
Diagonalizing the Hamiltonian                      ... done (   0.0 sec)
Back transforming the eigenvectors                 ... done (   0.0 sec)
Now organizing SCF variables                       ... done
                      ------------------
                      INITIAL GUESS DONE (  10.3 sec)
                      ------------------
--------------
SCF ITERATIONS
--------------
ITER       Energy         Delta-E        Max-DP      RMS-DP      [F,P]     Damp
               ***  Starting incremental Fock matrix formation  ***
  0    -77.1842232628   0.000000000000 0.01540912  0.00016809  0.1382741 0.7000
  1    -77.2199673742  -0.035744111414 0.01514411  0.00013437  0.0700527 0.7000
                               ***Turning on DIIS***
  2    -77.2339447138  -0.013977339644 0.02213239  0.00023314  0.0244496 0.0000
  3    -77.2512028684  -0.017258154568 0.01172568  0.00008658  0.0450944 0.0000
  4    -77.2583865092  -0.007183640767 0.00453138  0.00003091  0.0105624 0.0000
  5    -77.2588339472  -0.000447438062 0.00061592  0.00000614  0.0027599 0.0000
  6    -77.2588660714  -0.000032124199 0.00073437  0.00000550  0.0010031 0.0000
  7    -77.2588698728  -0.000003801371 0.00035747  0.00000403  0.0004209 0.0000
  8    -77.2588706955  -0.000000822722 0.00030395  0.00000292  0.0000071 0.0000
  9    -77.2588706957  -0.000000000130 0.00057801  0.00000467  0.0000021 0.0000
                 **** Energy Check signals convergence ****

               *****************************************************
               *                     SUCCESS                       *
               *           SCF CONVERGED AFTER  10 CYCLES          *
               *****************************************************


----------------
TOTAL SCF ENERGY
----------------

Total Energy       :          -77.25887070 Eh           -2102.32075 eV

Components:
Nuclear Repulsion  :           24.77590167 Eh             674.18656 eV
Electronic Energy  :         -102.03477236 Eh           -2776.50731 eV
One Electron Energy:         -151.97828872 Eh           -4135.53948 eV
Two Electron Energy:           49.94351636 Eh            1359.03217 eV

Virial components:
Potential Energy   :         -154.20872535 Eh           -4196.23275 eV
Kinetic Energy     :           76.94985466 Eh            2093.91200 eV
Virial Ratio       :            2.00401581


DFT components:
N(Alpha)           :        6.999999852857 electrons
N(Beta)            :        6.999999852857 electrons
N(Total)           :       13.999999705713 electrons
E(X)               :      -10.960821690991 Eh       
E(C)               :       -0.429426982347 Eh       
E(XC)              :      -11.390248673338 Eh       
DFET-embed. en.    :        0.000000000000 Eh       

---------------
SCF CONVERGENCE
---------------

  Last Energy change         ...   -1.7195e-12  Tolerance :   1.0000e-09
  Last MAX-Density change    ...    1.2411e-03  Tolerance :   1.0000e-08
  Last RMS-Density change    ...    1.1895e-05  Tolerance :   1.0000e-09
  Last DIIS Error            ...    3.6349e-07  Tolerance :   1.0000e-08

             **** THE GBW FILE WAS UPDATED (c2h2_pbe.gbw) ****
             **** DENSITY FILE WAS UPDATED (c2h2_pbe.scfp.tmp) ****
             **** ENERGY FILE WAS UPDATED (c2h2_pbe.en.tmp) ****
----------------------
UHF SPIN CONTAMINATION
----------------------

Warning: in a DFT calculation there is little theoretical justification to 
         calculate <S**2> as in Hartree-Fock theory. We will do it anyways
         but you should keep in mind that the values have only limited relevance

Expectation value of <S**2>     :     0.000000
Ideal value S*(S+1) for S=0.0   :     0.000000
Deviation                       :     0.000000

----------------
ORBITAL ENERGIES
----------------
                 SPIN UP ORBITALS
  NO   OCC          E(Eh)            E(eV) 
   0   1.0000      -9.895193      -269.2619 
   1   1.0000      -9.893013      -269.2026 
   2   1.0000      -0.683631       -18.6026 
   3   1.0000      -0.516591       -14.0571 
   4   1.0000      -0.448453       -12.2030 
   5   1.0000      -0.264555        -7.1989 
   6   1.0000      -0.264555        -7.1989 
   7   0.0000      -0.015322        -0.4169 
   8   0.0000      -0.015322        -0.4169 
   9   0.0000      -0.006588        -0.1793 
  10   0.0000       0.002235         0.0608 
  11   0.0000       0.018164         0.4943 
  12   0.0000       0.018164         0.4943 
  13   0.0000       0.030128         0.8198 
  14   0.0000       0.040115         1.0916 
  15   0.0000       0.040369         1.0985 
  16   0.0000       0.040369         1.0985 
  17   0.0000       0.043802         1.1919 
  18   0.0000       0.055052         1.4980 
  19   0.0000       0.068752         1.8708 
  20   0.0000       0.078344         2.1319 
  21   0.0000       0.078344         2.1319 
  22   0.0000       0.081553         2.2192 
  23   0.0000       0.081553         2.2192 
  24   0.0000       0.099014         2.6943 
  25   0.0000       0.110351         3.0028 
  26   0.0000       0.110351         3.0028 
  27   0.0000       0.119015         3.2386 
  28   0.0000       0.119015         3.2386 
  29   0.0000       0.126417         3.4400 
  30   0.0000       0.126417         3.4400 
  31   0.0000       0.133531         3.6336 
  32   0.0000       0.136031         3.7016 
  33   0.0000       0.150524         4.0960 
  34   0.0000       0.150524         4.0960 
  35   0.0000       0.152076         4.1382 
  36   0.0000       0.165663         4.5079 
  37   0.0000       0.171125         4.6566 
  38   0.0000       0.185237         5.0405 
  39   0.0000       0.185237         5.0405 
  40   0.0000       0.206665         5.6236 
  41   0.0000       0.210632         5.7316 
  42   0.0000       0.210632         5.7316 
  43   0.0000       0.220286         5.9943 
  44   0.0000       0.220286         5.9943 
  45   0.0000       0.230454         6.2710 
  46   0.0000       0.230454         6.2710 
  47   0.0000       0.237090         6.4515 
  48   0.0000       0.237090         6.4515 
  49   0.0000       0.239070         6.5054 
  50   0.0000       0.239070         6.5054 
  51   0.0000       0.262231         7.1357 
  52   0.0000       0.262231         7.1357 
  53   0.0000       0.265096         7.2136 
  54   0.0000       0.265096         7.2136 
  55   0.0000       0.269972         7.3463 
  56   0.0000       0.286453         7.7948 
  57   0.0000       0.286453         7.7948 
  58   0.0000       0.286511         7.7964 
  59   0.0000       0.291386         7.9290 
  60   0.0000       0.291386         7.9290 
  61   0.0000       0.303884         8.2691 
  62   0.0000       0.306362         8.3365 
  63   0.0000       0.306363         8.3365 
  64   0.0000       0.307410         8.3650 
  65   0.0000       0.324108         8.8194 
  66   0.0000       0.325389         8.8543 
  67   0.0000       0.325389         8.8543 
  68   0.0000       0.345080         9.3901 
  69   0.0000       0.345080         9.3901 
  70   0.0000       0.370798        10.0899 
  71   0.0000       0.370798        10.0899 
  72   0.0000       0.380678        10.3588 
  73   0.0000       0.380678        10.3588 
  74   0.0000       0.387122        10.5341 
  75   0.0000       0.396118        10.7789 
  76   0.0000       0.421069        11.4579 
  77   0.0000       0.421069        11.4579 
  78   0.0000       0.448016        12.1911 
  79   0.0000       0.450340        12.2544 
  80   0.0000       0.450340        12.2544 
  81   0.0000       0.454659        12.3719 
  82   0.0000       0.454659        12.3719 
  83   0.0000       0.459018        12.4905 
  84   0.0000       0.459018        12.4905 
  85   0.0000       0.477959        13.0059 
  86   0.0000       0.477959        13.0059 
  87   0.0000       0.482498        13.1294 
  88   0.0000       0.482498        13.1294 
  89   0.0000       0.494241        13.4490 
  90   0.0000       0.494241        13.4490 
  91   0.0000       0.499434        13.5903 
  92   0.0000       0.499434        13.5903 
  93   0.0000       0.510154        13.8820 
  94   0.0000       0.510154        13.8820 
  95   0.0000       0.519655        14.1405 
  96   0.0000       0.522171        14.2090 
  97   0.0000       0.524146        14.2627 
  98   0.0000       0.524146        14.2627 
  99   0.0000       0.532829        14.4990 
 100   0.0000       0.535605        14.5745 
 101   0.0000       0.535605        14.5745 
 102   0.0000       0.538798        14.6614 
 103   0.0000       0.540587        14.7101 
 104   0.0000       0.540587        14.7101 
 105   0.0000       0.554996        15.1022 
 106   0.0000       0.554996        15.1022 
 107   0.0000       0.567386        15.4394 
 108   0.0000       0.567386        15.4394 
 109   0.0000       0.588094        16.0028 
 110   0.0000       0.597952        16.2711 
 111   0.0000       0.597952        16.2711 
 112   0.0000       0.604508        16.4495 
 113   0.0000       0.604508        16.4495 
 114   0.0000       0.604806        16.4576 
 115   0.0000       0.604807        16.4576 
 116   0.0000       0.639545        17.4029 
 117   0.0000       0.639545        17.4029 
 118   0.0000       0.660810        17.9816 
 119   0.0000       0.668469        18.1900 
 120   0.0000       0.668469        18.1900 
 121   0.0000       0.687753        18.7147 
 122   0.0000       0.711778        19.3685 
 123   0.0000       0.711778        19.3685 
 124   0.0000       0.732576        19.9344 
 125   0.0000       0.732576        19.9344 
 126   0.0000       0.732740        19.9389 
 127   0.0000       0.737993        20.0818 
 128   0.0000       0.737993        20.0818 
 129   0.0000       0.764933        20.8149 
 130   0.0000       0.764933        20.8149 
 131   0.0000       0.799471        21.7547 
 132   0.0000       0.799471        21.7547 
 133   0.0000       0.800815        21.7913 
 134   0.0000       0.800859        21.7925 
 135   0.0000       0.800859        21.7925 
 136   0.0000       0.828119        22.5343 
 137   0.0000       0.828119        22.5343 
 138   0.0000       0.834229        22.7005 
 139   0.0000       0.834229        22.7005 
 140   0.0000       0.853591        23.2274 
 141   0.0000       0.853592        23.2274 
 142   0.0000       0.855897        23.2901 
 143   0.0000       0.855897        23.2901 
 144   0.0000       0.863430        23.4951 
 145   0.0000       0.863430        23.4951 
 146   0.0000       0.867425        23.6038 
 147   0.0000       0.878996        23.9187 
 148   0.0000       0.886089        24.1117 
 149   0.0000       0.886089        24.1117 
 150   0.0000       0.890046        24.2194 
 151   0.0000       0.890046        24.2194 
 152   0.0000       0.907694        24.6996 
 153   0.0000       0.907694        24.6996 
 154   0.0000       0.915248        24.9052 
 155   0.0000       0.915248        24.9052 
 156   0.0000       0.917757        24.9734 
 157   0.0000       0.917757        24.9734 
 158   0.0000       0.925294        25.1785 
 159   0.0000       0.975578        26.5468 
 160   0.0000       0.975578        26.5468 
 161   0.0000       0.977018        26.5860 
 162   0.0000       1.009389        27.4669 
 163   0.0000       1.011883        27.5347 
 164   0.0000       1.018714        27.7206 
 165   0.0000       1.018714        27.7206 
 166   0.0000       1.023468        27.8500 
 167   0.0000       1.023469        27.8500 
 168   0.0000       1.036338        28.2002 
 169   0.0000       1.091135        29.6913 
 170   0.0000       1.091135        29.6913 
 171   0.0000       1.105112        30.0716 
 172   0.0000       1.163793        31.6684 
 173   0.0000       1.163793        31.6684 
 174   0.0000       1.168185        31.7879 
 175   0.0000       1.175409        31.9845 
 176   0.0000       1.175409        31.9845 
 177   0.0000       1.352610        36.8064 
 178   0.0000       1.352610        36.8064 
 179   0.0000       1.361909        37.0594 
 180   0.0000       1.388741        37.7896 
 181   0.0000       1.388741        37.7896 
 182   0.0000       1.392258        37.8853 
 183   0.0000       1.491300        40.5803 
 184   0.0000       1.491300        40.5803 
 185   0.0000       1.494237        40.6603 
 186   0.0000       1.494238        40.6603 
 187   0.0000       1.507948        41.0333 
 188   0.0000       1.507948        41.0333 
 189   0.0000       1.582812        43.0705 
 190   0.0000       1.624768        44.2122 
 191   0.0000       1.624768        44.2122 
 192   0.0000       1.636242        44.5244 
 193   0.0000       1.662916        45.2502 
 194   0.0000       1.685755        45.8717 
 195   0.0000       1.715908        46.6922 
 196   0.0000       1.715908        46.6922 
 197   0.0000       1.779085        48.4114 
 198   0.0000       1.779085        48.4114 
 199   0.0000       1.821057        49.5535 
 200   0.0000       1.895449        51.5778 
 201   0.0000       1.895449        51.5778 
 202   0.0000       1.931015        52.5456 
 203   0.0000       1.942405        52.8555 
 204   0.0000       1.942405        52.8555 
 205   0.0000       1.994312        54.2680 
 206   0.0000       1.994312        54.2680 
 207   0.0000       2.089383        56.8550 
 208   0.0000       2.089383        56.8550 
 209   0.0000       2.097713        57.0817 
 210   0.0000       2.245292        61.0975 
 211   0.0000       2.245292        61.0975 
 212   0.0000       2.273469        61.8642 
 213   0.0000       2.273469        61.8642 
 214   0.0000       2.387118        64.9568 
 215   0.0000       2.432021        66.1786 
 216   0.0000       2.432021        66.1787 
 217   0.0000       2.489958        67.7552 
 218   0.0000       2.514404        68.4204 
 219   0.0000       2.514404        68.4204 
 220   0.0000       2.652902        72.1891 
 221   0.0000       2.653647        72.2094 
 222   0.0000       2.701557        73.5131 
 223   0.0000       2.770667        75.3937 
 224   0.0000       2.770667        75.3937 
 225   0.0000       2.803507        76.2873 
 226   0.0000       2.803507        76.2873 
 227   0.0000       2.978298        81.0436 
 228   0.0000       2.984469        81.2115 
 229   0.0000       2.984469        81.2115 
 230   0.0000       3.087347        84.0110 
 231   0.0000       3.087347        84.0110 
 232   0.0000       3.251662        88.4822 
 233   0.0000       3.258792        88.6762 
 234   0.0000       3.258792        88.6762 
 235   0.0000       3.331491        90.6545 
 236   0.0000       3.413420        92.8839 
 237   0.0000       3.413420        92.8839 
 238   0.0000       3.501699        95.2861 
 239   0.0000       3.594350        97.8072 
 240   0.0000       3.594350        97.8072 
 241   0.0000       3.622913        98.5845 
 242   0.0000       3.622913        98.5845 
 243   0.0000       3.683061       100.2212 
 244   0.0000       3.683061       100.2212 
 245   0.0000       3.886616       105.7602 
 246   0.0000       3.886616       105.7602 
 247   0.0000       3.898171       106.0746 
 248   0.0000       3.898171       106.0746 
 249   0.0000       3.919403       106.6524 
 250   0.0000       3.919403       106.6524 
 251   0.0000       4.007772       109.0570 
 252   0.0000       4.007772       109.0570 
 253   0.0000       4.010855       109.1409 
 254   0.0000       4.093752       111.3967 
 255   0.0000       4.093752       111.3967 
 256   0.0000       4.186375       113.9171 
 257   0.0000       4.202002       114.3423 
 258   0.0000       4.202002       114.3423 
 259   0.0000       4.227092       115.0250 
 260   0.0000       4.227092       115.0250 
 261   0.0000       4.278644       116.4278 
 262   0.0000       4.278644       116.4278 
 263   0.0000       4.288852       116.7056 
 264   0.0000       4.288852       116.7056 
 265   0.0000       4.342568       118.1673 
 266   0.0000       4.342568       118.1673 
 267   0.0000       4.388185       119.4086 
 268   0.0000       4.456046       121.2552 
 269   0.0000       4.456046       121.2552 
 270   0.0000       4.517454       122.9262 
 271   0.0000       4.569895       124.3532 
 272   0.0000       4.670365       127.0871 
 273   0.0000       4.670365       127.0871 
 274   0.0000       4.734720       128.8383 
 275   0.0000       4.734720       128.8383 
 276   0.0000       4.779611       130.0598 
 277   0.0000       4.837313       131.6300 
 278   0.0000       4.844596       131.8282 
 279   0.0000       4.844596       131.8282 
 280   0.0000       4.936534       134.3299 
 281   0.0000       4.936534       134.3299 
 282   0.0000       5.039482       137.1313 
 283   0.0000       5.039482       137.1313 
 284   0.0000       5.075686       138.1164 
 285   0.0000       5.075686       138.1164 
 286   0.0000       5.291624       143.9924 
 287   0.0000       5.291624       143.9924 
 288   0.0000       5.461159       148.6057 
 289   0.0000       5.552536       151.0922 
 290   0.0000       5.659732       154.0091 
 291   0.0000       5.659732       154.0091 
 292   0.0000       5.708920       155.3476 
 293   0.0000       6.058220       164.8525 
 294   0.0000       6.058220       164.8525 
 295   0.0000       6.074449       165.2942 
 296   0.0000       6.136086       166.9714 
 297   0.0000       6.136086       166.9714 
 298   0.0000       6.415689       174.5798 
 299   0.0000       6.415689       174.5798 
 300   0.0000       6.506031       177.0381 
 301   0.0000       6.608682       179.8314 
 302   0.0000       6.608682       179.8314 
 303   0.0000       6.868227       186.8940 
 304   0.0000       7.117112       193.6665 
 305   0.0000       7.117112       193.6665 
 306   0.0000       7.214508       196.3168 
 307   0.0000       7.346857       199.9181 
 308   0.0000       7.346857       199.9181 
 309   0.0000       7.641947       207.9479 
 310   0.0000       7.815956       212.6830 
 311   0.0000       7.815956       212.6830 
 312   0.0000       8.040358       218.7893 
 313   0.0000       8.196802       223.0463 
 314   0.0000       8.268450       224.9960 
 315   0.0000       8.268450       224.9960 
 316   0.0000       8.456496       230.1130 
 317   0.0000       8.684481       236.3168 
 318   0.0000       8.684481       236.3168 
 319   0.0000       8.857389       241.0218 
 320   0.0000       8.857389       241.0218 
 321   0.0000       8.923983       242.8339 
 322   0.0000       8.923983       242.8339 
 323   0.0000       9.042312       246.0538 
 324   0.0000       9.042312       246.0538 
 325   0.0000       9.464177       257.5334 
 326   0.0000       9.774625       265.9811 
 327   0.0000       9.962237       271.0863 
 328   0.0000       9.962237       271.0863 
 329   0.0000      10.077468       274.2219 
 330   0.0000      10.077468       274.2219 
 331   0.0000      10.208447       277.7860 
 332   0.0000      10.221096       278.1302 
 333   0.0000      10.221096       278.1302 
 334   0.0000      10.251150       278.9480 
 335   0.0000      10.251150       278.9480 
 336   0.0000      10.257592       279.1233 
 337   0.0000      10.257592       279.1233 
 338   0.0000      10.338793       281.3328 
 339   0.0000      10.338793       281.3328 
 340   0.0000      10.349659       281.6285 
 341   0.0000      10.349659       281.6285 
 342   0.0000      10.538365       286.7635 
 343   0.0000      10.538365       286.7635 
 344   0.0000      10.723227       291.7939 
 345   0.0000      10.723227       291.7939 
 346   0.0000      10.813201       294.2422 
 347   0.0000      10.832321       294.7624 
 348   0.0000      10.832321       294.7624 
 349   0.0000      10.867392       295.7168 
 350   0.0000      10.867392       295.7168 
 351   0.0000      11.219728       305.3043 
 352   0.0000      11.291302       307.2519 
 353   0.0000      11.291302       307.2519 
 354   0.0000      11.417957       310.6984 
 355   0.0000      11.417957       310.6984 
 356   0.0000      11.556332       314.4638 
 357   0.0000      11.556333       314.4638 
 358   0.0000      11.561230       314.5971 
 359   0.0000      11.561230       314.5971 
 360   0.0000      11.621625       316.2405 
 361   0.0000      11.621627       316.2405 
 362   0.0000      11.662478       317.3522 
 363   0.0000      11.662478       317.3522 
 364   0.0000      11.693697       318.2017 
 365   0.0000      11.693697       318.2017 
 366   0.0000      11.711319       318.6812 
 367   0.0000      11.764861       320.1381 
 368   0.0000      11.804081       321.2054 
 369   0.0000      11.804081       321.2054 
 370   0.0000      11.838744       322.1486 
 371   0.0000      11.838744       322.1486 
 372   0.0000      11.863475       322.8216 
 373   0.0000      11.863475       322.8216 
 374   0.0000      11.976241       325.8901 
 375   0.0000      11.976241       325.8901 
 376   0.0000      12.004684       326.6641 
 377   0.0000      12.274010       333.9928 
 378   0.0000      12.274010       333.9928 
 379   0.0000      12.304703       334.8280 
 380   0.0000      12.304703       334.8280 
 381   0.0000      12.346883       335.9758 
 382   0.0000      12.346883       335.9758 
 383   0.0000      12.417381       337.8941 
 384   0.0000      12.417381       337.8941 
 385   0.0000      12.505214       340.2842 
 386   0.0000      12.505214       340.2842 
 387   0.0000      12.626658       343.5888 
 388   0.0000      12.796105       348.1997 
 389   0.0000      12.796105       348.1997 
 390   0.0000      12.920483       351.5842 
 391   0.0000      13.385548       364.2393 
 392   0.0000      13.534851       368.3020 
 393   0.0000      13.534851       368.3020 
 394   0.0000      13.600030       370.0756 
 395   0.0000      13.600030       370.0756 
 396   0.0000      13.687525       372.4565 
 397   0.0000      13.687525       372.4565 
 398   0.0000      13.709142       373.0447 
 399   0.0000      13.817971       376.0061 
 400   0.0000      13.817971       376.0061 
 401   0.0000      14.940976       406.5646 
 402   0.0000      15.251004       415.0009 
 403   0.0000      15.369894       418.2361 
 404   0.0000      15.369894       418.2361 
 405   0.0000      15.462979       420.7690 
 406   0.0000      15.462979       420.7690 
 407   0.0000      16.706738       454.6134 
 408   0.0000      16.706738       454.6134 
 409   0.0000      16.709856       454.6983 
 410   0.0000      16.709856       454.6983 
 411   0.0000      16.711749       454.7498 
 412   0.0000      16.750104       455.7935 
 413   0.0000      16.750104       455.7935 
 414   0.0000      16.868578       459.0173 
 415   0.0000      17.093803       465.1460 
 416   0.0000      17.093803       465.1460 
 417   0.0000      17.187379       467.6923 
 418   0.0000      17.187379       467.6923 
 419   0.0000      17.249453       469.3815 
 420   0.0000      17.249453       469.3815 
 421   0.0000      17.897805       487.0240 
 422   0.0000      18.077011       491.9005 
 423   0.0000      18.303296       498.0580 
 424   0.0000      18.303296       498.0580 
 425   0.0000      18.681520       508.3500 
 426   0.0000      18.681520       508.3500 
 427   0.0000      19.135250       520.6966 
 428   0.0000      19.306973       525.3695 
 429   0.0000      19.306974       525.3695 
 430   0.0000      19.602919       533.4225 
 431   0.0000      19.602919       533.4225 
 432   0.0000      20.584726       560.1389 
 433   0.0000      21.005816       571.5973 
 434   0.0000      21.005816       571.5973 
 435   0.0000      21.011960       571.7645 
 436   0.0000      21.814774       593.6102 
 437   0.0000      21.814774       593.6102 
 438   0.0000      22.597513       614.9096 
 439   0.0000      23.821919       648.2274 
 440   0.0000      23.821919       648.2274 
 441   0.0000      24.017440       653.5478 
 442   0.0000      24.017440       653.5478 
 443   0.0000      24.816258       675.2847 
 444   0.0000      26.010261       707.7752 
 445   0.0000      26.225434       713.6303 
 446   0.0000      31.917888       868.5299 
 447   0.0000      31.917891       868.5300 
 448   0.0000      32.012499       871.1044 
 449   0.0000      32.012502       871.1045 
 450   0.0000      32.292668       878.7282 
 451   0.0000      32.292668       878.7282 
 452   0.0000      33.535150       912.5378 
 453   0.0000      33.535150       912.5378 
 454   0.0000      34.211687       930.9473 
 455   0.0000      35.973962       978.9013 
 456   0.0000      41.347064      1125.1108 
 457   0.0000      42.018929      1143.3932 
 458   0.0000      76.924004      2093.2086 
 459   0.0000      77.377617      2105.5520 
 460   0.0000      91.211725      2481.9972 
 461   0.0000      91.211725      2481.9972 
 462   0.0000      91.339410      2485.4717 
 463   0.0000      91.339410      2485.4717 
 464   0.0000      92.544661      2518.2683 
 465   0.0000      92.609941      2520.0446 

                 SPIN DOWN ORBITALS
  NO   OCC          E(Eh)            E(eV) 
   0   1.0000      -9.895193      -269.2619 
   1   1.0000      -9.893013      -269.2026 
   2   1.0000      -0.683631       -18.6026 
   3   1.0000      -0.516591       -14.0571 
   4   1.0000      -0.448453       -12.2030 
   5   1.0000      -0.264555        -7.1989 
   6   1.0000      -0.264555        -7.1989 
   7   0.0000      -0.015322        -0.4169 
   8   0.0000      -0.015322        -0.4169 
   9   0.0000      -0.006588        -0.1793 
  10   0.0000       0.002235         0.0608 
  11   0.0000       0.018164         0.4943 
  12   0.0000       0.018164         0.4943 
  13   0.0000       0.030128         0.8198 
  14   0.0000       0.040115         1.0916 
  15   0.0000       0.040369         1.0985 
  16   0.0000       0.040369         1.0985 
  17   0.0000       0.043802         1.1919 
  18   0.0000       0.055052         1.4980 
  19   0.0000       0.068752         1.8708 
  20   0.0000       0.078344         2.1319 
  21   0.0000       0.078344         2.1319 
  22   0.0000       0.081553         2.2192 
  23   0.0000       0.081553         2.2192 
  24   0.0000       0.099014         2.6943 
  25   0.0000       0.110351         3.0028 
  26   0.0000       0.110351         3.0028 
  27   0.0000       0.119015         3.2386 
  28   0.0000       0.119015         3.2386 
  29   0.0000       0.126417         3.4400 
  30   0.0000       0.126417         3.4400 
  31   0.0000       0.133531         3.6336 
  32   0.0000       0.136031         3.7016 
  33   0.0000       0.150524         4.0960 
  34   0.0000       0.150524         4.0960 
  35   0.0000       0.152076         4.1382 
  36   0.0000       0.165663         4.5079 
  37   0.0000       0.171125         4.6566 
  38   0.0000       0.185237         5.0405 
  39   0.0000       0.185237         5.0405 
  40   0.0000       0.206665         5.6236 
  41   0.0000       0.210632         5.7316 
  42   0.0000       0.210632         5.7316 
  43   0.0000       0.220286         5.9943 
  44   0.0000       0.220286         5.9943 
  45   0.0000       0.230454         6.2710 
  46   0.0000       0.230454         6.2710 
  47   0.0000       0.237090         6.4515 
  48   0.0000       0.237090         6.4515 
  49   0.0000       0.239070         6.5054 
  50   0.0000       0.239070         6.5054 
  51   0.0000       0.262231         7.1357 
  52   0.0000       0.262231         7.1357 
  53   0.0000       0.265096         7.2136 
  54   0.0000       0.265096         7.2136 
  55   0.0000       0.269972         7.3463 
  56   0.0000       0.286453         7.7948 
  57   0.0000       0.286453         7.7948 
  58   0.0000       0.286511         7.7964 
  59   0.0000       0.291386         7.9290 
  60   0.0000       0.291386         7.9290 
  61   0.0000       0.303884         8.2691 
  62   0.0000       0.306362         8.3365 
  63   0.0000       0.306363         8.3365 
  64   0.0000       0.307410         8.3650 
  65   0.0000       0.324108         8.8194 
  66   0.0000       0.325389         8.8543 
  67   0.0000       0.325389         8.8543 
  68   0.0000       0.345080         9.3901 
  69   0.0000       0.345080         9.3901 
  70   0.0000       0.370798        10.0899 
  71   0.0000       0.370798        10.0899 
  72   0.0000       0.380678        10.3588 
  73   0.0000       0.380678        10.3588 
  74   0.0000       0.387122        10.5341 
  75   0.0000       0.396118        10.7789 
  76   0.0000       0.421069        11.4579 
  77   0.0000       0.421069        11.4579 
  78   0.0000       0.448016        12.1911 
  79   0.0000       0.450340        12.2544 
  80   0.0000       0.450340        12.2544 
  81   0.0000       0.454659        12.3719 
  82   0.0000       0.454659        12.3719 
  83   0.0000       0.459018        12.4905 
  84   0.0000       0.459018        12.4905 
  85   0.0000       0.477959        13.0059 
  86   0.0000       0.477959        13.0059 
  87   0.0000       0.482498        13.1294 
  88   0.0000       0.482498        13.1294 
  89   0.0000       0.494241        13.4490 
  90   0.0000       0.494241        13.4490 
  91   0.0000       0.499434        13.5903 
  92   0.0000       0.499434        13.5903 
  93   0.0000       0.510154        13.8820 
  94   0.0000       0.510154        13.8820 
  95   0.0000       0.519655        14.1405 
  96   0.0000       0.522171        14.2090 
  97   0.0000       0.524146        14.2627 
  98   0.0000       0.524146        14.2627 
  99   0.0000       0.532829        14.4990 
 100   0.0000       0.535605        14.5745 
 101   0.0000       0.535605        14.5745 
 102   0.0000       0.538798        14.6614 
 103   0.0000       0.540587        14.7101 
 104   0.0000       0.540587        14.7101 
 105   0.0000       0.554996        15.1022 
 106   0.0000       0.554996        15.1022 
 107   0.0000       0.567386        15.4394 
 108   0.0000       0.567386        15.4394 
 109   0.0000       0.588094        16.0028 
 110   0.0000       0.597952        16.2711 
 111   0.0000       0.597952        16.2711 
 112   0.0000       0.604508        16.4495 
 113   0.0000       0.604508        16.4495 
 114   0.0000       0.604806        16.4576 
 115   0.0000       0.604807        16.4576 
 116   0.0000       0.639545        17.4029 
 117   0.0000       0.639545        17.4029 
 118   0.0000       0.660810        17.9816 
 119   0.0000       0.668469        18.1900 
 120   0.0000       0.668469        18.1900 
 121   0.0000       0.687753        18.7147 
 122   0.0000       0.711778        19.3685 
 123   0.0000       0.711778        19.3685 
 124   0.0000       0.732576        19.9344 
 125   0.0000       0.732576        19.9344 
 126   0.0000       0.732740        19.9389 
 127   0.0000       0.737993        20.0818 
 128   0.0000       0.737993        20.0818 
 129   0.0000       0.764933        20.8149 
 130   0.0000       0.764933        20.8149 
 131   0.0000       0.799471        21.7547 
 132   0.0000       0.799471        21.7547 
 133   0.0000       0.800815        21.7913 
 134   0.0000       0.800859        21.7925 
 135   0.0000       0.800859        21.7925 
 136   0.0000       0.828119        22.5343 
 137   0.0000       0.828119        22.5343 
 138   0.0000       0.834229        22.7005 
 139   0.0000       0.834229        22.7005 
 140   0.0000       0.853591        23.2274 
 141   0.0000       0.853592        23.2274 
 142   0.0000       0.855897        23.2901 
 143   0.0000       0.855897        23.2901 
 144   0.0000       0.863430        23.4951 
 145   0.0000       0.863430        23.4951 
 146   0.0000       0.867425        23.6038 
 147   0.0000       0.878996        23.9187 
 148   0.0000       0.886089        24.1117 
 149   0.0000       0.886089        24.1117 
 150   0.0000       0.890046        24.2194 
 151   0.0000       0.890046        24.2194 
 152   0.0000       0.907694        24.6996 
 153   0.0000       0.907694        24.6996 
 154   0.0000       0.915248        24.9052 
 155   0.0000       0.915248        24.9052 
 156   0.0000       0.917757        24.9734 
 157   0.0000       0.917757        24.9734 
 158   0.0000       0.925294        25.1785 
 159   0.0000       0.975578        26.5468 
 160   0.0000       0.975578        26.5468 
 161   0.0000       0.977018        26.5860 
 162   0.0000       1.009389        27.4669 
 163   0.0000       1.011883        27.5347 
 164   0.0000       1.018714        27.7206 
 165   0.0000       1.018714        27.7206 
 166   0.0000       1.023468        27.8500 
 167   0.0000       1.023469        27.8500 
 168   0.0000       1.036338        28.2002 
 169   0.0000       1.091135        29.6913 
 170   0.0000       1.091135        29.6913 
 171   0.0000       1.105112        30.0716 
 172   0.0000       1.163793        31.6684 
 173   0.0000       1.163793        31.6684 
 174   0.0000       1.168185        31.7879 
 175   0.0000       1.175409        31.9845 
 176   0.0000       1.175409        31.9845 
 177   0.0000       1.352610        36.8064 
 178   0.0000       1.352610        36.8064 
 179   0.0000       1.361909        37.0594 
 180   0.0000       1.388741        37.7896 
 181   0.0000       1.388741        37.7896 
 182   0.0000       1.392258        37.8853 
 183   0.0000       1.491300        40.5803 
 184   0.0000       1.491300        40.5803 
 185   0.0000       1.494237        40.6603 
 186   0.0000       1.494238        40.6603 
 187   0.0000       1.507948        41.0333 
 188   0.0000       1.507948        41.0333 
 189   0.0000       1.582812        43.0705 
 190   0.0000       1.624768        44.2122 
 191   0.0000       1.624768        44.2122 
 192   0.0000       1.636242        44.5244 
 193   0.0000       1.662916        45.2502 
 194   0.0000       1.685755        45.8717 
 195   0.0000       1.715908        46.6922 
 196   0.0000       1.715908        46.6922 
 197   0.0000       1.779085        48.4114 
 198   0.0000       1.779085        48.4114 
 199   0.0000       1.821057        49.5535 
 200   0.0000       1.895449        51.5778 
 201   0.0000       1.895449        51.5778 
 202   0.0000       1.931015        52.5456 
 203   0.0000       1.942405        52.8555 
 204   0.0000       1.942405        52.8555 
 205   0.0000       1.994312        54.2680 
 206   0.0000       1.994312        54.2680 
 207   0.0000       2.089383        56.8550 
 208   0.0000       2.089383        56.8550 
 209   0.0000       2.097713        57.0817 
 210   0.0000       2.245292        61.0975 
 211   0.0000       2.245292        61.0975 
 212   0.0000       2.273469        61.8642 
 213   0.0000       2.273469        61.8642 
 214   0.0000       2.387118        64.9568 
 215   0.0000       2.432021        66.1786 
 216   0.0000       2.432021        66.1787 
 217   0.0000       2.489958        67.7552 
 218   0.0000       2.514404        68.4204 
 219   0.0000       2.514404        68.4204 
 220   0.0000       2.652902        72.1891 
 221   0.0000       2.653647        72.2094 
 222   0.0000       2.701557        73.5131 
 223   0.0000       2.770667        75.3937 
 224   0.0000       2.770667        75.3937 
 225   0.0000       2.803507        76.2873 
 226   0.0000       2.803507        76.2873 
 227   0.0000       2.978298        81.0436 
 228   0.0000       2.984469        81.2115 
 229   0.0000       2.984469        81.2115 
 230   0.0000       3.087347        84.0110 
 231   0.0000       3.087347        84.0110 
 232   0.0000       3.251662        88.4822 
 233   0.0000       3.258792        88.6762 
 234   0.0000       3.258792        88.6762 
 235   0.0000       3.331491        90.6545 
 236   0.0000       3.413420        92.8839 
 237   0.0000       3.413420        92.8839 
 238   0.0000       3.501699        95.2861 
 239   0.0000       3.594350        97.8072 
 240   0.0000       3.594350        97.8072 
 241   0.0000       3.622913        98.5845 
 242   0.0000       3.622913        98.5845 
 243   0.0000       3.683061       100.2212 
 244   0.0000       3.683061       100.2212 
 245   0.0000       3.886616       105.7602 
 246   0.0000       3.886616       105.7602 
 247   0.0000       3.898171       106.0746 
 248   0.0000       3.898171       106.0746 
 249   0.0000       3.919403       106.6524 
 250   0.0000       3.919403       106.6524 
 251   0.0000       4.007772       109.0570 
 252   0.0000       4.007772       109.0570 
 253   0.0000       4.010855       109.1409 
 254   0.0000       4.093752       111.3967 
 255   0.0000       4.093752       111.3967 
 256   0.0000       4.186375       113.9171 
 257   0.0000       4.202002       114.3423 
 258   0.0000       4.202002       114.3423 
 259   0.0000       4.227092       115.0250 
 260   0.0000       4.227092       115.0250 
 261   0.0000       4.278644       116.4278 
 262   0.0000       4.278644       116.4278 
 263   0.0000       4.288852       116.7056 
 264   0.0000       4.288852       116.7056 
 265   0.0000       4.342568       118.1673 
 266   0.0000       4.342568       118.1673 
 267   0.0000       4.388185       119.4086 
 268   0.0000       4.456046       121.2552 
 269   0.0000       4.456046       121.2552 
 270   0.0000       4.517454       122.9262 
 271   0.0000       4.569895       124.3532 
 272   0.0000       4.670365       127.0871 
 273   0.0000       4.670365       127.0871 
 274   0.0000       4.734720       128.8383 
 275   0.0000       4.734720       128.8383 
 276   0.0000       4.779611       130.0598 
 277   0.0000       4.837313       131.6300 
 278   0.0000       4.844596       131.8282 
 279   0.0000       4.844596       131.8282 
 280   0.0000       4.936534       134.3299 
 281   0.0000       4.936534       134.3299 
 282   0.0000       5.039482       137.1313 
 283   0.0000       5.039482       137.1313 
 284   0.0000       5.075686       138.1164 
 285   0.0000       5.075686       138.1164 
 286   0.0000       5.291624       143.9924 
 287   0.0000       5.291624       143.9924 
 288   0.0000       5.461159       148.6057 
 289   0.0000       5.552536       151.0922 
 290   0.0000       5.659732       154.0091 
 291   0.0000       5.659732       154.0091 
 292   0.0000       5.708920       155.3476 
 293   0.0000       6.058220       164.8525 
 294   0.0000       6.058220       164.8525 
 295   0.0000       6.074449       165.2942 
 296   0.0000       6.136086       166.9714 
 297   0.0000       6.136086       166.9714 
 298   0.0000       6.415689       174.5798 
 299   0.0000       6.415689       174.5798 
 300   0.0000       6.506031       177.0381 
 301   0.0000       6.608682       179.8314 
 302   0.0000       6.608682       179.8314 
 303   0.0000       6.868227       186.8940 
 304   0.0000       7.117112       193.6665 
 305   0.0000       7.117112       193.6665 
 306   0.0000       7.214508       196.3168 
 307   0.0000       7.346857       199.9181 
 308   0.0000       7.346857       199.9181 
 309   0.0000       7.641947       207.9479 
 310   0.0000       7.815956       212.6830 
 311   0.0000       7.815956       212.6830 
 312   0.0000       8.040358       218.7893 
 313   0.0000       8.196802       223.0463 
 314   0.0000       8.268450       224.9960 
 315   0.0000       8.268450       224.9960 
 316   0.0000       8.456496       230.1130 
 317   0.0000       8.684481       236.3168 
 318   0.0000       8.684481       236.3168 
 319   0.0000       8.857389       241.0218 
 320   0.0000       8.857389       241.0218 
 321   0.0000       8.923983       242.8339 
 322   0.0000       8.923983       242.8339 
 323   0.0000       9.042312       246.0538 
 324   0.0000       9.042312       246.0538 
 325   0.0000       9.464177       257.5334 
 326   0.0000       9.774625       265.9811 
 327   0.0000       9.962237       271.0863 
 328   0.0000       9.962237       271.0863 
 329   0.0000      10.077468       274.2219 
 330   0.0000      10.077468       274.2219 
 331   0.0000      10.208447       277.7860 
 332   0.0000      10.221096       278.1302 
 333   0.0000      10.221096       278.1302 
 334   0.0000      10.251150       278.9480 
 335   0.0000      10.251150       278.9480 
 336   0.0000      10.257592       279.1233 
 337   0.0000      10.257592       279.1233 
 338   0.0000      10.338793       281.3328 
 339   0.0000      10.338793       281.3328 
 340   0.0000      10.349659       281.6285 
 341   0.0000      10.349659       281.6285 
 342   0.0000      10.538365       286.7635 
 343   0.0000      10.538365       286.7635 
 344   0.0000      10.723227       291.7939 
 345   0.0000      10.723227       291.7939 
 346   0.0000      10.813201       294.2422 
 347   0.0000      10.832321       294.7624 
 348   0.0000      10.832321       294.7624 
 349   0.0000      10.867392       295.7168 
 350   0.0000      10.867392       295.7168 
 351   0.0000      11.219728       305.3043 
 352   0.0000      11.291302       307.2519 
 353   0.0000      11.291302       307.2519 
 354   0.0000      11.417957       310.6984 
 355   0.0000      11.417957       310.6984 
 356   0.0000      11.556332       314.4638 
 357   0.0000      11.556333       314.4638 
 358   0.0000      11.561230       314.5971 
 359   0.0000      11.561230       314.5971 
 360   0.0000      11.621625       316.2405 
 361   0.0000      11.621627       316.2405 
 362   0.0000      11.662478       317.3522 
 363   0.0000      11.662478       317.3522 
 364   0.0000      11.693697       318.2017 
 365   0.0000      11.693697       318.2017 
 366   0.0000      11.711319       318.6812 
 367   0.0000      11.764861       320.1381 
 368   0.0000      11.804081       321.2054 
 369   0.0000      11.804081       321.2054 
 370   0.0000      11.838744       322.1486 
 371   0.0000      11.838744       322.1486 
 372   0.0000      11.863475       322.8216 
 373   0.0000      11.863475       322.8216 
 374   0.0000      11.976241       325.8901 
 375   0.0000      11.976241       325.8901 
 376   0.0000      12.004684       326.6641 
 377   0.0000      12.274010       333.9928 
 378   0.0000      12.274010       333.9928 
 379   0.0000      12.304703       334.8280 
 380   0.0000      12.304703       334.8280 
 381   0.0000      12.346883       335.9758 
 382   0.0000      12.346883       335.9758 
 383   0.0000      12.417381       337.8941 
 384   0.0000      12.417381       337.8941 
 385   0.0000      12.505214       340.2842 
 386   0.0000      12.505214       340.2842 
 387   0.0000      12.626658       343.5888 
 388   0.0000      12.796105       348.1997 
 389   0.0000      12.796105       348.1997 
 390   0.0000      12.920483       351.5842 
 391   0.0000      13.385548       364.2393 
 392   0.0000      13.534851       368.3020 
 393   0.0000      13.534851       368.3020 
 394   0.0000      13.600030       370.0756 
 395   0.0000      13.600030       370.0756 
 396   0.0000      13.687525       372.4565 
 397   0.0000      13.687525       372.4565 
 398   0.0000      13.709142       373.0447 
 399   0.0000      13.817971       376.0061 
 400   0.0000      13.817971       376.0061 
 401   0.0000      14.940976       406.5646 
 402   0.0000      15.251004       415.0009 
 403   0.0000      15.369894       418.2361 
 404   0.0000      15.369894       418.2361 
 405   0.0000      15.462979       420.7690 
 406   0.0000      15.462979       420.7690 
 407   0.0000      16.706738       454.6134 
 408   0.0000      16.706738       454.6134 
 409   0.0000      16.709856       454.6983 
 410   0.0000      16.709856       454.6983 
 411   0.0000      16.711749       454.7498 
 412   0.0000      16.750104       455.7935 
 413   0.0000      16.750104       455.7935 
 414   0.0000      16.868578       459.0173 
 415   0.0000      17.093803       465.1460 
 416   0.0000      17.093803       465.1460 
 417   0.0000      17.187379       467.6923 
 418   0.0000      17.187379       467.6923 
 419   0.0000      17.249453       469.3815 
 420   0.0000      17.249453       469.3815 
 421   0.0000      17.897805       487.0240 
 422   0.0000      18.077011       491.9005 
 423   0.0000      18.303296       498.0580 
 424   0.0000      18.303296       498.0580 
 425   0.0000      18.681520       508.3500 
 426   0.0000      18.681520       508.3500 
 427   0.0000      19.135250       520.6966 
 428   0.0000      19.306973       525.3695 
 429   0.0000      19.306974       525.3695 
 430   0.0000      19.602919       533.4225 
 431   0.0000      19.602919       533.4225 
 432   0.0000      20.584726       560.1389 
 433   0.0000      21.005816       571.5973 
 434   0.0000      21.005816       571.5973 
 435   0.0000      21.011960       571.7645 
 436   0.0000      21.814774       593.6102 
 437   0.0000      21.814774       593.6102 
 438   0.0000      22.597513       614.9096 
 439   0.0000      23.821919       648.2274 
 440   0.0000      23.821919       648.2274 
 441   0.0000      24.017440       653.5478 
 442   0.0000      24.017440       653.5478 
 443   0.0000      24.816258       675.2847 
 444   0.0000      26.010261       707.7752 
 445   0.0000      26.225434       713.6303 
 446   0.0000      31.917888       868.5299 
 447   0.0000      31.917891       868.5300 
 448   0.0000      32.012499       871.1044 
 449   0.0000      32.012502       871.1045 
 450   0.0000      32.292668       878.7282 
 451   0.0000      32.292668       878.7282 
 452   0.0000      33.535150       912.5378 
 453   0.0000      33.535150       912.5378 
 454   0.0000      34.211687       930.9473 
 455   0.0000      35.973962       978.9013 
 456   0.0000      41.347064      1125.1108 
 457   0.0000      42.018929      1143.3932 
 458   0.0000      76.924004      2093.2086 
 459   0.0000      77.377617      2105.5520 
 460   0.0000      91.211725      2481.9972 
 461   0.0000      91.211725      2481.9972 
 462   0.0000      91.339410      2485.4717 
 463   0.0000      91.339410      2485.4717 
 464   0.0000      92.544661      2518.2683 
 465   0.0000      92.609941      2520.0446 

                    ********************************
                    * MULLIKEN POPULATION ANALYSIS *
                    ********************************

--------------------------------------------
MULLIKEN ATOMIC CHARGES AND SPIN POPULATIONS
--------------------------------------------
   0 C :    0.055013   -0.000000
   1 C :    0.054876    0.000000
   2 H :   -0.054887   -0.000000
   3 H :   -0.055002   -0.000000
Sum of atomic charges         :    0.0000000
Sum of atomic spin populations:    0.0000000

-----------------------------------------------------
MULLIKEN REDUCED ORBITAL CHARGES AND SPIN POPULATIONS
-----------------------------------------------------
CHARGE
  0 C s       :     3.125750  s :     3.125750
      pz      :     0.892857  p :     2.776215
      px      :     0.941679
      py      :     0.941679
      dz2     :     0.006252  d :     0.038431
      dxz     :     0.016089
      dyz     :     0.016089
      dx2y2   :     0.000000
      dxy     :     0.000000
      f0      :    -0.002938  f :     0.003101
      f+1     :     0.003019
      f-1     :     0.003019
      f+2     :     0.000000
      f-2     :     0.000000
      f+3     :     0.000000
      f-3     :     0.000000
      g0      :     0.002074  g :     0.001647
      g+1     :    -0.000214
      g-1     :    -0.000213
      g+2     :    -0.000000
      g-2     :     0.000000
      g+3     :     0.000000
      g-3     :     0.000000
      g+4     :     0.000000
      g-4     :     0.000000
      h0      :     0.000356  h :    -0.000156
      h+1     :    -0.000256
      h-1     :    -0.000256
      h+2     :    -0.000000
      h-2     :    -0.000000
      h+3     :     0.000000
      h-3     :     0.000000
      h+4     :     0.000000
      h-4     :    -0.000000
      h+5     :     0.000000
      h-5     :     0.000000
  1 C s       :     3.125792  s :     3.125792
      pz      :     0.892927  p :     2.776282
      px      :     0.941677
      py      :     0.941678
      dz2     :     0.006290  d :     0.038468
      dxz     :     0.016089
      dyz     :     0.016089
      dx2y2   :     0.000000
      dxy     :     0.000000
      f0      :    -0.002949  f :     0.003090
      f+1     :     0.003020
      f-1     :     0.003020
      f+2     :     0.000000
      f-2     :    -0.000000
      f+3     :     0.000000
      f-3     :     0.000000
      g0      :     0.002075  g :     0.001648
      g+1     :    -0.000213
      g-1     :    -0.000213
      g+2     :    -0.000000
      g-2     :    -0.000000
      g+3     :     0.000000
      g-3     :     0.000000
      g+4     :     0.000000
      g-4     :    -0.000000
      h0      :     0.000357  h :    -0.000156
      h+1     :    -0.000256
      h-1     :    -0.000256
      h+2     :    -0.000000
      h-2     :     0.000000
      h+3     :     0.000000
      h-3     :     0.000000
      h+4     :     0.000000
      h-4     :    -0.000000
      h+5     :     0.000000
      h-5     :     0.000000
  2 H s       :     0.974479  s :     0.974479
      pz      :     0.012828  p :     0.084760
      px      :     0.035966
      py      :     0.035966
      dz2     :    -0.009191  d :     0.001015
      dxz     :     0.005103
      dyz     :     0.005103
      dx2y2   :    -0.000000
      dxy     :    -0.000000
      f0      :    -0.002429  f :    -0.003573
      f+1     :    -0.000572
      f-1     :    -0.000572
      f+2     :     0.000000
      f-2     :     0.000000
      f+3     :     0.000000
      f-3     :     0.000000
      g0      :    -0.000165  g :    -0.001794
      g+1     :    -0.000814
      g-1     :    -0.000814
      g+2     :    -0.000000
      g-2     :    -0.000000
      g+3     :     0.000000
      g-3     :     0.000000
      g+4     :     0.000000
      g-4     :     0.000000
  3 H s       :     0.974590  s :     0.974590
      pz      :     0.012828  p :     0.084760
      px      :     0.035966
      py      :     0.035966
      dz2     :    -0.009190  d :     0.001017
      dxz     :     0.005103
      dyz     :     0.005103
      dx2y2   :    -0.000000
      dxy     :    -0.000000
      f0      :    -0.002427  f :    -0.003571
      f+1     :    -0.000572
      f-1     :    -0.000572
      f+2     :     0.000000
      f-2     :    -0.000000
      f+3     :     0.000000
      f-3     :     0.000000
      g0      :    -0.000165  g :    -0.001794
      g+1     :    -0.000814
      g-1     :    -0.000814
      g+2     :    -0.000000
      g-2     :    -0.000000
      g+3     :     0.000000
      g-3     :     0.000000
      g+4     :     0.000000
      g-4     :     0.000000

SPIN
  0 C s       :    -0.000000  s :    -0.000000
      pz      :    -0.000000  p :    -0.000000
      px      :    -0.000000
      py      :    -0.000000
      dz2     :     0.000000  d :    -0.000000
      dxz     :    -0.000000
      dyz     :    -0.000000
      dx2y2   :     0.000000
      dxy     :     0.000000
      f0      :     0.000000  f :     0.000000
      f+1     :     0.000000
      f-1     :     0.000000
      f+2     :     0.000000
      f-2     :     0.000000
      f+3     :    -0.000000
      f-3     :    -0.000000
      g0      :    -0.000000  g :     0.000000
      g+1     :     0.000000
      g-1     :     0.000000
      g+2     :    -0.000000
      g-2     :    -0.000000
      g+3     :     0.000000
      g-3     :    -0.000000
      g+4     :    -0.000000
      g-4     :     0.000000
      h0      :    -0.000000  h :    -0.000000
      h+1     :     0.000000
      h-1     :     0.000000
      h+2     :    -0.000000
      h-2     :    -0.000000
      h+3     :     0.000000
      h-3     :    -0.000000
      h+4     :    -0.000000
      h-4     :    -0.000000
      h+5     :    -0.000000
      h-5     :     0.000000
  1 C s       :     0.000000  s :     0.000000
      pz      :     0.000000  p :     0.000000
      px      :     0.000000
      py      :     0.000000
      dz2     :    -0.000000  d :     0.000000
      dxz     :     0.000000
      dyz     :     0.000000
      dx2y2   :    -0.000000
      dxy     :    -0.000000
      f0      :     0.000000  f :     0.000000
      f+1     :    -0.000000
      f-1     :    -0.000000
      f+2     :     0.000000
      f-2     :     0.000000
      f+3     :    -0.000000
      f-3     :    -0.000000
      g0      :    -0.000000  g :    -0.000000
      g+1     :    -0.000000
      g-1     :    -0.000000
      g+2     :     0.000000
      g-2     :     0.000000
      g+3     :    -0.000000
      g-3     :     0.000000
      g+4     :     0.000000
      g-4     :     0.000000
      h0      :    -0.000000  h :    -0.000000
      h+1     :    -0.000000
      h-1     :    -0.000000
      h+2     :    -0.000000
      h-2     :    -0.000000
      h+3     :    -0.000000
      h-3     :     0.000000
      h+4     :    -0.000000
      h-4     :    -0.000000
      h+5     :    -0.000000
      h-5     :    -0.000000
  2 H s       :    -0.000000  s :    -0.000000
      pz      :     0.000000  p :     0.000000
      px      :    -0.000000
      py      :    -0.000000
      dz2     :     0.000000  d :     0.000000
      dxz     :     0.000000
      dyz     :     0.000000
      dx2y2   :    -0.000000
      dxy     :    -0.000000
      f0      :     0.000000  f :     0.000000
      f+1     :     0.000000
      f-1     :     0.000000
      f+2     :     0.000000
      f-2     :    -0.000000
      f+3     :    -0.000000
      f-3     :     0.000000
      g0      :     0.000000  g :     0.000000
      g+1     :     0.000000
      g-1     :     0.000000
      g+2     :    -0.000000
      g-2     :    -0.000000
      g+3     :     0.000000
      g-3     :    -0.000000
      g+4     :     0.000000
      g-4     :     0.000000
  3 H s       :    -0.000000  s :    -0.000000
      pz      :    -0.000000  p :    -0.000000
      px      :     0.000000
      py      :    -0.000000
      dz2     :     0.000000  d :     0.000000
      dxz     :    -0.000000
      dyz     :    -0.000000
      dx2y2   :    -0.000000
      dxy     :    -0.000000
      f0      :     0.000000  f :    -0.000000
      f+1     :    -0.000000
      f-1     :    -0.000000
      f+2     :     0.000000
      f-2     :     0.000000
      f+3     :     0.000000
      f-3     :    -0.000000
      g0      :    -0.000000  g :    -0.000000
      g+1     :    -0.000000
      g-1     :    -0.000000
      g+2     :    -0.000000
      g-2     :    -0.000000
      g+3     :     0.000000
      g-3     :    -0.000000
      g+4     :     0.000000
      g-4     :     0.000000


                     *******************************
                     * LOEWDIN POPULATION ANALYSIS *
                     *******************************

-------------------------------------------
LOEWDIN ATOMIC CHARGES AND SPIN POPULATIONS
-------------------------------------------
   0 C :    0.517354   -0.000000
   1 C :    0.517354    0.000000
   2 H :   -0.517354    0.000000
   3 H :   -0.517354   -0.000000

----------------------------------------------------
LOEWDIN REDUCED ORBITAL CHARGES AND SPIN POPULATIONS
----------------------------------------------------
CHARGE
  0 C s       :     2.625135  s :     2.625135
      pz      :     1.083950  p :     2.448781
      px      :     0.682415
      py      :     0.682415
      dz2     :     0.137489  d :     0.264113
      dxz     :     0.063312
      dyz     :     0.063312
      dx2y2   :     0.000000
      dxy     :     0.000000
      f0      :     0.046246  f :     0.095274
      f+1     :     0.024514
      f-1     :     0.024514
      f+2     :     0.000000
      f-2     :     0.000000
      f+3     :     0.000000
      f-3     :     0.000000
      g0      :     0.022895  g :     0.037989
      g+1     :     0.007547
      g-1     :     0.007547
      g+2     :     0.000000
      g-2     :     0.000000
      g+3     :     0.000000
      g-3     :     0.000000
      g+4     :     0.000000
      g-4     :     0.000000
      h0      :     0.007994  h :     0.011354
      h+1     :     0.001680
      h-1     :     0.001680
      h+2     :     0.000000
      h-2     :     0.000000
      h+3     :     0.000000
      h-3     :     0.000000
      h+4     :     0.000000
      h-4     :     0.000000
      h+5     :     0.000000
      h-5     :     0.000000
  1 C s       :     2.625135  s :     2.625135
      pz      :     1.083950  p :     2.448781
      px      :     0.682415
      py      :     0.682415
      dz2     :     0.137489  d :     0.264113
      dxz     :     0.063312
      dyz     :     0.063312
      dx2y2   :     0.000000
      dxy     :     0.000000
      f0      :     0.046246  f :     0.095274
      f+1     :     0.024514
      f-1     :     0.024514
      f+2     :     0.000000
      f-2     :     0.000000
      f+3     :     0.000000
      f-3     :     0.000000
      g0      :     0.022895  g :     0.037989
      g+1     :     0.007547
      g-1     :     0.007547
      g+2     :     0.000000
      g-2     :     0.000000
      g+3     :     0.000000
      g-3     :     0.000000
      g+4     :     0.000000
      g-4     :     0.000000
      h0      :     0.007994  h :     0.011354
      h+1     :     0.001680
      h-1     :     0.001680
      h+2     :     0.000000
      h-2     :     0.000000
      h+3     :     0.000000
      h-3     :     0.000000
      h+4     :     0.000000
      h-4     :     0.000000
      h+5     :     0.000000
      h-5     :     0.000000
  2 H s       :     0.740406  s :     0.740406
      pz      :     0.170881  p :     0.333082
      px      :     0.081100
      py      :     0.081100
      dz2     :     0.090027  d :     0.251639
      dxz     :     0.080806
      dyz     :     0.080806
      dx2y2   :     0.000000
      dxy     :     0.000000
      f0      :     0.047426  f :     0.123081
      f+1     :     0.037827
      f-1     :     0.037827
      f+2     :     0.000000
      f-2     :     0.000000
      f+3     :     0.000000
      f-3     :     0.000000
      g0      :     0.027551  g :     0.069146
      g+1     :     0.020798
      g-1     :     0.020798
      g+2     :     0.000000
      g-2     :     0.000000
      g+3     :     0.000000
      g-3     :     0.000000
      g+4     :     0.000000
      g-4     :     0.000000
  3 H s       :     0.740406  s :     0.740406
      pz      :     0.170881  p :     0.333082
      px      :     0.081100
      py      :     0.081100
      dz2     :     0.090027  d :     0.251639
      dxz     :     0.080806
      dyz     :     0.080806
      dx2y2   :     0.000000
      dxy     :     0.000000
      f0      :     0.047426  f :     0.123081
      f+1     :     0.037827
      f-1     :     0.037827
      f+2     :     0.000000
      f-2     :     0.000000
      f+3     :     0.000000
      f-3     :     0.000000
      g0      :     0.027551  g :     0.069146
      g+1     :     0.020798
      g-1     :     0.020798
      g+2     :     0.000000
      g-2     :     0.000000
      g+3     :     0.000000
      g-3     :     0.000000
      g+4     :     0.000000
      g-4     :     0.000000

SPIN
  0 C s       :    -0.000000  s :    -0.000000
      pz      :    -0.000000  p :    -0.000000
      px      :    -0.000000
      py      :    -0.000000
      dz2     :     0.000000  d :     0.000000
      dxz     :    -0.000000
      dyz     :     0.000000
      dx2y2   :    -0.000000
      dxy     :    -0.000000
      f0      :     0.000000  f :     0.000000
      f+1     :     0.000000
      f-1     :     0.000000
      f+2     :    -0.000000
      f-2     :     0.000000
      f+3     :    -0.000000
      f-3     :    -0.000000
      g0      :    -0.000000  g :    -0.000000
      g+1     :     0.000000
      g-1     :     0.000000
      g+2     :    -0.000000
      g-2     :    -0.000000
      g+3     :     0.000000
      g-3     :    -0.000000
      g+4     :    -0.000000
      g-4     :     0.000000
      h0      :     0.000000  h :     0.000000
      h+1     :    -0.000000
      h-1     :     0.000000
      h+2     :    -0.000000
      h-2     :     0.000000
      h+3     :     0.000000
      h-3     :    -0.000000
      h+4     :     0.000000
      h-4     :     0.000000
      h+5     :    -0.000000
      h-5     :     0.000000
  1 C s       :     0.000000  s :     0.000000
      pz      :     0.000000  p :     0.000000
      px      :     0.000000
      py      :     0.000000
      dz2     :    -0.000000  d :    -0.000000
      dxz     :    -0.000000
      dyz     :    -0.000000
      dx2y2   :     0.000000
      dxy     :    -0.000000
      f0      :     0.000000  f :     0.000000
      f+1     :    -0.000000
      f-1     :    -0.000000
      f+2     :     0.000000
      f-2     :     0.000000
      f+3     :    -0.000000
      f-3     :    -0.000000
      g0      :    -0.000000  g :    -0.000000
      g+1     :    -0.000000
      g-1     :    -0.000000
      g+2     :    -0.000000
      g-2     :     0.000000
      g+3     :     0.000000
      g-3     :     0.000000
      g+4     :    -0.000000
      g-4     :    -0.000000
      h0      :     0.000000  h :     0.000000
      h+1     :     0.000000
      h-1     :     0.000000
      h+2     :     0.000000
      h-2     :    -0.000000
      h+3     :    -0.000000
      h-3     :     0.000000
      h+4     :     0.000000
      h-4     :    -0.000000
      h+5     :    -0.000000
      h-5     :    -0.000000
  2 H s       :    -0.000000  s :    -0.000000
      pz      :     0.000000  p :     0.000000
      px      :     0.000000
      py      :     0.000000
      dz2     :     0.000000  d :     0.000000
      dxz     :    -0.000000
      dyz     :    -0.000000
      dx2y2   :    -0.000000
      dxy     :    -0.000000
      f0      :     0.000000  f :     0.000000
      f+1     :    -0.000000
      f-1     :    -0.000000
      f+2     :     0.000000
      f-2     :    -0.000000
      f+3     :    -0.000000
      f-3     :     0.000000
      g0      :     0.000000  g :     0.000000
      g+1     :     0.000000
      g-1     :    -0.000000
      g+2     :     0.000000
      g-2     :     0.000000
      g+3     :    -0.000000
      g-3     :     0.000000
      g+4     :     0.000000
      g-4     :     0.000000
  3 H s       :    -0.000000  s :    -0.000000
      pz      :    -0.000000  p :    -0.000000
      px      :    -0.000000
      py      :    -0.000000
      dz2     :    -0.000000  d :    -0.000000
      dxz     :    -0.000000
      dyz     :     0.000000
      dx2y2   :    -0.000000
      dxy     :    -0.000000
      f0      :    -0.000000  f :    -0.000000
      f+1     :    -0.000000
      f-1     :    -0.000000
      f+2     :     0.000000
      f-2     :    -0.000000
      f+3     :     0.000000
      f-3     :    -0.000000
      g0      :     0.000000  g :     0.000000
      g+1     :    -0.000000
      g-1     :     0.000000
      g+2     :    -0.000000
      g-2     :    -0.000000
      g+3     :     0.000000
      g-3     :    -0.000000
      g+4     :     0.000000
      g-4     :     0.000000


                      *****************************
                      * MAYER POPULATION ANALYSIS *
                      *****************************

  NA   - Mulliken gross atomic population
  ZA   - Total nuclear charge
  QA   - Mulliken gross atomic charge
  VA   - Mayer's total valence
  BVA  - Mayer's bonded valence
  FA   - Mayer's free valence

  ATOM       NA         ZA         QA         VA         BVA        FA
  0 C      5.9450     6.0000     0.0550     3.9954     3.9954     0.0000
  1 C      5.9451     6.0000     0.0549     3.9955     3.9955     0.0000
  2 H      1.0549     1.0000    -0.0549     1.0826     1.0826     0.0000
  3 H      1.0550     1.0000    -0.0550     1.0827     1.0827     0.0000

  Mayer bond orders larger than 0.1
B(  0-C ,  1-C ) :   2.8893 B(  0-C ,  2-H ) :   1.1000 B(  1-C ,  3-H ) :   1.1001 


-------
TIMINGS
-------

Total SCF time: 0 days 1 hours 31 min 40 sec 

Total time                  ....    5500.758 sec
Sum of individual times     ....    5499.863 sec  (100.0%)

Fock matrix formation       ....    5486.645 sec  ( 99.7%)
  XC integration            ....     181.324 sec  (  3.3% of F)
    Basis function eval.    ....      10.386 sec  (  5.7% of XC)
    Density eval.           ....      42.125 sec  ( 23.2% of XC)
    XC-Functional eval.     ....       1.116 sec  (  0.6% of XC)
    XC-Potential eval.      ....     126.886 sec  ( 70.0% of XC)
Diagonalization             ....       1.851 sec  (  0.0%)
Density matrix formation    ....       0.031 sec  (  0.0%)
Population analysis         ....       0.195 sec  (  0.0%)
Initial guess               ....       7.669 sec  (  0.1%)
Orbital Transformation      ....       0.000 sec  (  0.0%)
Orbital Orthonormalization  ....       0.000 sec  (  0.0%)
DIIS solution               ....       0.801 sec  (  0.0%)
Grid generation             ....       2.672 sec  (  0.0%)

-------------------------   --------------------
FINAL SINGLE POINT ENERGY       -77.258870695665
-------------------------   --------------------


                            ***************************************
                            *     ORCA property calculations      *
                            ***************************************

                                    ---------------------
                                    Active property flags
                                    ---------------------
   (+) Dipole Moment
   (+) Polarizability


------------------------------------------------------------------------------
                       ORCA ELECTRIC PROPERTIES CALCULATION
------------------------------------------------------------------------------

Dipole Moment Calculation                       ... on
Quadrupole Moment Calculation                   ... off
Polarizability Calculation                      ... Analytic (CP-SCF)
GBWName                                         ... c2h2_pbe.gbw
Electron density file                           ... c2h2_pbe.scfp.tmp
The origin for moment calculation is the CENTER OF MASS  = ( 0.000000,  0.000000  0.000000)

-------------
DIPOLE MOMENT
-------------
                                X             Y             Z
Electronic contribution:      0.00000      -0.00000       0.00000
Nuclear contribution   :      0.00000       0.00000       0.00000
                        -----------------------------------------
Total Dipole Moment    :      0.00000      -0.00000       0.00000
                        -----------------------------------------
Magnitude (a.u.)       :      0.00000
Magnitude (Debye)      :      0.00000



--------------------
Rotational spectrum 
--------------------
 
Rotational constants in cm-1:     0.000000     1.181317     1.181317 
Rotational constants in MHz :     0.000000 35414.991350 35414.991350 

 Dipole components along the rotational axes: 
x,y,z [a.u.] :     0.000000    -0.000000     0.000000 
x,y,z [Debye]:     0.000000    -0.000000     0.000000 

 
Transforming and storing MO dipole integrals   ... done

                ... starting polarizability calculation

Opening the Dipole integral file               ... (c2h2_pbe.dmo.tmp) done
Reading Dipole-MO integrals                    ... done
Solving CP-SCF equations                       ... 
------------------------------------------------------------------------------
                           ORCA CP-SCF CALCULATION
------------------------------------------------------------------------------

Input orbitals are from        ... c2h2_pbe.gbw
Input Perturbation             ... c2h2_pbe.cpv.tmp
Wavefunction output            ... c2h2_pbe.cpu.tmp
Perturbation mode              ... Real perturbation (singlet)
Solver                         ... POPLE
Max. number of iterations      ... 200
Convergence tolerance          ... 1.000e-06
Integral handling              ... Direct
Number of perturbations        ... 3
Number of operators            ... 2
Orbital ranges used for CP-SCF:
 Operator 0:  Orbitals   0...  6  to   7...465
 Operator 1:  Orbitals   0...  6  to   7...465
DFT calculation                         ... on
Exchange functional (SCF)               ... PBE
Exchange functional (CP-SCF)            ... PBE
   PBE kappa parameter  XKappa (SCF)    ...  0.804000
   PBE kappa parameter  XKappa (CP-SCF) ...  0.804000
   PBE mue parameter   XMuePBE (SCF)    ...  0.219520
   PBE mue parameter   XMuePBE (CP-SCF) ...  0.219520
Correlation functional (SCF)            ... PBE
Correlation functional (CP-SCF)         ... PBE
   PBE beta parameter CBetaPBE (SCF)    ...  0.066725
   PBE beta parameter CBetaPBE (CP-SCF) ...  0.066725
 LDA part of GGA corr.  LDAOpt (SCF)    ... PW91-LDA
 LDA part of GGA corr.  LDAOpt (CP-SCF) ... PW91-LDA
Variables per vector in CP-SCF ... 6426
Number of vectors sought       ... 3
Recalculating density on grid  ... done
Calculating the xc-kernel      ... done
     CP-SCF ITERATION   0: 
     CP-SCF ITERATION   1:      0.230856648838
     CP-SCF ITERATION   2:      0.001537392213
     CP-SCF ITERATION   3:      0.000002830840
     CP-SCF ITERATION   4:      0.000000022680
done
Reading CP-SCF coefficients                    ... done
Doing the polarizability tensor   ... done
Cleaning up                                    ... done

-------------------------
THE POLARIZABILITY TENSOR
-------------------------

The raw cartesian tensor (atomic units):
   20.03318     -0.00000      0.00000  
   -0.00000     20.03318     -0.00000  
    0.00000     -0.00000     31.95002  
diagonalized tensor: 
   20.03318     20.03318     31.95002  

    0.81444      0.58025      0.00000  
    0.58025     -0.81444     -0.00000  
   -0.00000     -0.00000      1.00000  

Isotropic polarizability :  24.00546


Timings for individual modules:

Sum of individual times         ...     9317.953 sec (= 155.299 min)
GTO integral calculation        ...        1.298 sec (=   0.022 min)   0.0 %
SCF iterations                  ...     5500.778 sec (=  91.680 min)  59.0 %
Solution of CP-SCF eqns.        ...     3815.877 sec (=  63.598 min)  41.0 %
                             ****ORCA TERMINATED NORMALLY****
TOTAL RUN TIME: 0 days 2 hours 35 minutes 18 seconds 486 msec
