
                                 *****************
                                 * O   R   C   A *
                                 *****************

           --- An Ab Initio, DFT and Semiempirical electronic structure package ---

                  #######################################################
                  #                        -***-                        #
                  #          Department of theory and spectroscopy      #
                  #               Directorship: Frank Neese             #
                  #        Max Planck Institute fuer Kohlenforschung    #
                  #                Kaiser Wilhelm Platz 1               #
                  #                 D-45470 Muelheim/Ruhr               #
                  #                      Germany                        #
                  #                                                     #
                  #                  All rights reserved                #
                  #                        -***-                        #
                  #######################################################


                         Program Version 4.1.2  - RELEASE  -


 With contributions from (in alphabetic order):
   Daniel Aravena         : Magnetic Properties
   Michael Atanasov       : Ab Initio Ligand Field Theory
   Alexander A. Auer      : GIAO ZORA
   Ute Becker             : Parallelization
   Giovanni Bistoni       : ED, Open-shell LED
   Martin Brehm           : Molecular dynamics
   Dmytro Bykov           : SCF Hessian
   Vijay G. Chilkuri      : MRCI spin determinant printing
   Dipayan Datta          : RHF DLPNO-CCSD density
   Achintya Kumar Dutta   : EOM-CC, STEOM-CC
   Dmitry Ganyushin       : Spin-Orbit,Spin-Spin,Magnetic field MRCI
   Miquel Garcia          : C-PCM Hessian
   Yang Guo               : DLPNO-NEVPT2, CIM, IAO-localization
   Andreas Hansen         : Spin unrestricted coupled pair/coupled cluster methods
   Benjamin Helmich-Paris : CASSCF linear response (MC-RPA)
   Lee Huntington         : MR-EOM, pCC
   Robert Izsak           : Overlap fitted RIJCOSX, COSX-SCS-MP3, EOM
   Christian Kollmar      : KDIIS, OOCD, Brueckner-CCSD(T), CCSD density
   Simone Kossmann        : Meta GGA functionals, TD-DFT gradient, OOMP2, MP2 Hessian
   Martin Krupicka        : AUTO-CI
   Lucas Lang             : DCDCAS
   Dagmar Lenk            : GEPOL surface, SMD
   Dimitrios Liakos       : Extrapolation schemes; parallel MDCI
   Dimitrios Manganas     : ROCIS; embedding schemes
   Dimitrios Pantazis     : SARC Basis sets
   Taras Petrenko         : DFT Hessian,TD-DFT gradient, ASA, ECA, R-Raman, ABS, FL, XAS/XES, NRVS
   Peter Pinski           : DLPNO-MP2, DLPNO-MP2 Gradient
   Christoph Reimann      : Effective Core Potentials
   Marius Retegan         : Local ZFS, SOC
   Christoph Riplinger    : Optimizer, TS searches, QM/MM, DLPNO-CCSD(T), (RO)-DLPNO pert. Triples
   Tobias Risthaus        : Range-separated hybrids, TD-DFT gradient, RPA, STAB
   Michael Roemelt        : Restricted open shell CIS
   Masaaki Saitow         : Open-shell DLPNO
   Barbara Sandhoefer     : DKH picture change effects
   Avijit Sen             : IP-ROCIS
   Kantharuban Sivalingam : CASSCF convergence, NEVPT2, FIC-MRCI
   Bernardo de Souza      : ESD, SOC TD-DFT
   Georgi Stoychev        : AutoAux, RI-MP2 NMR
   Willem Van den Heuvel  : Paramagnetic NMR
   Boris Wezisla          : Elementary symmetry handling
   Frank Wennmohs         : Technical directorship


 We gratefully acknowledge several colleagues who have allowed us to
 interface, adapt or use parts of their codes:
   Stefan Grimme, W. Hujo, H. Kruse,             : VdW corrections, initial TS optimization,
                  C. Bannwarth                     DFT functionals, gCP, sTDA/sTD-DF
   Ed Valeev                                     : LibInt (2-el integral package), F12 methods
   Garnet Chan, S. Sharma, J. Yang, R. Olivares  : DMRG
   Ulf Ekstrom                                   : XCFun DFT Library
   Mihaly Kallay                                 : mrcc  (arbitrary order and MRCC methods)
   Andreas Klamt, Michael Diedenhofen            : otool_cosmo (COSMO solvation model)
   Jiri Pittner, Ondrej Demel                    : Mk-CCSD
   Frank Weinhold                                : gennbo (NPA and NBO analysis)
   Christopher J. Cramer and Donald G. Truhlar   : smd solvation model
   Lars Goerigk                                  : TD-DFT with DH, B97 family of functionals
   V. Asgeirsson, H. Jonsson                     : NEB implementation
   FAccTs GmbH                                   : IRC, NEB, NEB-TS, Multilevel


 Your calculation uses the libint2 library for the computation of 2-el integrals
 For citations please refer to: http://libint.valeyev.net

 This ORCA versions uses:
   CBLAS   interface :  Fast vector & matrix operations
   LAPACKE interface :  Fast linear algebra routines
   SCALAPACK package :  Parallel linear algebra routines


----- Orbital basis set information -----
Your calculation utilizes the basis: aug-pc-4
   H, C-F              : F. Jensen, J. Chem. Phys. 115, 9113 (2001).
                         F. Jensen, J. Chem. Phys. 116, 7372 (2002).
                         F. Jensen, J. Chem. Phys. 117, 9234 (2002).
   Si-Cl               : F. Jensen, T. Helgaker, J. Chem. Phys. 121, 3463 (2004).
   He-B, Ne-Mg, Al, Ar : F. Jensen, J. Phys. Chem. A 111, 11198 (2007).
   K, Ca, Ga-Kr        : F. Jensen, J. Chem. Phys. 136, 094110 (2012).
   Sc-Zn               : F. Jensen, J. Chem. Phys. 138, 014107 (2013).

================================================================================
                                        WARNINGS
                       Please study these warnings very carefully!
================================================================================


INFO   : the flag for use of LIBINT has been found!

================================================================================
                                       INPUT FILE
================================================================================
NAME = c2h3_pbe.inp
|  1> !uks pbe nori aug-pc-4 grid7 nofinalgrid verytightscf
|  2> 
|  3> %maxcore 1500
|  4> 
|  5> %pal nprocs 4 end
|  6> 
|  7> %scf
|  8> 	maxiter 200
|  9> end
| 10> %elprop
| 11> 	dipole true
| 12> 	 polar 1
| 13> 	 maxiter 200
| 14> end
| 15> 
| 16> * xyz 0 2
| 17> C 0.0488 0.7245 0.0000
| 18> C 0.0488 -0.5915 0.0000
| 19> H -0.6836 1.5182 0.0000
| 20> H -0.8763 -1.1584 0.0000
| 21> H 0.9739 -1.1584 0.0000
| 22> *
| 23> 
| 24>                          ****END OF INPUT****
================================================================================

                       ****************************
                       * Single Point Calculation *
                       ****************************

---------------------------------
CARTESIAN COORDINATES (ANGSTROEM)
---------------------------------
  C      0.048800    0.724500    0.000000
  C      0.048800   -0.591500    0.000000
  H     -0.683600    1.518200    0.000000
  H     -0.876300   -1.158400    0.000000
  H      0.973900   -1.158400    0.000000

----------------------------
CARTESIAN COORDINATES (A.U.)
----------------------------
  NO LB      ZA    FRAG     MASS         X           Y           Z
   0 C     6.0000    0    12.011    0.092219    1.369107    0.000000
   1 C     6.0000    0    12.011    0.092219   -1.117773    0.000000
   2 H     1.0000    0     1.008   -1.291817    2.868982    0.000000
   3 H     1.0000    0     1.008   -1.655967   -2.189059    0.000000
   4 H     1.0000    0     1.008    1.840404   -2.189059    0.000000

--------------------------------
INTERNAL COORDINATES (ANGSTROEM)
--------------------------------
 C      0   0   0     0.000000000000     0.00000000     0.00000000
 C      1   0   0     1.316000000000     0.00000000     0.00000000
 H      1   2   0     1.079985856389   137.30020587     0.00000000
 H      2   1   3     1.084981852383   121.49990954     0.00000000
 H      2   1   3     1.084981852383   121.49990954   180.00000000

---------------------------
INTERNAL COORDINATES (A.U.)
---------------------------
 C      0   0   0     0.000000000000     0.00000000     0.00000000
 C      1   0   0     2.486879592240     0.00000000     0.00000000
 H      1   2   0     2.040877497083   137.30020587     0.00000000
 H      2   1   3     2.050318561278   121.49990954     0.00000000
 H      2   1   3     2.050318561278   121.49990954   180.00000000

---------------------
BASIS SET INFORMATION
---------------------
There are 2 groups of distinct atoms

 Group   1 Type C   : 28s12p7d4f3g2h contracted to 9s8p7d4f3g2h pattern {11101111111/51111111/1111111/1111/111/11}
 Group   2 Type H   : 12s7p4d3f2g contracted to 8s7p4d3f2g pattern {51111111/1111111/1111/111/11}

Atom   0C    basis set group =>   1
Atom   1C    basis set group =>   1
Atom   2H    basis set group =>   2
Atom   3H    basis set group =>   2
Atom   4H    basis set group =>   2


           ************************************************************
           *        Program running with 4 parallel MPI-processes     *
           *              working on a common directory               *
           ************************************************************
------------------------------------------------------------------------------
                           ORCA GTO INTEGRAL CALCULATION
------------------------------------------------------------------------------

                         BASIS SET STATISTICS AND STARTUP INFO

 # of primitive gaussian shells          ...  196
 # of primitive gaussian functions       ...  628
 # of contracted shells                  ...  138
 # of contracted basis functions         ...  554
 Highest angular momentum                ...    5
 Maximum contraction depth               ...   11
 Integral package used                   ... LIBINT
 Integral threshhold            Thresh   ...  1.000e-12
 Primitive cut-off              TCut     ...  1.000e-14


------------------------------ INTEGRAL EVALUATION ----------------------------


 * One electron integrals 
 Pre-screening matrix                    ... done
 Shell pair data                         ... done (   0.003 sec)



           ************************************************************
           *        Program running with 4 parallel MPI-processes     *
           *              working on a common directory               *
           ************************************************************
-------------------------------------------------------------------------------
                                 ORCA SCF
-------------------------------------------------------------------------------

------------
SCF SETTINGS
------------
Hamiltonian:
 Density Functional     Method          .... DFT(GTOs)
 Exchange Functional    Exchange        .... PBE
   PBE kappa parameter   XKappa         ....  0.804000
   PBE mue parameter    XMuePBE         ....  0.219520
 Correlation Functional Correlation     .... PBE
   PBE beta parameter  CBetaPBE         ....  0.066725
 LDA part of GGA corr.  LDAOpt          .... PW91-LDA
 Gradients option       PostSCFGGA      .... off
   Density functional embedding theory  .... OFF
   NL short-range parameter             ....  6.400000


General Settings:
 Integral files         IntName         .... c2h3_pbe
 Hartree-Fock type      HFTyp           .... UHF
 Total Charge           Charge          ....    0
 Multiplicity           Mult            ....    2
 Number of Electrons    NEL             ....   15
 Basis Dimension        Dim             ....  554
 Nuclear Repulsion      ENuc            ....     28.3685888153 Eh

Convergence Acceleration:
 DIIS                   CNVDIIS         .... on
   Start iteration      DIISMaxIt       ....    12
   Startup error        DIISStart       ....  0.200000
   # of expansion vecs  DIISMaxEq       ....     5
   Bias factor          DIISBfac        ....   1.050
   Max. coefficient     DIISMaxC        ....  10.000
 Newton-Raphson         CNVNR           .... off
 SOSCF                  CNVSOSCF        .... off
 Level Shifting         CNVShift        .... on
   Level shift para.    LevelShift      ....    0.2500
   Turn off err/grad.   ShiftErr        ....    0.0010
 Zerner damping         CNVZerner       .... off
 Static damping         CNVDamp         .... on
   Fraction old density DampFac         ....    0.7000
   Max. Damping (<1)    DampMax         ....    0.9800
   Min. Damping (>=0)   DampMin         ....    0.0000
   Turn off err/grad.   DampErr         ....    0.1000
 Fernandez-Rico         CNVRico         .... off

SCF Procedure:
 Maximum # iterations   MaxIter         ....   200
 SCF integral mode      SCFMode         .... Direct
   Integral package                     .... LIBINT
 Reset frequency        DirectResetFreq ....    20
 Integral Threshold     Thresh          ....  1.000e-12 Eh
 Primitive CutOff       TCut            ....  1.000e-14 Eh

Convergence Tolerance:
 Convergence Check Mode ConvCheckMode   .... Total+1el-Energy
 Convergence forced     ConvForced      .... 0
 Energy Change          TolE            ....  1.000e-09 Eh
 1-El. energy change                    ....  1.000e-06 Eh
 DIIS Error             TolErr          ....  1.000e-08


Diagonalization of the overlap matrix:
Smallest eigenvalue                        ... 3.082e-08
Time for diagonalization                   ...    0.076 sec
Threshold for overlap eigenvalues          ... 1.000e-08
Number of eigenvalues below threshold      ... 0
Time for construction of square roots      ...    0.050 sec
Total time needed                          ...    0.127 sec

-------------------
DFT GRID GENERATION
-------------------

General Integration Accuracy     IntAcc      ...  5.670
Radial Grid Type                 RadialGrid  ... Gauss-Chebyshev
Angular Grid (max. acc.)         AngularGrid ... Lebedev-770
Angular grid pruning method      GridPruning ... 3 (G Style)
Weight generation scheme         WeightScheme... Becke
Basis function cutoff            BFCut       ...    1.0000e-12
Integration weight cutoff        WCut        ...    1.0000e-14
Grids for H and He will be reduced by one unit

# of grid points (after initial pruning)     ... 103576 (   0.0 sec)
# of grid points (after weights+screening)   ... 100730 (   0.0 sec)
nearest neighbour list constructed           ...    0.0 sec
Grid point re-assignment to atoms done       ...    0.0 sec
Grid point division into batches done        ...    2.0 sec
Reduced shell lists constructed in    2.5 sec

Total number of grid points                  ...   100730
Total number of batches                      ...     1576
Average number of points per batch           ...       63
Average number of grid points per atom       ...    20146
Average number of shells per batch           ...   111.40 (80.73%)
Average number of basis functions per batch  ...   459.12 (82.87%)
Average number of large shells per batch     ...   101.04 (90.70%)
Average number of large basis fcns per batch ...   420.32 (91.55%)
Maximum spatial batch extension              ...  12.10, 12.13, 16.38 au
Average spatial batch extension              ...   0.34,  0.32,  0.37 au

Time for grid setup =    2.597 sec

------------------------------
INITIAL GUESS: MODEL POTENTIAL
------------------------------
Loading Hartree-Fock densities                     ... done
Calculating cut-offs                               ... done
Setting up the integral package                    ... done
Initializing the effective Hamiltonian             ... done
Starting the Coulomb interaction                   ... done (   0.1 sec)
Reading the grid                                   ... done
Mapping shells                                     ... done
Starting the XC term evaluation                    ... done (   3.4 sec)
  promolecular density results
     # of electrons  =     14.998531543
     EX              =    -11.020352160
     EC              =     -0.453183747
     EX+EC           =    -11.473535908
Transforming the Hamiltonian                       ... done (   0.0 sec)
Diagonalizing the Hamiltonian                      ... done (   0.1 sec)
Back transforming the eigenvectors                 ... done (   0.0 sec)
Now organizing SCF variables                       ... done
                      ------------------
                      INITIAL GUESS DONE (   6.3 sec)
                      ------------------
--------------
SCF ITERATIONS
--------------
ITER       Energy         Delta-E        Max-DP      RMS-DP      [F,P]     Damp
               ***  Starting incremental Fock matrix formation  ***
  0    -77.7632771712   0.000000000000 0.02100487  0.00016148  0.1814726 0.7000
  1    -77.7942780165  -0.031000845255 0.01991971  0.00012392  0.0809065 0.7000
                               ***Turning on DIIS***
  2    -77.8056704159  -0.011392399435 0.09715873  0.00033469  0.0214535 0.0000
  3    -77.8210016775  -0.015331261552 0.01701846  0.00007932  0.0526837 0.0000
  4    -77.8268306401  -0.005828962683 0.00957554  0.00004172  0.0123357 0.0000
  5    -77.8273227185  -0.000492078334 0.00902842  0.00003432  0.0046409 0.0000
  6    -77.8273920606  -0.000069342142 0.01592389  0.00004580  0.0009156 0.0000
  7    -77.8274222853  -0.000030224648 0.00066454  0.00000381  0.0003583 0.0000
  8    -77.8274270758  -0.000004790539 0.00036984  0.00000222  0.0001867 0.0000
  9    -77.8274287643  -0.000001688480 0.00058422  0.00000201  0.0000374 0.0000
 10    -77.8274293111  -0.000000546791 0.00030635  0.00000118  0.0000151 0.0000
 11    -77.8274293958  -0.000000084682 0.00026395  0.00000127  0.0000126 0.0000
 12    -77.8274294087  -0.000000012960 0.00038674  0.00000203  0.0000034 0.0000
 13    -77.8274294096  -0.000000000876 0.00085908  0.00000403  0.0000007 0.0000
 14    -77.8274294097  -0.000000000071 0.00076473  0.00000394  0.0000003 0.0000
                 **** Energy Check signals convergence ****

               *****************************************************
               *                     SUCCESS                       *
               *           SCF CONVERGED AFTER  15 CYCLES          *
               *****************************************************


----------------
TOTAL SCF ENERGY
----------------

Total Energy       :          -77.82742941 Eh           -2117.79202 eV

Components:
Nuclear Repulsion  :           28.36858882 Eh             771.94855 eV
Electronic Energy  :         -106.19601822 Eh           -2889.74057 eV
One Electron Energy:         -159.63816721 Eh           -4343.97537 eV
Two Electron Energy:           53.44214898 Eh            1454.23481 eV

Virial components:
Potential Energy   :         -155.31016138 Eh           -4226.20435 eV
Kinetic Energy     :           77.48273197 Eh            2108.41233 eV
Virial Ratio       :            2.00444870


DFT components:
N(Alpha)           :        8.000000083323 electrons
N(Beta)            :        7.000000076055 electrons
N(Total)           :       15.000000159378 electrons
E(X)               :      -11.308677949674 Eh       
E(C)               :       -0.454045173785 Eh       
E(XC)              :      -11.762723123459 Eh       
DFET-embed. en.    :        0.000000000000 Eh       

---------------
SCF CONVERGENCE
---------------

  Last Energy change         ...    9.1092e-12  Tolerance :   1.0000e-09
  Last MAX-Density change    ...    7.7033e-04  Tolerance :   1.0000e-08
  Last RMS-Density change    ...    4.7332e-06  Tolerance :   1.0000e-09
  Last DIIS Error            ...    2.6430e-07  Tolerance :   1.0000e-08

             **** THE GBW FILE WAS UPDATED (c2h3_pbe.gbw) ****
             **** DENSITY FILE WAS UPDATED (c2h3_pbe.scfp.tmp) ****
             **** ENERGY FILE WAS UPDATED (c2h3_pbe.en.tmp) ****
----------------------
UHF SPIN CONTAMINATION
----------------------

Warning: in a DFT calculation there is little theoretical justification to 
         calculate <S**2> as in Hartree-Fock theory. We will do it anyways
         but you should keep in mind that the values have only limited relevance

Expectation value of <S**2>     :     0.758572
Ideal value S*(S+1) for S=0.5   :     0.750000
Deviation                       :     0.008572

----------------
ORBITAL ENERGIES
----------------
                 SPIN UP ORBITALS
  NO   OCC          E(Eh)            E(eV) 
   0   1.0000      -9.918252      -269.8894 
   1   1.0000      -9.894918      -269.2544 
   2   1.0000      -0.698639       -19.0109 
   3   1.0000      -0.523573       -14.2471 
   4   1.0000      -0.418927       -11.3996 
   5   1.0000      -0.387079       -10.5330 
   6   1.0000      -0.259775        -7.0688 
   7   1.0000      -0.204078        -5.5533 
   8   0.0000      -0.044036        -1.1983 
   9   0.0000      -0.013107        -0.3567 
  10   0.0000       0.001886         0.0513 
  11   0.0000       0.008930         0.2430 
  12   0.0000       0.016480         0.4484 
  13   0.0000       0.031473         0.8564 
  14   0.0000       0.032639         0.8882 
  15   0.0000       0.038579         1.0498 
  16   0.0000       0.041370         1.1257 
  17   0.0000       0.043012         1.1704 
  18   0.0000       0.047545         1.2938 
  19   0.0000       0.055340         1.5059 
  20   0.0000       0.063169         1.7189 
  21   0.0000       0.065266         1.7760 
  22   0.0000       0.068125         1.8538 
  23   0.0000       0.077057         2.0968 
  24   0.0000       0.079912         2.1745 
  25   0.0000       0.088824         2.4170 
  26   0.0000       0.103599         2.8191 
  27   0.0000       0.104812         2.8521 
  28   0.0000       0.111692         3.0393 
  29   0.0000       0.113408         3.0860 
  30   0.0000       0.119196         3.2435 
  31   0.0000       0.121376         3.3028 
  32   0.0000       0.125308         3.4098 
  33   0.0000       0.133146         3.6231 
  34   0.0000       0.137043         3.7291 
  35   0.0000       0.142087         3.8664 
  36   0.0000       0.147249         4.0069 
  37   0.0000       0.155161         4.2221 
  38   0.0000       0.158076         4.3015 
  39   0.0000       0.165311         4.4983 
  40   0.0000       0.165560         4.5051 
  41   0.0000       0.171811         4.6752 
  42   0.0000       0.174353         4.7444 
  43   0.0000       0.179183         4.8758 
  44   0.0000       0.187016         5.0890 
  45   0.0000       0.194685         5.2977 
  46   0.0000       0.198846         5.4109 
  47   0.0000       0.200792         5.4638 
  48   0.0000       0.207531         5.6472 
  49   0.0000       0.214587         5.8392 
  50   0.0000       0.218084         5.9344 
  51   0.0000       0.222172         6.0456 
  52   0.0000       0.232430         6.3247 
  53   0.0000       0.232610         6.3296 
  54   0.0000       0.240143         6.5346 
  55   0.0000       0.248771         6.7694 
  56   0.0000       0.251612         6.8467 
  57   0.0000       0.253761         6.9052 
  58   0.0000       0.264660         7.2018 
  59   0.0000       0.265134         7.2147 
  60   0.0000       0.271339         7.3835 
  61   0.0000       0.276579         7.5261 
  62   0.0000       0.283447         7.7130 
  63   0.0000       0.288019         7.8374 
  64   0.0000       0.289413         7.8753 
  65   0.0000       0.295449         8.0396 
  66   0.0000       0.299638         8.1536 
  67   0.0000       0.302246         8.2245 
  68   0.0000       0.309777         8.4295 
  69   0.0000       0.312104         8.4928 
  70   0.0000       0.321253         8.7417 
  71   0.0000       0.321671         8.7531 
  72   0.0000       0.323408         8.8004 
  73   0.0000       0.331014         9.0074 
  74   0.0000       0.332428         9.0458 
  75   0.0000       0.339307         9.2330 
  76   0.0000       0.347627         9.4594 
  77   0.0000       0.353223         9.6117 
  78   0.0000       0.358405         9.7527 
  79   0.0000       0.359051         9.7703 
  80   0.0000       0.367701        10.0057 
  81   0.0000       0.369752        10.0615 
  82   0.0000       0.381843        10.3905 
  83   0.0000       0.389458        10.5977 
  84   0.0000       0.397496        10.8164 
  85   0.0000       0.401082        10.9140 
  86   0.0000       0.413804        11.2602 
  87   0.0000       0.423434        11.5222 
  88   0.0000       0.425604        11.5813 
  89   0.0000       0.429580        11.6895 
  90   0.0000       0.432325        11.7642 
  91   0.0000       0.443393        12.0653 
  92   0.0000       0.446906        12.1609 
  93   0.0000       0.447334        12.1726 
  94   0.0000       0.450448        12.2573 
  95   0.0000       0.457664        12.4537 
  96   0.0000       0.464157        12.6304 
  97   0.0000       0.471262        12.8237 
  98   0.0000       0.473552        12.8860 
  99   0.0000       0.474912        12.9230 
 100   0.0000       0.482053        13.1173 
 101   0.0000       0.488721        13.2988 
 102   0.0000       0.490004        13.3337 
 103   0.0000       0.497211        13.5298 
 104   0.0000       0.498476        13.5642 
 105   0.0000       0.502224        13.6662 
 106   0.0000       0.503256        13.6943 
 107   0.0000       0.504359        13.7243 
 108   0.0000       0.514835        14.0094 
 109   0.0000       0.517060        14.0699 
 110   0.0000       0.520572        14.1655 
 111   0.0000       0.529554        14.4099 
 112   0.0000       0.534701        14.5499 
 113   0.0000       0.537217        14.6184 
 114   0.0000       0.542229        14.7548 
 115   0.0000       0.543179        14.7807 
 116   0.0000       0.548784        14.9332 
 117   0.0000       0.558582        15.1998 
 118   0.0000       0.558964        15.2102 
 119   0.0000       0.570128        15.5140 
 120   0.0000       0.570605        15.5270 
 121   0.0000       0.573220        15.5981 
 122   0.0000       0.584984        15.9182 
 123   0.0000       0.586600        15.9622 
 124   0.0000       0.595199        16.1962 
 125   0.0000       0.607794        16.5389 
 126   0.0000       0.608316        16.5531 
 127   0.0000       0.614486        16.7210 
 128   0.0000       0.622155        16.9297 
 129   0.0000       0.623349        16.9622 
 130   0.0000       0.629637        17.1333 
 131   0.0000       0.640104        17.4181 
 132   0.0000       0.644905        17.5487 
 133   0.0000       0.645959        17.5774 
 134   0.0000       0.658003        17.9052 
 135   0.0000       0.669327        18.2133 
 136   0.0000       0.678187        18.4544 
 137   0.0000       0.687925        18.7194 
 138   0.0000       0.706145        19.2152 
 139   0.0000       0.707020        19.2390 
 140   0.0000       0.718580        19.5536 
 141   0.0000       0.726410        19.7666 
 142   0.0000       0.742446        20.2030 
 143   0.0000       0.750112        20.4116 
 144   0.0000       0.758405        20.6373 
 145   0.0000       0.760175        20.6854 
 146   0.0000       0.761787        20.7293 
 147   0.0000       0.767222        20.8772 
 148   0.0000       0.778293        21.1784 
 149   0.0000       0.780717        21.2444 
 150   0.0000       0.782678        21.2978 
 151   0.0000       0.800474        21.7820 
 152   0.0000       0.803503        21.8644 
 153   0.0000       0.810724        22.0609 
 154   0.0000       0.817687        22.2504 
 155   0.0000       0.821176        22.3453 
 156   0.0000       0.822451        22.3800 
 157   0.0000       0.825867        22.4730 
 158   0.0000       0.830854        22.6087 
 159   0.0000       0.831972        22.6391 
 160   0.0000       0.834690        22.7131 
 161   0.0000       0.846264        23.0280 
 162   0.0000       0.847676        23.0664 
 163   0.0000       0.848126        23.0787 
 164   0.0000       0.852453        23.1964 
 165   0.0000       0.853783        23.2326 
 166   0.0000       0.858591        23.3635 
 167   0.0000       0.867904        23.6169 
 168   0.0000       0.876897        23.8616 
 169   0.0000       0.878524        23.9058 
 170   0.0000       0.884916        24.0798 
 171   0.0000       0.885431        24.0938 
 172   0.0000       0.890517        24.2322 
 173   0.0000       0.905375        24.6365 
 174   0.0000       0.905546        24.6412 
 175   0.0000       0.909660        24.7531 
 176   0.0000       0.914734        24.8912 
 177   0.0000       0.916781        24.9469 
 178   0.0000       0.921777        25.0828 
 179   0.0000       0.923537        25.1307 
 180   0.0000       0.924617        25.1601 
 181   0.0000       0.933155        25.3924 
 182   0.0000       0.938347        25.5337 
 183   0.0000       0.941067        25.6077 
 184   0.0000       0.945028        25.7155 
 185   0.0000       0.953409        25.9436 
 186   0.0000       0.957597        26.0576 
 187   0.0000       0.963244        26.2112 
 188   0.0000       0.968725        26.3603 
 189   0.0000       0.969950        26.3937 
 190   0.0000       0.982713        26.7410 
 191   0.0000       0.986537        26.8450 
 192   0.0000       0.988806        26.9068 
 193   0.0000       1.012806        27.5599 
 194   0.0000       1.020899        27.7801 
 195   0.0000       1.031283        28.0626 
 196   0.0000       1.051634        28.6164 
 197   0.0000       1.059281        28.8245 
 198   0.0000       1.081823        29.4379 
 199   0.0000       1.100575        29.9482 
 200   0.0000       1.116046        30.3692 
 201   0.0000       1.149318        31.2745 
 202   0.0000       1.154857        31.4252 
 203   0.0000       1.165168        31.7058 
 204   0.0000       1.166690        31.7472 
 205   0.0000       1.190157        32.3858 
 206   0.0000       1.198093        32.6018 
 207   0.0000       1.235747        33.6264 
 208   0.0000       1.271770        34.6066 
 209   0.0000       1.280016        34.8310 
 210   0.0000       1.303364        35.4663 
 211   0.0000       1.343678        36.5633 
 212   0.0000       1.355050        36.8728 
 213   0.0000       1.380532        37.5662 
 214   0.0000       1.411198        38.4006 
 215   0.0000       1.423884        38.7459 
 216   0.0000       1.436236        39.0820 
 217   0.0000       1.471581        40.0437 
 218   0.0000       1.508697        41.0537 
 219   0.0000       1.514430        41.2097 
 220   0.0000       1.527282        41.5594 
 221   0.0000       1.562391        42.5148 
 222   0.0000       1.567330        42.6492 
 223   0.0000       1.578552        42.9546 
 224   0.0000       1.584680        43.1213 
 225   0.0000       1.632314        44.4175 
 226   0.0000       1.633231        44.4425 
 227   0.0000       1.642442        44.6931 
 228   0.0000       1.645948        44.7885 
 229   0.0000       1.663404        45.2635 
 230   0.0000       1.675868        45.6027 
 231   0.0000       1.688547        45.9477 
 232   0.0000       1.700812        46.2815 
 233   0.0000       1.758068        47.8395 
 234   0.0000       1.779789        48.4305 
 235   0.0000       1.801240        49.0142 
 236   0.0000       1.834205        49.9112 
 237   0.0000       1.848524        50.3009 
 238   0.0000       1.894527        51.5527 
 239   0.0000       1.927636        52.4536 
 240   0.0000       1.955272        53.2057 
 241   0.0000       2.005888        54.5830 
 242   0.0000       2.049534        55.7707 
 243   0.0000       2.079185        56.5775 
 244   0.0000       2.095389        57.0184 
 245   0.0000       2.142381        58.2972 
 246   0.0000       2.164114        58.8885 
 247   0.0000       2.171808        59.0979 
 248   0.0000       2.195990        59.7559 
 249   0.0000       2.214726        60.2658 
 250   0.0000       2.231914        60.7335 
 251   0.0000       2.256618        61.4057 
 252   0.0000       2.271210        61.8028 
 253   0.0000       2.293981        62.4224 
 254   0.0000       2.337002        63.5931 
 255   0.0000       2.370101        64.4937 
 256   0.0000       2.419460        65.8368 
 257   0.0000       2.430278        66.1312 
 258   0.0000       2.480835        67.5070 
 259   0.0000       2.513433        68.3940 
 260   0.0000       2.571539        69.9751 
 261   0.0000       2.577090        70.1262 
 262   0.0000       2.583445        70.2991 
 263   0.0000       2.638882        71.8076 
 264   0.0000       2.680197        72.9319 
 265   0.0000       2.720343        74.0243 
 266   0.0000       2.787531        75.8526 
 267   0.0000       2.837694        77.2176 
 268   0.0000       2.922099        79.5143 
 269   0.0000       2.983516        81.1856 
 270   0.0000       3.010426        81.9178 
 271   0.0000       3.034866        82.5829 
 272   0.0000       3.073764        83.6414 
 273   0.0000       3.075544        83.6898 
 274   0.0000       3.175196        86.4015 
 275   0.0000       3.217927        87.5642 
 276   0.0000       3.275204        89.1228 
 277   0.0000       3.283131        89.3385 
 278   0.0000       3.317113        90.2632 
 279   0.0000       3.385796        92.1322 
 280   0.0000       3.389668        92.2376 
 281   0.0000       3.473747        94.5255 
 282   0.0000       3.521818        95.8335 
 283   0.0000       3.541265        96.3627 
 284   0.0000       3.587420        97.6186 
 285   0.0000       3.602256        98.0224 
 286   0.0000       3.611926        98.2855 
 287   0.0000       3.668985        99.8382 
 288   0.0000       3.671208        99.8987 
 289   0.0000       3.693898       100.5161 
 290   0.0000       3.700050       100.6835 
 291   0.0000       3.770733       102.6068 
 292   0.0000       3.786442       103.0343 
 293   0.0000       3.821751       103.9951 
 294   0.0000       3.833142       104.3051 
 295   0.0000       3.859001       105.0088 
 296   0.0000       3.914952       106.5313 
 297   0.0000       3.973443       108.1229 
 298   0.0000       3.989188       108.5513 
 299   0.0000       3.995143       108.7134 
 300   0.0000       4.000140       108.8493 
 301   0.0000       4.056564       110.3847 
 302   0.0000       4.086669       111.2039 
 303   0.0000       4.151449       112.9667 
 304   0.0000       4.169904       113.4688 
 305   0.0000       4.192789       114.0916 
 306   0.0000       4.243685       115.4766 
 307   0.0000       4.274006       116.3016 
 308   0.0000       4.311489       117.3216 
 309   0.0000       4.352842       118.4469 
 310   0.0000       4.353800       118.4729 
 311   0.0000       4.405301       119.8743 
 312   0.0000       4.445041       120.9557 
 313   0.0000       4.503764       122.5537 
 314   0.0000       4.526324       123.1675 
 315   0.0000       4.535924       123.4288 
 316   0.0000       4.599698       125.1642 
 317   0.0000       4.608432       125.4018 
 318   0.0000       4.641572       126.3036 
 319   0.0000       4.642960       126.3414 
 320   0.0000       4.693521       127.7172 
 321   0.0000       4.720739       128.4578 
 322   0.0000       4.738373       128.9377 
 323   0.0000       4.764454       129.6474 
 324   0.0000       4.776802       129.9834 
 325   0.0000       4.794335       130.4605 
 326   0.0000       4.862407       132.3128 
 327   0.0000       4.915463       133.7565 
 328   0.0000       4.918781       133.8468 
 329   0.0000       5.028150       136.8229 
 330   0.0000       5.033245       136.9616 
 331   0.0000       5.037278       137.0713 
 332   0.0000       5.073468       138.0561 
 333   0.0000       5.201611       141.5430 
 334   0.0000       5.209228       141.7503 
 335   0.0000       5.219682       142.0348 
 336   0.0000       5.291435       143.9873 
 337   0.0000       5.319908       144.7621 
 338   0.0000       5.388900       146.6394 
 339   0.0000       5.475741       149.0025 
 340   0.0000       5.508502       149.8940 
 341   0.0000       5.587213       152.0358 
 342   0.0000       5.616719       152.8387 
 343   0.0000       5.641132       153.5030 
 344   0.0000       5.717618       155.5843 
 345   0.0000       5.759546       156.7252 
 346   0.0000       5.818496       158.3293 
 347   0.0000       5.834228       158.7574 
 348   0.0000       5.942119       161.6933 
 349   0.0000       5.958532       162.1399 
 350   0.0000       6.126528       166.7113 
 351   0.0000       6.224603       169.3801 
 352   0.0000       6.276995       170.8057 
 353   0.0000       6.385325       173.7535 
 354   0.0000       6.401309       174.1885 
 355   0.0000       6.450801       175.5352 
 356   0.0000       6.478141       176.2792 
 357   0.0000       6.571388       178.8166 
 358   0.0000       6.654168       181.0691 
 359   0.0000       6.701563       182.3588 
 360   0.0000       6.785902       184.6538 
 361   0.0000       6.797458       184.9682 
 362   0.0000       6.956679       189.3009 
 363   0.0000       6.971423       189.7021 
 364   0.0000       7.000165       190.4842 
 365   0.0000       7.154256       194.6772 
 366   0.0000       7.200854       195.9452 
 367   0.0000       7.285160       198.2393 
 368   0.0000       7.517053       204.5494 
 369   0.0000       7.606876       206.9936 
 370   0.0000       7.745189       210.7573 
 371   0.0000       7.844165       213.4506 
 372   0.0000       7.968476       216.8332 
 373   0.0000       8.444018       229.7734 
 374   0.0000       8.568410       233.1583 
 375   0.0000       8.622421       234.6280 
 376   0.0000       8.653948       235.4859 
 377   0.0000       8.785923       239.0771 
 378   0.0000       8.839880       240.5454 
 379   0.0000       8.922920       242.8050 
 380   0.0000       8.947492       243.4736 
 381   0.0000       9.008483       245.1333 
 382   0.0000       9.017248       245.3718 
 383   0.0000       9.042146       246.0493 
 384   0.0000       9.077576       247.0134 
 385   0.0000       9.101374       247.6610 
 386   0.0000       9.159636       249.2464 
 387   0.0000       9.249166       251.6826 
 388   0.0000       9.279462       252.5070 
 389   0.0000       9.447040       257.0670 
 390   0.0000       9.462966       257.5004 
 391   0.0000       9.513473       258.8748 
 392   0.0000       9.604108       261.3411 
 393   0.0000       9.923100       270.0213 
 394   0.0000      10.027329       272.8575 
 395   0.0000      10.122450       275.4459 
 396   0.0000      10.244932       278.7788 
 397   0.0000      10.337523       281.2983 
 398   0.0000      10.404027       283.1080 
 399   0.0000      10.460981       284.6578 
 400   0.0000      10.568934       287.5953 
 401   0.0000      10.624442       289.1058 
 402   0.0000      10.677703       290.5551 
 403   0.0000      10.714774       291.5638 
 404   0.0000      10.719591       291.6949 
 405   0.0000      10.766222       292.9638 
 406   0.0000      10.767982       293.0117 
 407   0.0000      10.784419       293.4590 
 408   0.0000      10.848805       295.2110 
 409   0.0000      10.899636       296.5942 
 410   0.0000      10.908271       296.8292 
 411   0.0000      10.967496       298.4407 
 412   0.0000      11.072132       301.2880 
 413   0.0000      11.156050       303.5716 
 414   0.0000      11.227705       305.5214 
 415   0.0000      11.308919       307.7313 
 416   0.0000      11.368254       309.3459 
 417   0.0000      11.421146       310.7852 
 418   0.0000      11.425159       310.8944 
 419   0.0000      11.457401       311.7717 
 420   0.0000      11.563182       314.6502 
 421   0.0000      11.592329       315.4433 
 422   0.0000      11.609310       315.9054 
 423   0.0000      11.696158       318.2686 
 424   0.0000      11.708360       318.6007 
 425   0.0000      11.732881       319.2679 
 426   0.0000      11.743870       319.5669 
 427   0.0000      11.812930       321.4462 
 428   0.0000      11.823230       321.7265 
 429   0.0000      11.838513       322.1423 
 430   0.0000      11.854513       322.5777 
 431   0.0000      11.861920       322.7792 
 432   0.0000      11.956829       325.3619 
 433   0.0000      12.014655       326.9354 
 434   0.0000      12.055713       328.0526 
 435   0.0000      12.165485       331.0397 
 436   0.0000      12.211354       332.2878 
 437   0.0000      12.228529       332.7552 
 438   0.0000      12.319441       335.2290 
 439   0.0000      12.347747       335.9993 
 440   0.0000      12.373863       336.7099 
 441   0.0000      12.412636       337.7650 
 442   0.0000      12.455461       338.9303 
 443   0.0000      12.499875       340.1389 
 444   0.0000      12.513329       340.5050 
 445   0.0000      12.547117       341.4244 
 446   0.0000      12.609572       343.1239 
 447   0.0000      12.668664       344.7319 
 448   0.0000      12.705795       345.7423 
 449   0.0000      12.800142       348.3096 
 450   0.0000      12.840580       349.4099 
 451   0.0000      12.848755       349.6324 
 452   0.0000      12.884139       350.5952 
 453   0.0000      12.936511       352.0203 
 454   0.0000      12.965707       352.8148 
 455   0.0000      13.026382       354.4659 
 456   0.0000      13.167997       358.3194 
 457   0.0000      13.217469       359.6656 
 458   0.0000      13.224645       359.8609 
 459   0.0000      13.299751       361.9046 
 460   0.0000      13.391701       364.4067 
 461   0.0000      13.403192       364.7194 
 462   0.0000      13.491694       367.1276 
 463   0.0000      13.558225       368.9380 
 464   0.0000      13.633624       370.9898 
 465   0.0000      13.692849       372.6014 
 466   0.0000      13.727671       373.5489 
 467   0.0000      13.975617       380.2959 
 468   0.0000      14.054119       382.4320 
 469   0.0000      14.157806       385.2535 
 470   0.0000      14.296402       389.0249 
 471   0.0000      14.375240       391.1702 
 472   0.0000      14.501547       394.6072 
 473   0.0000      14.700878       400.0312 
 474   0.0000      14.852067       404.1453 
 475   0.0000      15.002429       408.2368 
 476   0.0000      15.155287       412.3963 
 477   0.0000      15.307998       416.5518 
 478   0.0000      15.319147       416.8552 
 479   0.0000      15.373418       418.3320 
 480   0.0000      15.774440       429.2443 
 481   0.0000      15.847085       431.2211 
 482   0.0000      16.022172       435.9855 
 483   0.0000      16.250246       442.1917 
 484   0.0000      16.599337       451.6909 
 485   0.0000      16.716421       454.8770 
 486   0.0000      16.723953       455.0819 
 487   0.0000      16.728923       455.2171 
 488   0.0000      16.744411       455.6386 
 489   0.0000      16.763541       456.1591 
 490   0.0000      16.772590       456.4054 
 491   0.0000      16.818069       457.6429 
 492   0.0000      17.081042       464.7988 
 493   0.0000      17.139852       466.3991 
 494   0.0000      17.159143       466.9240 
 495   0.0000      17.231243       468.8860 
 496   0.0000      17.250917       469.4213 
 497   0.0000      17.378792       472.9010 
 498   0.0000      17.498915       476.1697 
 499   0.0000      17.830569       485.1944 
 500   0.0000      18.037981       490.8384 
 501   0.0000      18.494270       503.2547 
 502   0.0000      18.510911       503.7075 
 503   0.0000      18.598253       506.0842 
 504   0.0000      18.716772       509.3093 
 505   0.0000      18.759374       510.4685 
 506   0.0000      18.792560       511.3715 
 507   0.0000      19.039712       518.0969 
 508   0.0000      19.191975       522.2402 
 509   0.0000      19.927263       542.2484 
 510   0.0000      20.185840       549.2846 
 511   0.0000      20.242858       550.8362 
 512   0.0000      20.246540       550.9364 
 513   0.0000      20.397360       555.0404 
 514   0.0000      20.466677       556.9266 
 515   0.0000      20.553377       559.2858 
 516   0.0000      20.586279       560.1811 
 517   0.0000      20.864846       567.7613 
 518   0.0000      21.336635       580.5994 
 519   0.0000      21.540075       586.1352 
 520   0.0000      22.672462       616.9491 
 521   0.0000      23.484715       639.0516 
 522   0.0000      23.539973       640.5552 
 523   0.0000      23.634750       643.1342 
 524   0.0000      23.684578       644.4901 
 525   0.0000      23.853066       649.0749 
 526   0.0000      24.029331       653.8713 
 527   0.0000      25.475428       693.2216 
 528   0.0000      25.486472       693.5222 
 529   0.0000      25.855643       703.5678 
 530   0.0000      31.974104       870.0596 
 531   0.0000      32.111258       873.7917 
 532   0.0000      32.197219       876.1309 
 533   0.0000      32.322036       879.5273 
 534   0.0000      32.629812       887.9023 
 535   0.0000      32.737497       890.8326 
 536   0.0000      33.466728       910.6760 
 537   0.0000      33.577777       913.6978 
 538   0.0000      34.253027       932.0722 
 539   0.0000      35.110060       955.3933 
 540   0.0000      41.021101      1116.2409 
 541   0.0000      41.138315      1119.4305 
 542   0.0000      41.480885      1128.7523 
 543   0.0000      75.049456      2042.1995 
 544   0.0000      76.804829      2089.9656 
 545   0.0000      91.034578      2477.1768 
 546   0.0000      91.076068      2478.3058 
 547   0.0000      91.136612      2479.9533 
 548   0.0000      91.162304      2480.6524 
 549   0.0000      91.283322      2483.9455 
 550   0.0000      91.383264      2486.6650 
 551   0.0000      92.339977      2512.6985 
 552   0.0000      92.396407      2514.2341 
 553   0.0000      92.593118      2519.5868 

                 SPIN DOWN ORBITALS
  NO   OCC          E(Eh)            E(eV) 
   0   1.0000      -9.903886      -269.4984 
   1   1.0000      -9.896163      -269.2883 
   2   1.0000      -0.684447       -18.6248 
   3   1.0000      -0.506050       -13.7703 
   4   1.0000      -0.406748       -11.0682 
   5   1.0000      -0.376109       -10.2345 
   6   1.0000      -0.251813        -6.8522 
   7   0.0000      -0.115920        -3.1543 
   8   0.0000      -0.032892        -0.8950 
   9   0.0000      -0.008681        -0.2362 
  10   0.0000       0.005931         0.1614 
  11   0.0000       0.015441         0.4202 
  12   0.0000       0.017886         0.4867 
  13   0.0000       0.033542         0.9127 
  14   0.0000       0.037050         1.0082 
  15   0.0000       0.040061         1.0901 
  16   0.0000       0.043015         1.1705 
  17   0.0000       0.045858         1.2479 
  18   0.0000       0.049737         1.3534 
  19   0.0000       0.056956         1.5499 
  20   0.0000       0.068206         1.8560 
  21   0.0000       0.068835         1.8731 
  22   0.0000       0.071870         1.9557 
  23   0.0000       0.078964         2.1487 
  24   0.0000       0.082437         2.2432 
  25   0.0000       0.100058         2.7227 
  26   0.0000       0.107019         2.9121 
  27   0.0000       0.107647         2.9292 
  28   0.0000       0.115382         3.1397 
  29   0.0000       0.118980         3.2376 
  30   0.0000       0.123262         3.3541 
  31   0.0000       0.125101         3.4042 
  32   0.0000       0.129606         3.5268 
  33   0.0000       0.134667         3.6645 
  34   0.0000       0.141599         3.8531 
  35   0.0000       0.143890         3.9154 
  36   0.0000       0.150929         4.1070 
  37   0.0000       0.159787         4.3480 
  38   0.0000       0.162344         4.4176 
  39   0.0000       0.168985         4.5983 
  40   0.0000       0.170511         4.6398 
  41   0.0000       0.176296         4.7973 
  42   0.0000       0.177003         4.8165 
  43   0.0000       0.183601         4.9960 
  44   0.0000       0.190379         5.1805 
  45   0.0000       0.197924         5.3858 
  46   0.0000       0.204380         5.5615 
  47   0.0000       0.205492         5.5917 
  48   0.0000       0.214041         5.8244 
  49   0.0000       0.216454         5.8900 
  50   0.0000       0.222730         6.0608 
  51   0.0000       0.230826         6.2811 
  52   0.0000       0.235807         6.4166 
  53   0.0000       0.239654         6.5213 
  54   0.0000       0.242892         6.6094 
  55   0.0000       0.254238         6.9182 
  56   0.0000       0.258032         7.0214 
  57   0.0000       0.258680         7.0390 
  58   0.0000       0.271166         7.3788 
  59   0.0000       0.271546         7.3891 
  60   0.0000       0.275619         7.5000 
  61   0.0000       0.279870         7.6157 
  62   0.0000       0.286761         7.8032 
  63   0.0000       0.292924         7.9709 
  64   0.0000       0.293184         7.9779 
  65   0.0000       0.301319         8.1993 
  66   0.0000       0.304146         8.2762 
  67   0.0000       0.307134         8.3575 
  68   0.0000       0.314658         8.5623 
  69   0.0000       0.316373         8.6089 
  70   0.0000       0.323995         8.8163 
  71   0.0000       0.325671         8.8620 
  72   0.0000       0.327794         8.9197 
  73   0.0000       0.334951         9.1145 
  74   0.0000       0.335972         9.1423 
  75   0.0000       0.343076         9.3356 
  76   0.0000       0.354970         9.6592 
  77   0.0000       0.356220         9.6933 
  78   0.0000       0.364495         9.9184 
  79   0.0000       0.365550         9.9471 
  80   0.0000       0.375309        10.2127 
  81   0.0000       0.380737        10.3604 
  82   0.0000       0.387443        10.5429 
  83   0.0000       0.394790        10.7428 
  84   0.0000       0.403539        10.9809 
  85   0.0000       0.406174        11.0525 
  86   0.0000       0.417737        11.3672 
  87   0.0000       0.430230        11.7071 
  88   0.0000       0.430663        11.7189 
  89   0.0000       0.436216        11.8700 
  90   0.0000       0.437096        11.8940 
  91   0.0000       0.448936        12.2162 
  92   0.0000       0.452216        12.3054 
  93   0.0000       0.454105        12.3568 
  94   0.0000       0.455189        12.3863 
  95   0.0000       0.469151        12.7663 
  96   0.0000       0.469480        12.7752 
  97   0.0000       0.473412        12.8822 
  98   0.0000       0.480776        13.0826 
  99   0.0000       0.481476        13.1016 
 100   0.0000       0.487501        13.2656 
 101   0.0000       0.494207        13.4481 
 102   0.0000       0.494645        13.4600 
 103   0.0000       0.505893        13.7661 
 104   0.0000       0.506471        13.7818 
 105   0.0000       0.507096        13.7988 
 106   0.0000       0.507892        13.8205 
 107   0.0000       0.510964        13.9040 
 108   0.0000       0.519951        14.1486 
 109   0.0000       0.522416        14.2157 
 110   0.0000       0.528108        14.3706 
 111   0.0000       0.532699        14.4955 
 112   0.0000       0.541777        14.7425 
 113   0.0000       0.542288        14.7564 
 114   0.0000       0.546245        14.8641 
 115   0.0000       0.547823        14.9070 
 116   0.0000       0.555220        15.1083 
 117   0.0000       0.563863        15.3435 
 118   0.0000       0.564245        15.3539 
 119   0.0000       0.576031        15.6746 
 120   0.0000       0.576972        15.7002 
 121   0.0000       0.578334        15.7373 
 122   0.0000       0.592411        16.1203 
 123   0.0000       0.593763        16.1571 
 124   0.0000       0.600748        16.3472 
 125   0.0000       0.613307        16.6889 
 126   0.0000       0.614529        16.7222 
 127   0.0000       0.622714        16.9449 
 128   0.0000       0.627723        17.0812 
 129   0.0000       0.630664        17.1612 
 130   0.0000       0.638023        17.3615 
 131   0.0000       0.647146        17.6097 
 132   0.0000       0.649267        17.6675 
 133   0.0000       0.651276        17.7221 
 134   0.0000       0.670613        18.2483 
 135   0.0000       0.676124        18.3983 
 136   0.0000       0.683750        18.6058 
 137   0.0000       0.696058        18.9407 
 138   0.0000       0.711906        19.3719 
 139   0.0000       0.714936        19.4544 
 140   0.0000       0.727424        19.7942 
 141   0.0000       0.732925        19.9439 
 142   0.0000       0.750330        20.4175 
 143   0.0000       0.757611        20.6156 
 144   0.0000       0.765184        20.8217 
 145   0.0000       0.765728        20.8365 
 146   0.0000       0.772042        21.0083 
 147   0.0000       0.772453        21.0195 
 148   0.0000       0.784124        21.3371 
 149   0.0000       0.787684        21.4340 
 150   0.0000       0.788339        21.4518 
 151   0.0000       0.809022        22.0146 
 152   0.0000       0.810087        22.0436 
 153   0.0000       0.815024        22.1779 
 154   0.0000       0.824438        22.4341 
 155   0.0000       0.827803        22.5257 
 156   0.0000       0.828670        22.5492 
 157   0.0000       0.832681        22.6584 
 158   0.0000       0.836426        22.7603 
 159   0.0000       0.837009        22.7762 
 160   0.0000       0.840545        22.8724 
 161   0.0000       0.854771        23.2595 
 162   0.0000       0.854818        23.2608 
 163   0.0000       0.857146        23.3241 
 164   0.0000       0.858015        23.3478 
 165   0.0000       0.865383        23.5483 
 166   0.0000       0.866195        23.5704 
 167   0.0000       0.876061        23.8388 
 168   0.0000       0.883397        24.0384 
 169   0.0000       0.886294        24.1173 
 170   0.0000       0.888499        24.1773 
 171   0.0000       0.893118        24.3030 
 172   0.0000       0.896352        24.3910 
 173   0.0000       0.910680        24.7809 
 174   0.0000       0.911931        24.8149 
 175   0.0000       0.915500        24.9120 
 176   0.0000       0.921410        25.0728 
 177   0.0000       0.921791        25.0832 
 178   0.0000       0.928269        25.2595 
 179   0.0000       0.933411        25.3994 
 180   0.0000       0.934624        25.4324 
 181   0.0000       0.942504        25.6468 
 182   0.0000       0.944988        25.7144 
 183   0.0000       0.948195        25.8017 
 184   0.0000       0.951221        25.8840 
 185   0.0000       0.960565        26.1383 
 186   0.0000       0.963602        26.2209 
 187   0.0000       0.968267        26.3479 
 188   0.0000       0.975287        26.5389 
 189   0.0000       0.976954        26.5843 
 190   0.0000       0.990204        26.9448 
 191   0.0000       0.991539        26.9812 
 192   0.0000       0.996512        27.1165 
 193   0.0000       1.018912        27.7260 
 194   0.0000       1.030513        28.0417 
 195   0.0000       1.039747        28.2930 
 196   0.0000       1.059615        28.8336 
 197   0.0000       1.067633        29.0518 
 198   0.0000       1.089216        29.6391 
 199   0.0000       1.106981        30.1225 
 200   0.0000       1.124900        30.6101 
 201   0.0000       1.160462        31.5778 
 202   0.0000       1.166055        31.7300 
 203   0.0000       1.176276        32.0081 
 204   0.0000       1.179027        32.0830 
 205   0.0000       1.202854        32.7313 
 206   0.0000       1.215162        33.0662 
 207   0.0000       1.243831        33.8464 
 208   0.0000       1.285337        34.9758 
 209   0.0000       1.288304        35.0565 
 210   0.0000       1.312604        35.7178 
 211   0.0000       1.347991        36.6807 
 212   0.0000       1.363788        37.1106 
 213   0.0000       1.391468        37.8638 
 214   0.0000       1.428954        38.8838 
 215   0.0000       1.430914        38.9372 
 216   0.0000       1.449192        39.4345 
 217   0.0000       1.478249        40.2252 
 218   0.0000       1.514388        41.2086 
 219   0.0000       1.528575        41.5946 
 220   0.0000       1.537000        41.8239 
 221   0.0000       1.570456        42.7343 
 222   0.0000       1.573742        42.8237 
 223   0.0000       1.591428        43.3049 
 224   0.0000       1.592721        43.3401 
 225   0.0000       1.641462        44.6665 
 226   0.0000       1.643669        44.7265 
 227   0.0000       1.652368        44.9632 
 228   0.0000       1.658484        45.1296 
 229   0.0000       1.670391        45.4536 
 230   0.0000       1.683589        45.8128 
 231   0.0000       1.700695        46.2783 
 232   0.0000       1.710876        46.5553 
 233   0.0000       1.767589        48.0986 
 234   0.0000       1.786502        48.6132 
 235   0.0000       1.809133        49.2290 
 236   0.0000       1.846492        50.2456 
 237   0.0000       1.870026        50.8860 
 238   0.0000       1.903845        51.8063 
 239   0.0000       1.936879        52.7052 
 240   0.0000       1.974111        53.7183 
 241   0.0000       2.011101        54.7248 
 242   0.0000       2.058692        56.0198 
 243   0.0000       2.097363        57.0721 
 244   0.0000       2.107793        57.3560 
 245   0.0000       2.146813        58.4177 
 246   0.0000       2.175156        59.1890 
 247   0.0000       2.181083        59.3503 
 248   0.0000       2.228725        60.6467 
 249   0.0000       2.230671        60.6996 
 250   0.0000       2.251190        61.2580 
 251   0.0000       2.276940        61.9587 
 252   0.0000       2.280532        62.0564 
 253   0.0000       2.323824        63.2345 
 254   0.0000       2.349467        63.9322 
 255   0.0000       2.391840        65.0853 
 256   0.0000       2.424288        65.9682 
 257   0.0000       2.440326        66.4046 
 258   0.0000       2.498037        67.9751 
 259   0.0000       2.529850        68.8407 
 260   0.0000       2.588166        70.4276 
 261   0.0000       2.591976        70.5312 
 262   0.0000       2.595256        70.6205 
 263   0.0000       2.654684        72.2376 
 264   0.0000       2.689166        73.1759 
 265   0.0000       2.765879        75.2634 
 266   0.0000       2.792990        76.0011 
 267   0.0000       2.860920        77.8496 
 268   0.0000       2.938346        79.9564 
 269   0.0000       2.998832        81.6024 
 270   0.0000       3.018711        82.1433 
 271   0.0000       3.046407        82.8970 
 272   0.0000       3.086258        83.9813 
 273   0.0000       3.086769        83.9953 
 274   0.0000       3.185346        86.6777 
 275   0.0000       3.230431        87.9045 
 276   0.0000       3.294682        89.6529 
 277   0.0000       3.294951        89.6602 
 278   0.0000       3.328662        90.5775 
 279   0.0000       3.394115        92.3586 
 280   0.0000       3.406755        92.7025 
 281   0.0000       3.484380        94.8148 
 282   0.0000       3.534470        96.1778 
 283   0.0000       3.558987        96.8450 
 284   0.0000       3.595938        97.8504 
 285   0.0000       3.616114        98.3995 
 286   0.0000       3.621523        98.5467 
 287   0.0000       3.684692       100.2656 
 288   0.0000       3.690413       100.4213 
 289   0.0000       3.701324       100.7181 
 290   0.0000       3.706543       100.8602 
 291   0.0000       3.785893       103.0194 
 292   0.0000       3.800629       103.4204 
 293   0.0000       3.837111       104.4131 
 294   0.0000       3.840616       104.5085 
 295   0.0000       3.873920       105.4147 
 296   0.0000       3.927330       106.8681 
 297   0.0000       3.983146       108.3869 
 298   0.0000       3.997003       108.7640 
 299   0.0000       4.012416       109.1834 
 300   0.0000       4.014986       109.2533 
 301   0.0000       4.076732       110.9335 
 302   0.0000       4.099938       111.5650 
 303   0.0000       4.170036       113.4725 
 304   0.0000       4.196251       114.1858 
 305   0.0000       4.224446       114.9530 
 306   0.0000       4.261778       115.9689 
 307   0.0000       4.290857       116.7602 
 308   0.0000       4.329279       117.8057 
 309   0.0000       4.387812       119.3984 
 310   0.0000       4.391669       119.5034 
 311   0.0000       4.425486       120.4236 
 312   0.0000       4.458478       121.3214 
 313   0.0000       4.526028       123.1595 
 314   0.0000       4.543313       123.6298 
 315   0.0000       4.555370       123.9579 
 316   0.0000       4.617764       125.6558 
 317   0.0000       4.622342       125.7803 
 318   0.0000       4.646026       126.4248 
 319   0.0000       4.665625       126.9581 
 320   0.0000       4.707788       128.1054 
 321   0.0000       4.744497       129.1043 
 322   0.0000       4.749020       129.2274 
 323   0.0000       4.780614       130.0871 
 324   0.0000       4.803794       130.7179 
 325   0.0000       4.821002       131.1861 
 326   0.0000       4.883393       132.8839 
 327   0.0000       4.939666       134.4152 
 328   0.0000       4.947049       134.6160 
 329   0.0000       5.042462       137.2124 
 330   0.0000       5.046242       137.3152 
 331   0.0000       5.070064       137.9635 
 332   0.0000       5.098692       138.7425 
 333   0.0000       5.223101       142.1278 
 334   0.0000       5.235178       142.4564 
 335   0.0000       5.235951       142.4775 
 336   0.0000       5.318782       144.7314 
 337   0.0000       5.328666       145.0004 
 338   0.0000       5.399389       146.9249 
 339   0.0000       5.483294       149.2080 
 340   0.0000       5.534068       150.5896 
 341   0.0000       5.606919       152.5720 
 342   0.0000       5.636110       153.3664 
 343   0.0000       5.674593       154.4135 
 344   0.0000       5.730967       155.9476 
 345   0.0000       5.774817       157.1407 
 346   0.0000       5.831549       158.6845 
 347   0.0000       5.859066       159.4333 
 348   0.0000       5.962548       162.2492 
 349   0.0000       5.988431       162.9535 
 350   0.0000       6.138129       167.0270 
 351   0.0000       6.225444       169.4029 
 352   0.0000       6.298962       171.4035 
 353   0.0000       6.402085       174.2096 
 354   0.0000       6.411290       174.4601 
 355   0.0000       6.474779       176.1877 
 356   0.0000       6.482817       176.4064 
 357   0.0000       6.580109       179.0539 
 358   0.0000       6.681988       181.8261 
 359   0.0000       6.711987       182.6424 
 360   0.0000       6.789642       184.7555 
 361   0.0000       6.818423       185.5387 
 362   0.0000       6.984085       190.0466 
 363   0.0000       6.991443       190.2468 
 364   0.0000       7.025037       191.1610 
 365   0.0000       7.177162       195.3005 
 366   0.0000       7.213705       196.2949 
 367   0.0000       7.315013       199.0516 
 368   0.0000       7.535320       205.0465 
 369   0.0000       7.628587       207.5844 
 370   0.0000       7.759605       211.1496 
 371   0.0000       7.861482       213.9218 
 372   0.0000       7.984274       217.2631 
 373   0.0000       8.452881       230.0146 
 374   0.0000       8.577391       233.4027 
 375   0.0000       8.640717       235.1259 
 376   0.0000       8.664964       235.7857 
 377   0.0000       8.800783       239.4815 
 378   0.0000       8.851183       240.8529 
 379   0.0000       8.934134       243.1101 
 380   0.0000       8.958657       243.7775 
 381   0.0000       9.023540       245.5430 
 382   0.0000       9.031494       245.7595 
 383   0.0000       9.056116       246.4295 
 384   0.0000       9.088747       247.3174 
 385   0.0000       9.113375       247.9875 
 386   0.0000       9.173401       249.6209 
 387   0.0000       9.267246       252.1746 
 388   0.0000       9.295274       252.9373 
 389   0.0000       9.459301       257.4007 
 390   0.0000       9.476091       257.8576 
 391   0.0000       9.528190       259.2752 
 392   0.0000       9.628035       261.9922 
 393   0.0000       9.933666       270.3088 
 394   0.0000      10.039425       273.1866 
 395   0.0000      10.132280       275.7134 
 396   0.0000      10.266578       279.3678 
 397   0.0000      10.423554       283.6393 
 398   0.0000      10.484663       285.3022 
 399   0.0000      10.500139       285.7233 
 400   0.0000      10.595051       288.3060 
 401   0.0000      10.642284       289.5913 
 402   0.0000      10.716873       291.6209 
 403   0.0000      10.728685       291.9424 
 404   0.0000      10.769061       293.0410 
 405   0.0000      10.801528       293.9245 
 406   0.0000      10.809878       294.1517 
 407   0.0000      10.819546       294.4148 
 408   0.0000      10.875893       295.9481 
 409   0.0000      10.912979       296.9572 
 410   0.0000      10.941032       297.7206 
 411   0.0000      10.995007       299.1893 
 412   0.0000      11.091759       301.8221 
 413   0.0000      11.179562       304.2113 
 414   0.0000      11.254374       306.2471 
 415   0.0000      11.312360       307.8250 
 416   0.0000      11.404818       310.3409 
 417   0.0000      11.436498       311.2029 
 418   0.0000      11.440499       311.3118 
 419   0.0000      11.472716       312.1885 
 420   0.0000      11.596367       315.5532 
 421   0.0000      11.628012       316.4143 
 422   0.0000      11.633084       316.5523 
 423   0.0000      11.709902       318.6426 
 424   0.0000      11.718113       318.8661 
 425   0.0000      11.747898       319.6765 
 426   0.0000      11.803098       321.1786 
 427   0.0000      11.820108       321.6415 
 428   0.0000      11.848667       322.4186 
 429   0.0000      11.874634       323.1252 
 430   0.0000      11.892844       323.6207 
 431   0.0000      11.941469       324.9439 
 432   0.0000      11.978951       325.9638 
 433   0.0000      12.031389       327.3907 
 434   0.0000      12.101149       329.2890 
 435   0.0000      12.181273       331.4693 
 436   0.0000      12.246283       333.2383 
 437   0.0000      12.255096       333.4781 
 438   0.0000      12.344136       335.9010 
 439   0.0000      12.374975       336.7402 
 440   0.0000      12.391392       337.1869 
 441   0.0000      12.430626       338.2545 
 442   0.0000      12.481909       339.6500 
 443   0.0000      12.514678       340.5417 
 444   0.0000      12.528542       340.9190 
 445   0.0000      12.564296       341.8919 
 446   0.0000      12.616643       343.3163 
 447   0.0000      12.683590       345.1380 
 448   0.0000      12.721764       346.1768 
 449   0.0000      12.838973       349.3662 
 450   0.0000      12.863913       350.0449 
 451   0.0000      12.887527       350.6874 
 452   0.0000      12.892300       350.8173 
 453   0.0000      12.955575       352.5391 
 454   0.0000      12.980430       353.2154 
 455   0.0000      13.043321       354.9268 
 456   0.0000      13.191090       358.9478 
 457   0.0000      13.224901       359.8679 
 458   0.0000      13.237656       360.2149 
 459   0.0000      13.303637       362.0104 
 460   0.0000      13.399678       364.6238 
 461   0.0000      13.421020       365.2045 
 462   0.0000      13.510182       367.6307 
 463   0.0000      13.576796       369.4434 
 464   0.0000      13.648835       371.4037 
 465   0.0000      13.712837       373.1453 
 466   0.0000      13.741854       373.9349 
 467   0.0000      14.000874       380.9832 
 468   0.0000      14.066938       382.7809 
 469   0.0000      14.176761       385.7693 
 470   0.0000      14.302925       389.2024 
 471   0.0000      14.389163       391.5490 
 472   0.0000      14.531830       395.4312 
 473   0.0000      14.729061       400.7981 
 474   0.0000      14.876824       404.8190 
 475   0.0000      15.009928       408.4409 
 476   0.0000      15.177937       413.0127 
 477   0.0000      15.323447       416.9722 
 478   0.0000      15.332315       417.2135 
 479   0.0000      15.381405       418.5493 
 480   0.0000      15.783303       429.4855 
 481   0.0000      15.867920       431.7881 
 482   0.0000      16.044172       436.5841 
 483   0.0000      16.264889       442.5901 
 484   0.0000      16.615100       452.1199 
 485   0.0000      16.731254       455.2806 
 486   0.0000      16.731724       455.2934 
 487   0.0000      16.740129       455.5221 
 488   0.0000      16.760951       456.0887 
 489   0.0000      16.776296       456.5062 
 490   0.0000      16.786390       456.7809 
 491   0.0000      16.853911       458.6182 
 492   0.0000      17.096411       465.2170 
 493   0.0000      17.149905       466.6726 
 494   0.0000      17.168967       467.1913 
 495   0.0000      17.245336       469.2694 
 496   0.0000      17.276491       470.1172 
 497   0.0000      17.390805       473.2279 
 498   0.0000      17.528880       476.9851 
 499   0.0000      17.843479       485.5457 
 500   0.0000      18.046821       491.0790 
 501   0.0000      18.507251       503.6079 
 502   0.0000      18.524309       504.0721 
 503   0.0000      18.608575       506.3651 
 504   0.0000      18.729654       509.6598 
 505   0.0000      18.776163       510.9254 
 506   0.0000      18.804281       511.6905 
 507   0.0000      19.054824       518.5081 
 508   0.0000      19.219160       522.9799 
 509   0.0000      19.940072       542.5969 
 510   0.0000      20.197594       549.6045 
 511   0.0000      20.254556       551.1545 
 512   0.0000      20.255628       551.1837 
 513   0.0000      20.406226       555.2816 
 514   0.0000      20.476570       557.1958 
 515   0.0000      20.567306       559.6649 
 516   0.0000      20.608138       560.7760 
 517   0.0000      20.880678       568.1921 
 518   0.0000      21.348202       580.9141 
 519   0.0000      21.543005       586.2150 
 520   0.0000      22.682867       617.2322 
 521   0.0000      23.501312       639.5032 
 522   0.0000      23.552990       640.9094 
 523   0.0000      23.649973       643.5485 
 524   0.0000      23.698481       644.8685 
 525   0.0000      23.867421       649.4655 
 526   0.0000      24.048033       654.3802 
 527   0.0000      25.486884       693.5334 
 528   0.0000      25.502795       693.9663 
 529   0.0000      25.871270       703.9931 
 530   0.0000      32.021315       871.3443 
 531   0.0000      32.169163       875.3674 
 532   0.0000      32.205472       876.3555 
 533   0.0000      32.318044       879.4187 
 534   0.0000      32.650752       888.4721 
 535   0.0000      32.741815       890.9501 
 536   0.0000      33.477001       910.9555 
 537   0.0000      33.588335       913.9851 
 538   0.0000      34.261132       932.2928 
 539   0.0000      35.122100       955.7209 
 540   0.0000      41.036300      1116.6545 
 541   0.0000      41.150573      1119.7640 
 542   0.0000      41.494150      1129.1132 
 543   0.0000      75.062675      2042.5592 
 544   0.0000      76.808190      2090.0571 
 545   0.0000      91.051309      2477.6321 
 546   0.0000      91.090240      2478.6914 
 547   0.0000      91.153508      2480.4131 
 548   0.0000      91.175424      2481.0094 
 549   0.0000      91.298075      2484.3469 
 550   0.0000      91.403677      2487.2205 
 551   0.0000      92.350568      2512.9867 
 552   0.0000      92.413765      2514.7064 
 553   0.0000      92.611999      2520.1006 

                    ********************************
                    * MULLIKEN POPULATION ANALYSIS *
                    ********************************

--------------------------------------------
MULLIKEN ATOMIC CHARGES AND SPIN POPULATIONS
--------------------------------------------
   0 C :   -0.076623    0.779901
   1 C :   -0.050484    0.028905
   2 H :    0.092474    0.089454
   3 H :    0.000466    0.070426
   4 H :    0.034168    0.031314
Sum of atomic charges         :   -0.0000000
Sum of atomic spin populations:    1.0000000

-----------------------------------------------------
MULLIKEN REDUCED ORBITAL CHARGES AND SPIN POPULATIONS
-----------------------------------------------------
CHARGE
  0 C s       :     3.319875  s :     3.319875
      pz      :     0.912991  p :     2.676700
      px      :     0.817557
      py      :     0.946152
      dz2     :     0.004432  d :     0.064108
      dxz     :    -0.000124
      dyz     :     0.022772
      dx2y2   :     0.001428
      dxy     :     0.035599
      f0      :     0.002195  f :     0.012785
      f+1     :     0.000597
      f-1     :     0.000964
      f+2     :     0.003461
      f-2     :     0.000070
      f+3     :     0.004767
      f-3     :     0.000731
      g0      :     0.000084  g :     0.002899
      g+1     :    -0.000003
      g-1     :     0.000392
      g+2     :     0.000224
      g-2     :     0.000386
      g+3     :    -0.000003
      g-3     :     0.000342
      g+4     :     0.000136
      g-4     :     0.001342
      h0      :    -0.000033  h :     0.000256
      h+1     :    -0.000010
      h-1     :     0.000026
      h+2     :     0.000001
      h-2     :    -0.000000
      h+3     :     0.000032
      h-3     :     0.000027
      h+4     :     0.000056
      h-4     :     0.000000
      h+5     :     0.000162
      h-5     :    -0.000004
  1 C s       :     3.070592  s :     3.070592
      pz      :     0.923835  p :     2.869108
      px      :     1.039125
      py      :     0.906147
      dz2     :     0.002754  d :     0.098151
      dxz     :     0.000065
      dyz     :     0.014932
      dx2y2   :     0.007944
      dxy     :     0.072456
      f0      :     0.000808  f :     0.011817
      f+1     :     0.000392
      f-1     :     0.000603
      f+2     :     0.002610
      f-2     :    -0.000091
      f+3     :     0.006456
      f-3     :     0.001038
      g0      :     0.000213  g :     0.000769
      g+1     :    -0.000006
      g-1     :    -0.000310
      g+2     :     0.000378
      g-2     :     0.000282
      g+3     :    -0.000052
      g-3     :    -0.000351
      g+4     :     0.000342
      g-4     :     0.000272
      h0      :    -0.000014  h :     0.000047
      h+1     :     0.000011
      h-1     :     0.000031
      h+2     :    -0.000022
      h-2     :    -0.000000
      h+3     :    -0.000013
      h-3     :     0.000020
      h+4     :     0.000040
      h-4     :     0.000002
      h+5     :     0.000003
      h-5     :    -0.000011
  2 H s       :     0.789148  s :     0.789148
      pz      :     0.053902  p :     0.092886
      px      :     0.020690
      py      :     0.018294
      dz2     :    -0.000508  d :     0.021230
      dxz     :     0.002488
      dyz     :     0.017463
      dx2y2   :     0.000643
      dxy     :     0.001145
      f0      :     0.002373  f :     0.004111
      f+1     :     0.000224
      f-1     :    -0.000357
      f+2     :     0.001161
      f-2     :     0.001101
      f+3     :    -0.000630
      f-3     :     0.000239
      g0      :    -0.000004  g :     0.000150
      g+1     :     0.000056
      g-1     :     0.000302
      g+2     :     0.000021
      g-2     :     0.000035
      g+3     :    -0.000028
      g-3     :     0.000009
      g+4     :    -0.000155
      g-4     :    -0.000085
  3 H s       :     0.937203  s :     0.937203
      pz      :     0.021236  p :     0.062499
      px      :     0.026429
      py      :     0.014835
      dz2     :    -0.000231  d :    -0.000261
      dxz     :    -0.003212
      dyz     :     0.004925
      dx2y2   :    -0.004378
      dxy     :     0.002636
      f0      :    -0.000994  f :    -0.000145
      f+1     :    -0.000406
      f-1     :    -0.000142
      f+2     :     0.000278
      f-2     :     0.001332
      f+3     :     0.000581
      f-3     :    -0.000795
      g0      :    -0.000030  g :     0.000238
      g+1     :    -0.000058
      g-1     :    -0.000000
      g+2     :     0.000019
      g-2     :    -0.000030
      g+3     :     0.000076
      g-3     :     0.000010
      g+4     :     0.000165
      g-4     :     0.000088
  4 H s       :     0.917787  s :     0.917787
      pz      :     0.027196  p :     0.054922
      px      :     0.021060
      py      :     0.006666
      dz2     :     0.000606  d :    -0.005011
      dxz     :    -0.000352
      dyz     :    -0.007843
      dx2y2   :    -0.001315
      dxy     :     0.003894
      f0      :    -0.003060  f :    -0.001479
      f+1     :    -0.000364
      f-1     :     0.000726
      f+2     :    -0.000835
      f-2     :    -0.000358
      f+3     :     0.001503
      f-3     :     0.000910
      g0      :     0.000014  g :    -0.000387
      g+1     :    -0.000085
      g-1     :    -0.000372
      g+2     :     0.000015
      g-2     :    -0.000005
      g+3     :    -0.000322
      g-3     :     0.000049
      g+4     :     0.000207
      g-4     :     0.000111

SPIN
  0 C s       :     0.021147  s :     0.021147
      pz      :     0.089348  p :     0.765394
      px      :     0.548700
      py      :     0.127345
      dz2     :     0.000743  d :    -0.010936
      dxz     :    -0.000250
      dyz     :    -0.001480
      dx2y2   :    -0.003966
      dxy     :    -0.005983
      f0      :     0.000460  f :     0.002318
      f+1     :     0.000389
      f-1     :     0.000105
      f+2     :    -0.000463
      f-2     :    -0.000058
      f+3     :     0.002205
      f-3     :    -0.000321
      g0      :     0.000025  g :     0.001847
      g+1     :    -0.000001
      g-1     :     0.000159
      g+2     :     0.000028
      g-2     :     0.000309
      g+3     :     0.000002
      g-3     :    -0.000004
      g+4     :     0.000033
      g-4     :     0.001296
      h0      :     0.000024  h :     0.000131
      h+1     :     0.000006
      h-1     :     0.000002
      h+2     :     0.000017
      h-2     :     0.000000
      h+3     :     0.000021
      h-3     :     0.000002
      h+4     :    -0.000010
      h-4     :    -0.000000
      h+5     :     0.000061
      h-5     :     0.000006
  1 C s       :     0.014784  s :     0.014784
      pz      :    -0.084651  p :    -0.066231
      px      :     0.027030
      py      :    -0.008609
      dz2     :     0.001057  d :     0.074227
      dxz     :     0.000076
      dyz     :    -0.000008
      dx2y2   :     0.003946
      dxy     :     0.069155
      f0      :     0.000177  f :     0.005871
      f+1     :    -0.000144
      f-1     :    -0.000377
      f+2     :     0.000318
      f-2     :     0.000017
      f+3     :     0.004611
      f-3     :     0.001268
      g0      :     0.000085  g :     0.000289
      g+1     :     0.000000
      g-1     :    -0.000111
      g+2     :     0.000150
      g-2     :     0.000144
      g+3     :     0.000020
      g-3     :    -0.000351
      g+4     :     0.000297
      g-4     :     0.000053
      h0      :     0.000005  h :    -0.000034
      h+1     :     0.000009
      h-1     :    -0.000006
      h+2     :    -0.000011
      h-2     :     0.000001
      h+3     :     0.000007
      h-3     :    -0.000042
      h+4     :    -0.000039
      h-4     :    -0.000003
      h+5     :     0.000063
      h-5     :    -0.000018
  2 H s       :     0.066961  s :     0.066961
      pz      :     0.003802  p :     0.025817
      px      :     0.011516
      py      :     0.010500
      dz2     :     0.001308  d :    -0.001336
      dxz     :    -0.000672
      dyz     :    -0.001094
      dx2y2   :    -0.002136
      dxy     :     0.001258
      f0      :     0.000037  f :    -0.001728
      f+1     :     0.000133
      f-1     :     0.000096
      f+2     :    -0.000616
      f-2     :    -0.000607
      f+3     :     0.000147
      f-3     :    -0.000918
      g0      :     0.000034  g :    -0.000260
      g+1     :     0.000025
      g-1     :    -0.000013
      g+2     :    -0.000074
      g-2     :     0.000064
      g+3     :    -0.000161
      g-3     :    -0.000011
      g+4     :    -0.000135
      g-4     :     0.000010
  3 H s       :     0.069086  s :     0.069086
      pz      :    -0.004178  p :    -0.003823
      px      :    -0.000059
      py      :     0.000414
      dz2     :    -0.001749  d :     0.003712
      dxz     :     0.000671
      dyz     :     0.001683
      dx2y2   :     0.003073
      dxy     :     0.000034
      f0      :     0.000273  f :     0.001057
      f+1     :    -0.000346
      f-1     :     0.000312
      f+2     :    -0.000047
      f-2     :     0.000963
      f+3     :     0.000975
      f-3     :    -0.001072
      g0      :    -0.000072  g :     0.000394
      g+1     :     0.000090
      g-1     :     0.000027
      g+2     :     0.000077
      g-2     :     0.000021
      g+3     :     0.000129
      g-3     :     0.000003
      g+4     :    -0.000040
      g-4     :     0.000158
  4 H s       :     0.033667  s :     0.033667
      pz      :    -0.000490  p :    -0.004658
      px      :    -0.001074
      py      :    -0.003094
      dz2     :     0.000253  d :     0.001708
      dxz     :    -0.001426
      dyz     :    -0.000412
      dx2y2   :     0.000792
      dxy     :     0.002500
      f0      :    -0.001263  f :     0.000623
      f+1     :    -0.000051
      f-1     :     0.000604
      f+2     :    -0.000195
      f-2     :     0.000446
      f+3     :    -0.000031
      f-3     :     0.001112
      g0      :    -0.000015  g :    -0.000026
      g+1     :    -0.000081
      g-1     :    -0.000124
      g+2     :    -0.000018
      g-2     :     0.000031
      g+3     :     0.000045
      g-3     :     0.000006
      g+4     :     0.000087
      g-4     :     0.000043


                     *******************************
                     * LOEWDIN POPULATION ANALYSIS *
                     *******************************

-------------------------------------------
LOEWDIN ATOMIC CHARGES AND SPIN POPULATIONS
-------------------------------------------
   0 C :    0.718337    0.570214
   1 C :    0.658516    0.152831
   2 H :   -0.463679    0.146557
   3 H :   -0.461055    0.067937
   4 H :   -0.452119    0.062462

----------------------------------------------------
LOEWDIN REDUCED ORBITAL CHARGES AND SPIN POPULATIONS
----------------------------------------------------
CHARGE
  0 C s       :     2.595889  s :     2.595889
      pz      :     0.620249  p :     2.205107
      px      :     0.638911
      py      :     0.945947
      dz2     :     0.036678  d :     0.330097
      dxz     :     0.000498
      dyz     :     0.053022
      dx2y2   :     0.082001
      dxy     :     0.157898
      f0      :     0.006901  f :     0.101606
      f+1     :     0.004178
      f-1     :     0.015044
      f+2     :     0.013416
      f-2     :     0.000170
      f+3     :     0.048048
      f-3     :     0.013849
      g0      :     0.002778  g :     0.036741
      g+1     :     0.000005
      g-1     :     0.003095
      g+2     :     0.003839
      g-2     :     0.004491
      g+3     :     0.000005
      g-3     :     0.002285
      g+4     :     0.003005
      g-4     :     0.017239
      h0      :     0.000409  h :     0.012222
      h+1     :     0.000413
      h-1     :     0.001888
      h+2     :     0.000728
      h-2     :     0.000049
      h+3     :     0.003011
      h-3     :     0.000855
      h+4     :     0.000222
      h-4     :     0.000012
      h+5     :     0.004277
      h-5     :     0.000359
  1 C s       :     2.516550  s :     2.516550
      pz      :     0.606643  p :     2.297826
      px      :     0.795659
      py      :     0.895525
      dz2     :     0.036186  d :     0.383618
      dxz     :     0.000031
      dyz     :     0.052930
      dx2y2   :     0.116768
      dxy     :     0.177704
      f0      :     0.006551  f :     0.101464
      f+1     :     0.006087
      f-1     :     0.013970
      f+2     :     0.015561
      f-2     :     0.000023
      f+3     :     0.035991
      f-3     :     0.023281
      g0      :     0.002407  g :     0.030339
      g+1     :     0.000002
      g-1     :     0.003171
      g+2     :     0.004453
      g-2     :     0.002939
      g+3     :     0.000005
      g-3     :     0.002194
      g+4     :     0.004017
      g-4     :     0.011151
      h0      :     0.000780  h :     0.011688
      h+1     :     0.000239
      h-1     :     0.002309
      h+2     :     0.000681
      h-2     :     0.000000
      h+3     :     0.001307
      h-3     :     0.001767
      h+4     :     0.000237
      h-4     :     0.000002
      h+5     :     0.003526
      h-5     :     0.000840
  2 H s       :     0.698277  s :     0.698277
      pz      :     0.075961  p :     0.323998
      px      :     0.126944
      py      :     0.121093
      dz2     :     0.023680  d :     0.242284
      dxz     :     0.025048
      dyz     :     0.049940
      dx2y2   :     0.084233
      dxy     :     0.059383
      f0      :     0.013718  f :     0.123726
      f+1     :     0.005454
      f-1     :     0.016298
      f+2     :     0.005323
      f-2     :     0.014944
      f+3     :     0.032020
      f-3     :     0.035968
      g0      :     0.004783  g :     0.075394
      g+1     :     0.001858
      g-1     :     0.009166
      g+2     :     0.007799
      g-2     :     0.005959
      g+3     :     0.005790
      g-3     :     0.000507
      g+4     :     0.024606
      g-4     :     0.014925
  3 H s       :     0.657873  s :     0.657873
      pz      :     0.082643  p :     0.326891
      px      :     0.136718
      py      :     0.107529
      dz2     :     0.028494  d :     0.267838
      dxz     :     0.042883
      dyz     :     0.033142
      dx2y2   :     0.097864
      dxy     :     0.065455
      f0      :     0.013759  f :     0.135774
      f+1     :     0.010177
      f-1     :     0.014605
      f+2     :     0.001258
      f-2     :     0.015800
      f+3     :     0.044815
      f-3     :     0.035360
      g0      :     0.005286  g :     0.072679
      g+1     :     0.003149
      g-1     :     0.007268
      g+2     :     0.009297
      g-2     :     0.004484
      g+3     :     0.003735
      g-3     :     0.000116
      g+4     :     0.028890
      g-4     :     0.010455
  4 H s       :     0.671939  s :     0.671939
      pz      :     0.081178  p :     0.321453
      px      :     0.136418
      py      :     0.103857
      dz2     :     0.027266  d :     0.262954
      dxz     :     0.044338
      dyz     :     0.031859
      dx2y2   :     0.093316
      dxy     :     0.066176
      f0      :     0.013685  f :     0.128292
      f+1     :     0.010363
      f-1     :     0.011159
      f+2     :     0.001085
      f-2     :     0.017090
      f+3     :     0.046411
      f-3     :     0.028499
      g0      :     0.004411  g :     0.067480
      g+1     :     0.003331
      g-1     :     0.007272
      g+2     :     0.006556
      g-2     :     0.005988
      g+3     :     0.004101
      g-3     :     0.000177
      g+4     :     0.021052
      g-4     :     0.014592

SPIN
  0 C s       :     0.044271  s :     0.044271
      pz      :     0.044697  p :     0.502819
      px      :     0.387903
      py      :     0.070219
      dz2     :     0.001635  d :     0.020662
      dxz     :     0.000278
      dyz     :    -0.007694
      dx2y2   :     0.001374
      dxy     :     0.025069
      f0      :    -0.000447  f :    -0.000359
      f+1     :     0.000284
      f-1     :     0.000114
      f+2     :    -0.002307
      f-2     :     0.000093
      f+3     :     0.001962
      f-3     :    -0.000059
      g0      :     0.000047  g :     0.001980
      g+1     :    -0.000001
      g-1     :    -0.000283
      g+2     :     0.000047
      g-2     :     0.000746
      g+3     :    -0.000000
      g-3     :    -0.000203
      g+4     :     0.000005
      g-4     :     0.001621
      h0      :    -0.000024  h :     0.000840
      h+1     :     0.000053
      h-1     :     0.000052
      h+2     :    -0.000063
      h-2     :     0.000002
      h+3     :     0.000386
      h-3     :     0.000006
      h+4     :    -0.000021
      h-4     :    -0.000003
      h+5     :     0.000441
      h-5     :     0.000011
  1 C s       :     0.002148  s :     0.002148
      pz      :    -0.037058  p :    -0.033841
      px      :    -0.001458
      py      :     0.004675
      dz2     :     0.003212  d :     0.144414
      dxz     :    -0.000010
      dyz     :     0.006203
      dx2y2   :     0.008198
      dxy     :     0.126810
      f0      :     0.001144  f :     0.030537
      f+1     :     0.000687
      f-1     :     0.000834
      f+2     :     0.001809
      f-2     :    -0.000007
      f+3     :     0.024270
      f-3     :     0.001798
      g0      :     0.000052  g :     0.007643
      g+1     :    -0.000001
      g-1     :     0.000420
      g+2     :     0.000133
      g-2     :     0.001653
      g+3     :    -0.000004
      g-3     :     0.000254
      g+4     :     0.000361
      g-4     :     0.004774
      h0      :     0.000094  h :     0.001931
      h+1     :     0.000016
      h-1     :     0.000050
      h+2     :     0.000118
      h-2     :     0.000000
      h+3     :     0.000414
      h-3     :     0.000080
      h+4     :     0.000011
      h-4     :    -0.000002
      h+5     :     0.000883
      h-5     :     0.000265
  2 H s       :     0.009090  s :     0.009090
      pz      :     0.004918  p :     0.073262
      px      :     0.058561
      py      :     0.009782
      dz2     :     0.002480  d :     0.048299
      dxz     :     0.002516
      dyz     :     0.001699
      dx2y2   :     0.037070
      dxy     :     0.004534
      f0      :     0.000249  f :     0.011905
      f+1     :     0.000534
      f-1     :     0.000316
      f+2     :    -0.000783
      f-2     :     0.000529
      f+3     :     0.006202
      f-3     :     0.004857
      g0      :     0.000085  g :     0.004001
      g+1     :     0.000063
      g-1     :    -0.000498
      g+2     :     0.000097
      g-2     :     0.000151
      g+3     :    -0.000493
      g-3     :    -0.000170
      g+4     :     0.000701
      g-4     :     0.004065
  3 H s       :     0.034674  s :     0.034674
      pz      :    -0.005389  p :    -0.002333
      px      :    -0.000160
      py      :     0.003216
      dz2     :     0.001323  d :     0.003661
      dxz     :    -0.003184
      dyz     :    -0.000533
      dx2y2   :     0.000170
      dxy     :     0.005885
      f0      :     0.000137  f :     0.016352
      f+1     :     0.000387
      f-1     :     0.000340
      f+2     :     0.000138
      f-2     :     0.000007
      f+3     :     0.010264
      f-3     :     0.005079
      g0      :     0.000205  g :     0.015582
      g+1     :     0.000117
      g-1     :     0.000677
      g+2     :     0.000116
      g-2     :     0.001904
      g+3     :     0.000505
      g-3     :    -0.000035
      g+4     :     0.010630
      g-4     :     0.001464
  4 H s       :     0.021453  s :     0.021453
      pz      :    -0.005255  p :    -0.001470
      px      :    -0.000436
      py      :     0.004221
      dz2     :     0.002091  d :     0.003556
      dxz     :    -0.003247
      dyz     :    -0.000298
      dx2y2   :     0.003098
      dxy     :     0.001913
      f0      :     0.000224  f :     0.019806
      f+1     :     0.000132
      f-1     :     0.001038
      f+2     :     0.000153
      f-2     :    -0.000194
      f+3     :     0.001859
      f-3     :     0.016594
      g0      :     0.000375  g :     0.019117
      g+1     :     0.000055
      g-1     :     0.000756
      g+2     :     0.000856
      g-2     :     0.000685
      g+3     :     0.000421
      g-3     :    -0.000084
      g+4     :     0.014740
      g-4     :     0.001312


                      *****************************
                      * MAYER POPULATION ANALYSIS *
                      *****************************

  NA   - Mulliken gross atomic population
  ZA   - Total nuclear charge
  QA   - Mulliken gross atomic charge
  VA   - Mayer's total valence
  BVA  - Mayer's bonded valence
  FA   - Mayer's free valence

  ATOM       NA         ZA         QA         VA         BVA        FA
  0 C      6.0766     6.0000    -0.0766     3.8282     3.1738     0.6544
  1 C      6.0505     6.0000    -0.0505     4.1122     4.0973     0.0150
  2 H      0.9075     1.0000     0.0925     1.0781     1.0797    -0.0016
  3 H      0.9995     1.0000     0.0005     1.1573     1.1492     0.0081
  4 H      0.9658     1.0000     0.0342     1.0747     1.0749    -0.0002

  Mayer bond orders larger than 0.1
B(  0-C ,  1-C ) :   2.0339 B(  0-C ,  2-H ) :   0.9951 B(  0-C ,  3-H ) :   0.1173 
B(  1-C ,  3-H ) :   0.9911 B(  1-C ,  4-H ) :   0.9824 

-------
TIMINGS
-------

Total SCF time: 0 days 0 hours 58 min 49 sec 

Total time                  ....    3529.829 sec
Sum of individual times     ....    3528.437 sec  (100.0%)

Fock matrix formation       ....    3514.912 sec  ( 99.6%)
  XC integration            ....     116.391 sec  (  3.3% of F)
    Basis function eval.    ....       6.155 sec  (  5.3% of XC)
    Density eval.           ....      32.323 sec  ( 27.8% of XC)
    XC-Functional eval.     ....       0.554 sec  (  0.5% of XC)
    XC-Potential eval.      ....      75.967 sec  ( 65.3% of XC)
Diagonalization             ....       4.591 sec  (  0.1%)
Density matrix formation    ....       0.057 sec  (  0.0%)
Population analysis         ....       0.281 sec  (  0.0%)
Initial guess               ....       3.690 sec  (  0.1%)
Orbital Transformation      ....       0.000 sec  (  0.0%)
Orbital Orthonormalization  ....       0.000 sec  (  0.0%)
DIIS solution               ....       2.309 sec  (  0.1%)
Grid generation             ....       2.597 sec  (  0.1%)

-------------------------   --------------------
FINAL SINGLE POINT ENERGY       -77.827429409650
-------------------------   --------------------


                            ***************************************
                            *     ORCA property calculations      *
                            ***************************************

                                    ---------------------
                                    Active property flags
                                    ---------------------
   (+) Dipole Moment
   (+) Polarizability


------------------------------------------------------------------------------
                       ORCA ELECTRIC PROPERTIES CALCULATION
------------------------------------------------------------------------------

Dipole Moment Calculation                       ... on
Quadrupole Moment Calculation                   ... off
Polarizability Calculation                      ... Analytic (CP-SCF)
GBWName                                         ... c2h3_pbe.gbw
Electron density file                           ... c2h3_pbe.scfp.tmp
The origin for moment calculation is the CENTER OF MASS  = ( 0.040636,  0.055371  0.000000)

-------------
DIPOLE MOMENT
-------------
                                X             Y             Z
Electronic contribution:      0.36732       0.68504      -0.00000
Nuclear contribution   :     -0.61029      -0.83170       0.00000
                        -----------------------------------------
Total Dipole Moment    :     -0.24297      -0.14666      -0.00000
                        -----------------------------------------
Magnitude (a.u.)       :      0.28380
Magnitude (Debye)      :      0.72137



--------------------
Rotational spectrum 
--------------------
 
Rotational constants in cm-1:     7.821103     1.080428     0.949290 
Rotational constants in MHz : 234470.771346 32390.407658 28459.005900 

 Dipole components along the rotational axes: 
x,y,z [a.u.] :     0.126236     0.254181    -0.000000 
x,y,z [Debye]:     0.320865     0.646077    -0.000000 

 
Transforming and storing MO dipole integrals   ... done

                ... starting polarizability calculation

Opening the Dipole integral file               ... (c2h3_pbe.dmo.tmp) done
Reading Dipole-MO integrals                    ... done
Solving CP-SCF equations                       ... 

           ************************************************************
           *        Program running with 4 parallel MPI-processes     *
           *              working on a common directory               *
           ************************************************************

------------------------------------------------------------------------------
                           ORCA CP-SCF CALCULATION
------------------------------------------------------------------------------

Input orbitals are from        ... c2h3_pbe.gbw
Input Perturbation             ... c2h3_pbe.cpv.tmp
Wavefunction output            ... c2h3_pbe.cpu.tmp
Perturbation mode              ... Real perturbation (singlet)
Solver                         ... POPLE
Max. number of iterations      ... 200
Convergence tolerance          ... 1.000e-06
Integral handling              ... Direct
Number of perturbations        ... 3
Number of operators            ... 2
Orbital ranges used for CP-SCF:
 Operator 0:  Orbitals   0...  7  to   8...553
 Operator 1:  Orbitals   0...  6  to   7...553
DFT calculation                         ... on
Exchange functional (SCF)               ... PBE
Exchange functional (CP-SCF)            ... PBE
   PBE kappa parameter  XKappa (SCF)    ...  0.804000
   PBE kappa parameter  XKappa (CP-SCF) ...  0.804000
   PBE mue parameter   XMuePBE (SCF)    ...  0.219520
   PBE mue parameter   XMuePBE (CP-SCF) ...  0.219520
Correlation functional (SCF)            ... PBE
Correlation functional (CP-SCF)         ... PBE
   PBE beta parameter CBetaPBE (SCF)    ...  0.066725
   PBE beta parameter CBetaPBE (CP-SCF) ...  0.066725
 LDA part of GGA corr.  LDAOpt (SCF)    ... PW91-LDA
 LDA part of GGA corr.  LDAOpt (CP-SCF) ... PW91-LDA
Variables per vector in CP-SCF ... 8197
Number of vectors sought       ... 3
Recalculating density on grid  ... done
Calculating the xc-kernel      ... done
     CP-SCF ITERATION   0: 
     CP-SCF ITERATION   1:      0.447217276090
     CP-SCF ITERATION   2:      0.027419926692
     CP-SCF ITERATION   3:      0.003847395256
     CP-SCF ITERATION   4:      0.000401127639
     CP-SCF ITERATION   5:      0.000075650714
     CP-SCF ITERATION   6:      0.000004479691
     CP-SCF ITERATION   7:      0.000000270460
done
Reading CP-SCF coefficients                    ... done
Doing the polarizability tensor   ... done
Cleaning up                                    ... done

-------------------------
THE POLARIZABILITY TENSOR
-------------------------

The raw cartesian tensor (atomic units):
   24.95739     -0.32503     -0.00000  
   -0.32503     36.20370     -0.00000  
   -0.00000     -0.00000     22.55991  
diagonalized tensor: 
   22.55991     24.94800     36.21308  

    0.00000      0.99958     -0.02887  
    0.00000      0.02887      0.99958  
    1.00000     -0.00000     -0.00000  

Isotropic polarizability :  27.90700


Timings for individual modules:

Sum of individual times         ...     6422.269 sec (= 107.038 min)
GTO integral calculation        ...        2.421 sec (=   0.040 min)   0.0 %
SCF iterations                  ...     3530.166 sec (=  58.836 min)  55.0 %
Solution of CP-SCF eqns.        ...     2889.682 sec (=  48.161 min)  45.0 %
                             ****ORCA TERMINATED NORMALLY****
TOTAL RUN TIME: 0 days 1 hours 47 minutes 3 seconds 510 msec
