
                                 *****************
                                 * O   R   C   A *
                                 *****************

           --- An Ab Initio, DFT and Semiempirical electronic structure package ---

                  #######################################################
                  #                        -***-                        #
                  #          Department of theory and spectroscopy      #
                  #               Directorship: Frank Neese             #
                  #        Max Planck Institute fuer Kohlenforschung    #
                  #                Kaiser Wilhelm Platz 1               #
                  #                 D-45470 Muelheim/Ruhr               #
                  #                      Germany                        #
                  #                                                     #
                  #                  All rights reserved                #
                  #                        -***-                        #
                  #######################################################


                         Program Version 4.1.2  - RELEASE  -


 With contributions from (in alphabetic order):
   Daniel Aravena         : Magnetic Properties
   Michael Atanasov       : Ab Initio Ligand Field Theory
   Alexander A. Auer      : GIAO ZORA
   Ute Becker             : Parallelization
   Giovanni Bistoni       : ED, Open-shell LED
   Martin Brehm           : Molecular dynamics
   Dmytro Bykov           : SCF Hessian
   Vijay G. Chilkuri      : MRCI spin determinant printing
   Dipayan Datta          : RHF DLPNO-CCSD density
   Achintya Kumar Dutta   : EOM-CC, STEOM-CC
   Dmitry Ganyushin       : Spin-Orbit,Spin-Spin,Magnetic field MRCI
   Miquel Garcia          : C-PCM Hessian
   Yang Guo               : DLPNO-NEVPT2, CIM, IAO-localization
   Andreas Hansen         : Spin unrestricted coupled pair/coupled cluster methods
   Benjamin Helmich-Paris : CASSCF linear response (MC-RPA)
   Lee Huntington         : MR-EOM, pCC
   Robert Izsak           : Overlap fitted RIJCOSX, COSX-SCS-MP3, EOM
   Christian Kollmar      : KDIIS, OOCD, Brueckner-CCSD(T), CCSD density
   Simone Kossmann        : Meta GGA functionals, TD-DFT gradient, OOMP2, MP2 Hessian
   Martin Krupicka        : AUTO-CI
   Lucas Lang             : DCDCAS
   Dagmar Lenk            : GEPOL surface, SMD
   Dimitrios Liakos       : Extrapolation schemes; parallel MDCI
   Dimitrios Manganas     : ROCIS; embedding schemes
   Dimitrios Pantazis     : SARC Basis sets
   Taras Petrenko         : DFT Hessian,TD-DFT gradient, ASA, ECA, R-Raman, ABS, FL, XAS/XES, NRVS
   Peter Pinski           : DLPNO-MP2, DLPNO-MP2 Gradient
   Christoph Reimann      : Effective Core Potentials
   Marius Retegan         : Local ZFS, SOC
   Christoph Riplinger    : Optimizer, TS searches, QM/MM, DLPNO-CCSD(T), (RO)-DLPNO pert. Triples
   Tobias Risthaus        : Range-separated hybrids, TD-DFT gradient, RPA, STAB
   Michael Roemelt        : Restricted open shell CIS
   Masaaki Saitow         : Open-shell DLPNO
   Barbara Sandhoefer     : DKH picture change effects
   Avijit Sen             : IP-ROCIS
   Kantharuban Sivalingam : CASSCF convergence, NEVPT2, FIC-MRCI
   Bernardo de Souza      : ESD, SOC TD-DFT
   Georgi Stoychev        : AutoAux, RI-MP2 NMR
   Willem Van den Heuvel  : Paramagnetic NMR
   Boris Wezisla          : Elementary symmetry handling
   Frank Wennmohs         : Technical directorship


 We gratefully acknowledge several colleagues who have allowed us to
 interface, adapt or use parts of their codes:
   Stefan Grimme, W. Hujo, H. Kruse,             : VdW corrections, initial TS optimization,
                  C. Bannwarth                     DFT functionals, gCP, sTDA/sTD-DF
   Ed Valeev                                     : LibInt (2-el integral package), F12 methods
   Garnet Chan, S. Sharma, J. Yang, R. Olivares  : DMRG
   Ulf Ekstrom                                   : XCFun DFT Library
   Mihaly Kallay                                 : mrcc  (arbitrary order and MRCC methods)
   Andreas Klamt, Michael Diedenhofen            : otool_cosmo (COSMO solvation model)
   Jiri Pittner, Ondrej Demel                    : Mk-CCSD
   Frank Weinhold                                : gennbo (NPA and NBO analysis)
   Christopher J. Cramer and Donald G. Truhlar   : smd solvation model
   Lars Goerigk                                  : TD-DFT with DH, B97 family of functionals
   V. Asgeirsson, H. Jonsson                     : NEB implementation
   FAccTs GmbH                                   : IRC, NEB, NEB-TS, Multilevel


 Your calculation uses the libint2 library for the computation of 2-el integrals
 For citations please refer to: http://libint.valeyev.net

 This ORCA versions uses:
   CBLAS   interface :  Fast vector & matrix operations
   LAPACKE interface :  Fast linear algebra routines
   SCALAPACK package :  Parallel linear algebra routines


----- Orbital basis set information -----
Your calculation utilizes the basis: aug-pc-4
   H, C-F              : F. Jensen, J. Chem. Phys. 115, 9113 (2001).
                         F. Jensen, J. Chem. Phys. 116, 7372 (2002).
                         F. Jensen, J. Chem. Phys. 117, 9234 (2002).
   Si-Cl               : F. Jensen, T. Helgaker, J. Chem. Phys. 121, 3463 (2004).
   He-B, Ne-Mg, Al, Ar : F. Jensen, J. Phys. Chem. A 111, 11198 (2007).
   K, Ca, Ga-Kr        : F. Jensen, J. Chem. Phys. 136, 094110 (2012).
   Sc-Zn               : F. Jensen, J. Chem. Phys. 138, 014107 (2013).

================================================================================
                                        WARNINGS
                       Please study these warnings very carefully!
================================================================================


INFO   : the flag for use of LIBINT has been found!

================================================================================
                                       INPUT FILE
================================================================================
NAME = c2h4_pbe.inp
|  1> !uks pbe nori aug-pc-4 grid7 nofinalgrid verytightscf
|  2> 
|  3> %maxcore 1500
|  4> 
|  5> %pal nprocs 4 end
|  6> 
|  7> %scf
|  8> 	maxiter 200
|  9> end
| 10> %elprop
| 11> 	dipole true
| 12> 	 polar 1
| 13> 	 maxiter 200
| 14> end
| 15> 
| 16> * xyz 0 1
| 17> C 0.0000 0.0000 0.6695
| 18> C 0.0000 0.0000 -0.6695
| 19> H 0.0000 0.9289 1.2321
| 20> H 0.0000 -0.9289 1.2321
| 21> H 0.0000 0.9289 -1.2321
| 22> H 0.0000 -0.9289 -1.2321
| 23> *
| 24> 
| 25>                          ****END OF INPUT****
================================================================================

                       ****************************
                       * Single Point Calculation *
                       ****************************

---------------------------------
CARTESIAN COORDINATES (ANGSTROEM)
---------------------------------
  C      0.000000    0.000000    0.669500
  C      0.000000    0.000000   -0.669500
  H      0.000000    0.928900    1.232100
  H      0.000000   -0.928900    1.232100
  H      0.000000    0.928900   -1.232100
  H      0.000000   -0.928900   -1.232100

----------------------------
CARTESIAN COORDINATES (A.U.)
----------------------------
  NO LB      ZA    FRAG     MASS         X           Y           Z
   0 C     6.0000    0    12.011    0.000000    0.000000    1.265172
   1 C     6.0000    0    12.011    0.000000    0.000000   -1.265172
   2 H     1.0000    0     1.008    0.000000    1.755367    2.328332
   3 H     1.0000    0     1.008    0.000000   -1.755367    2.328332
   4 H     1.0000    0     1.008    0.000000    1.755367   -2.328332
   5 H     1.0000    0     1.008    0.000000   -1.755367   -2.328332

--------------------------------
INTERNAL COORDINATES (ANGSTROEM)
--------------------------------
 C      0   0   0     0.000000000000     0.00000000     0.00000000
 C      1   0   0     1.339000000000     0.00000000     0.00000000
 H      1   2   0     1.085989857227   121.20172225     0.00000000
 H      1   2   3     1.085989857227   121.20172225   180.00000000
 H      2   1   3     1.085989857227   121.20172225     0.00000000
 H      2   1   3     1.085989857227   121.20172225   180.00000000

---------------------------
INTERNAL COORDINATES (A.U.)
---------------------------
 C      0   0   0     0.000000000000     0.00000000     0.00000000
 C      1   0   0     2.530343293321     0.00000000     0.00000000
 H      1   2   0     2.052223414375   121.20172225     0.00000000
 H      1   2   3     2.052223414375   121.20172225   180.00000000
 H      2   1   3     2.052223414375   121.20172225     0.00000000
 H      2   1   3     2.052223414375   121.20172225   180.00000000

---------------------
BASIS SET INFORMATION
---------------------
There are 2 groups of distinct atoms

 Group   1 Type C   : 28s12p7d4f3g2h contracted to 9s8p7d4f3g2h pattern {11101111111/51111111/1111111/1111/111/11}
 Group   2 Type H   : 12s7p4d3f2g contracted to 8s7p4d3f2g pattern {51111111/1111111/1111/111/11}

Atom   0C    basis set group =>   1
Atom   1C    basis set group =>   1
Atom   2H    basis set group =>   2
Atom   3H    basis set group =>   2
Atom   4H    basis set group =>   2
Atom   5H    basis set group =>   2


           ************************************************************
           *        Program running with 4 parallel MPI-processes     *
           *              working on a common directory               *
           ************************************************************
------------------------------------------------------------------------------
                           ORCA GTO INTEGRAL CALCULATION
------------------------------------------------------------------------------

                         BASIS SET STATISTICS AND STARTUP INFO

 # of primitive gaussian shells          ...  224
 # of primitive gaussian functions       ...  720
 # of contracted shells                  ...  162
 # of contracted basis functions         ...  642
 Highest angular momentum                ...    5
 Maximum contraction depth               ...   11
 Integral package used                   ... LIBINT
 Integral threshhold            Thresh   ...  1.000e-12
 Primitive cut-off              TCut     ...  1.000e-14


------------------------------ INTEGRAL EVALUATION ----------------------------


 * One electron integrals 
 Pre-screening matrix                    ... done
 Shell pair data                         ... done (   0.004 sec)



           ************************************************************
           *        Program running with 4 parallel MPI-processes     *
           *              working on a common directory               *
           ************************************************************
-------------------------------------------------------------------------------
                                 ORCA SCF
-------------------------------------------------------------------------------

------------
SCF SETTINGS
------------
Hamiltonian:
 Density Functional     Method          .... DFT(GTOs)
 Exchange Functional    Exchange        .... PBE
   PBE kappa parameter   XKappa         ....  0.804000
   PBE mue parameter    XMuePBE         ....  0.219520
 Correlation Functional Correlation     .... PBE
   PBE beta parameter  CBetaPBE         ....  0.066725
 LDA part of GGA corr.  LDAOpt          .... PW91-LDA
 Gradients option       PostSCFGGA      .... off
   Density functional embedding theory  .... OFF
   NL short-range parameter             ....  6.400000


General Settings:
 Integral files         IntName         .... c2h4_pbe
 Hartree-Fock type      HFTyp           .... UHF
 Total Charge           Charge          ....    0
 Multiplicity           Mult            ....    1
 Number of Electrons    NEL             ....   16
 Basis Dimension        Dim             ....  642
 Nuclear Repulsion      ENuc            ....     33.2650903165 Eh

Convergence Acceleration:
 DIIS                   CNVDIIS         .... on
   Start iteration      DIISMaxIt       ....    12
   Startup error        DIISStart       ....  0.200000
   # of expansion vecs  DIISMaxEq       ....     5
   Bias factor          DIISBfac        ....   1.050
   Max. coefficient     DIISMaxC        ....  10.000
 Newton-Raphson         CNVNR           .... off
 SOSCF                  CNVSOSCF        .... off
 Level Shifting         CNVShift        .... on
   Level shift para.    LevelShift      ....    0.2500
   Turn off err/grad.   ShiftErr        ....    0.0010
 Zerner damping         CNVZerner       .... off
 Static damping         CNVDamp         .... on
   Fraction old density DampFac         ....    0.7000
   Max. Damping (<1)    DampMax         ....    0.9800
   Min. Damping (>=0)   DampMin         ....    0.0000
   Turn off err/grad.   DampErr         ....    0.1000
 Fernandez-Rico         CNVRico         .... off

SCF Procedure:
 Maximum # iterations   MaxIter         ....   200
 SCF integral mode      SCFMode         .... Direct
   Integral package                     .... LIBINT
 Reset frequency        DirectResetFreq ....    20
 Integral Threshold     Thresh          ....  1.000e-12 Eh
 Primitive CutOff       TCut            ....  1.000e-14 Eh

Convergence Tolerance:
 Convergence Check Mode ConvCheckMode   .... Total+1el-Energy
 Convergence forced     ConvForced      .... 0
 Energy Change          TolE            ....  1.000e-09 Eh
 1-El. energy change                    ....  1.000e-06 Eh
 DIIS Error             TolErr          ....  1.000e-08


Diagonalization of the overlap matrix:
Smallest eigenvalue                        ... 5.175e-09
Time for diagonalization                   ...    0.169 sec
Threshold for overlap eigenvalues          ... 1.000e-08
Number of eigenvalues below threshold      ... 1
Time for construction of square roots      ...    0.084 sec
Total time needed                          ...    0.255 sec

-------------------
DFT GRID GENERATION
-------------------

General Integration Accuracy     IntAcc      ...  5.670
Radial Grid Type                 RadialGrid  ... Gauss-Chebyshev
Angular Grid (max. acc.)         AngularGrid ... Lebedev-770
Angular grid pruning method      GridPruning ... 3 (G Style)
Weight generation scheme         WeightScheme... Becke
Basis function cutoff            BFCut       ...    1.0000e-12
Integration weight cutoff        WCut        ...    1.0000e-14
Grids for H and He will be reduced by one unit

# of grid points (after initial pruning)     ... 121412 (   0.0 sec)
# of grid points (after weights+screening)   ... 116994 (   0.0 sec)
nearest neighbour list constructed           ...    0.0 sec
Grid point re-assignment to atoms done       ...    0.0 sec
Grid point division into batches done        ...    2.1 sec
Reduced shell lists constructed in    2.7 sec

Total number of grid points                  ...   116994
Total number of batches                      ...     1830
Average number of points per batch           ...       63
Average number of grid points per atom       ...    19499
Average number of shells per batch           ...   135.03 (83.35%)
Average number of basis functions per batch  ...   549.45 (85.58%)
Average number of large shells per batch     ...   123.27 (91.29%)
Average number of large basis fcns per batch ...   505.06 (91.92%)
Maximum spatial batch extension              ...  20.36, 13.74, 15.34 au
Average spatial batch extension              ...   0.34,  0.29,  0.29 au

Time for grid setup =    2.816 sec

------------------------------
INITIAL GUESS: MODEL POTENTIAL
------------------------------
Loading Hartree-Fock densities                     ... done
Calculating cut-offs                               ... done
Setting up the integral package                    ... done
Initializing the effective Hamiltonian             ... done
Starting the Coulomb interaction                   ... done (   0.1 sec)
Reading the grid                                   ... done
Mapping shells                                     ... done
Starting the XC term evaluation                    ... done (   4.9 sec)
  promolecular density results
     # of electrons  =     15.998041415
     EX              =    -11.349924712
     EC              =     -0.488110094
     EX+EC           =    -11.838034806
Transforming the Hamiltonian                       ... done (   0.1 sec)
Diagonalizing the Hamiltonian                      ... done (   0.1 sec)
Back transforming the eigenvectors                 ... done (   0.0 sec)
Now organizing SCF variables                       ... done
                      ------------------
                      INITIAL GUESS DONE (   8.1 sec)
                      ------------------
--------------
SCF ITERATIONS
--------------
ITER       Energy         Delta-E        Max-DP      RMS-DP      [F,P]     Damp
               ***  Starting incremental Fock matrix formation  ***
  0    -78.4310095838   0.000000000000 0.02143991  0.00016681  0.1680053 0.7000
  1    -78.4692224166  -0.038212832788 0.01257746  0.00010218  0.0795994 0.7000
                               ***Turning on DIIS***
  2    -78.4830589426  -0.013836526018 0.01020370  0.00013920  0.0245564 0.0000
  3    -78.5008163002  -0.017757357518 0.00864095  0.00006499  0.0507663 0.0000
  4    -78.5081641769  -0.007347876762 0.00216116  0.00002282  0.0119686 0.0000
  5    -78.5086228972  -0.000458720308 0.00036140  0.00000481  0.0029789 0.0000
  6    -78.5086600676  -0.000037170414 0.00030452  0.00000309  0.0011026 0.0000
  7    -78.5086641477  -0.000004080035 0.00023825  0.00000272  0.0004645 0.0000
  8    -78.5086649391  -0.000000791377 0.00034347  0.00000180  0.0000267 0.0000
  9    -78.5086649402  -0.000000001160 0.00017214  0.00000169  0.0000122 0.0000
 10    -78.5086649405  -0.000000000260 0.00075751  0.00000611  0.0000003 0.0000
                 **** Energy Check signals convergence ****

               *****************************************************
               *                     SUCCESS                       *
               *           SCF CONVERGED AFTER  11 CYCLES          *
               *****************************************************


----------------
TOTAL SCF ENERGY
----------------

Total Energy       :          -78.50866494 Eh           -2136.32938 eV

Components:
Nuclear Repulsion  :           33.26509032 Eh             905.18913 eV
Electronic Energy  :         -111.77375526 Eh           -3041.51851 eV
One Electron Energy:         -170.14730943 Eh           -4629.94367 eV
Two Electron Energy:           58.37355417 Eh            1588.42516 eV

Virial components:
Potential Energy   :         -156.63117016 Eh           -4262.15082 eV
Kinetic Energy     :           78.12250522 Eh            2125.82144 eV
Virial Ratio       :            2.00494300


DFT components:
N(Alpha)           :        8.000000019048 electrons
N(Beta)            :        8.000000019048 electrons
N(Total)           :       16.000000038095 electrons
E(X)               :      -11.676747734618 Eh       
E(C)               :       -0.493603823255 Eh       
E(XC)              :      -12.170351557873 Eh       
DFET-embed. en.    :        0.000000000000 Eh       

---------------
SCF CONVERGENCE
---------------

  Last Energy change         ...   -1.1752e-11  Tolerance :   1.0000e-09
  Last MAX-Density change    ...    8.5197e-04  Tolerance :   1.0000e-08
  Last RMS-Density change    ...    1.0118e-05  Tolerance :   1.0000e-09
  Last DIIS Error            ...    3.2971e-08  Tolerance :   1.0000e-08

             **** THE GBW FILE WAS UPDATED (c2h4_pbe.gbw) ****
             **** DENSITY FILE WAS UPDATED (c2h4_pbe.scfp.tmp) ****
             **** ENERGY FILE WAS UPDATED (c2h4_pbe.en.tmp) ****
----------------------
UHF SPIN CONTAMINATION
----------------------

Warning: in a DFT calculation there is little theoretical justification to 
         calculate <S**2> as in Hartree-Fock theory. We will do it anyways
         but you should keep in mind that the values have only limited relevance

Expectation value of <S**2>     :     0.000000
Ideal value S*(S+1) for S=0.0   :     0.000000
Deviation                       :     0.000000

----------------
ORBITAL ENERGIES
----------------
                 SPIN UP ORBITALS
  NO   OCC          E(Eh)            E(eV) 
   0   1.0000      -9.887300      -269.0471 
   1   1.0000      -9.886642      -269.0292 
   2   1.0000      -0.689753       -18.7691 
   3   1.0000      -0.523166       -14.2361 
   4   1.0000      -0.422720       -11.5028 
   5   1.0000      -0.372323       -10.1314 
   6   1.0000      -0.315091        -8.5741 
   7   1.0000      -0.247730        -6.7411 
   8   0.0000      -0.041226        -1.1218 
   9   0.0000      -0.011826        -0.3218 
  10   0.0000       0.005144         0.1400 
  11   0.0000       0.008008         0.2179 
  12   0.0000       0.017196         0.4679 
  13   0.0000       0.031945         0.8693 
  14   0.0000       0.032122         0.8741 
  15   0.0000       0.039112         1.0643 
  16   0.0000       0.042436         1.1548 
  17   0.0000       0.044024         1.1980 
  18   0.0000       0.052585         1.4309 
  19   0.0000       0.054363         1.4793 
  20   0.0000       0.055439         1.5086 
  21   0.0000       0.060817         1.6549 
  22   0.0000       0.064555         1.7566 
  23   0.0000       0.069515         1.8916 
  24   0.0000       0.076832         2.0907 
  25   0.0000       0.084137         2.2895 
  26   0.0000       0.100273         2.7286 
  27   0.0000       0.102293         2.7835 
  28   0.0000       0.106140         2.8882 
  29   0.0000       0.107504         2.9253 
  30   0.0000       0.111634         3.0377 
  31   0.0000       0.116629         3.1736 
  32   0.0000       0.120180         3.2703 
  33   0.0000       0.127171         3.4605 
  34   0.0000       0.131443         3.5767 
  35   0.0000       0.135236         3.6800 
  36   0.0000       0.137562         3.7432 
  37   0.0000       0.142159         3.8683 
  38   0.0000       0.143715         3.9107 
  39   0.0000       0.153252         4.1702 
  40   0.0000       0.154741         4.2107 
  41   0.0000       0.156288         4.2528 
  42   0.0000       0.165497         4.5034 
  43   0.0000       0.171715         4.6726 
  44   0.0000       0.175226         4.7682 
  45   0.0000       0.189173         5.1477 
  46   0.0000       0.189593         5.1591 
  47   0.0000       0.196987         5.3603 
  48   0.0000       0.201184         5.4745 
  49   0.0000       0.206284         5.6133 
  50   0.0000       0.209286         5.6950 
  51   0.0000       0.210805         5.7363 
  52   0.0000       0.211612         5.7582 
  53   0.0000       0.213170         5.8006 
  54   0.0000       0.213870         5.8197 
  55   0.0000       0.214093         5.8258 
  56   0.0000       0.215950         5.8763 
  57   0.0000       0.232534         6.3276 
  58   0.0000       0.233738         6.3603 
  59   0.0000       0.244228         6.6458 
  60   0.0000       0.245338         6.6760 
  61   0.0000       0.246790         6.7155 
  62   0.0000       0.262139         7.1332 
  63   0.0000       0.272218         7.4074 
  64   0.0000       0.280362         7.6290 
  65   0.0000       0.282670         7.6918 
  66   0.0000       0.283488         7.7141 
  67   0.0000       0.287263         7.8168 
  68   0.0000       0.288659         7.8548 
  69   0.0000       0.288804         7.8588 
  70   0.0000       0.291647         7.9361 
  71   0.0000       0.295963         8.0536 
  72   0.0000       0.305857         8.3228 
  73   0.0000       0.311607         8.4792 
  74   0.0000       0.313354         8.5268 
  75   0.0000       0.315982         8.5983 
  76   0.0000       0.316468         8.6115 
  77   0.0000       0.318329         8.6622 
  78   0.0000       0.322663         8.7801 
  79   0.0000       0.339636         9.2420 
  80   0.0000       0.346741         9.4353 
  81   0.0000       0.347377         9.4526 
  82   0.0000       0.351405         9.5622 
  83   0.0000       0.360264         9.8033 
  84   0.0000       0.363585         9.8936 
  85   0.0000       0.367530        10.0010 
  86   0.0000       0.368367        10.0238 
  87   0.0000       0.374744        10.1973 
  88   0.0000       0.375524        10.2185 
  89   0.0000       0.376259        10.2385 
  90   0.0000       0.379073        10.3151 
  91   0.0000       0.386969        10.5300 
  92   0.0000       0.394414        10.7325 
  93   0.0000       0.396978        10.8023 
  94   0.0000       0.413421        11.2497 
  95   0.0000       0.417807        11.3691 
  96   0.0000       0.418136        11.3780 
  97   0.0000       0.422525        11.4975 
  98   0.0000       0.434265        11.8170 
  99   0.0000       0.434487        11.8230 
 100   0.0000       0.442158        12.0317 
 101   0.0000       0.449356        12.2276 
 102   0.0000       0.451080        12.2745 
 103   0.0000       0.461449        12.5567 
 104   0.0000       0.461686        12.5631 
 105   0.0000       0.466177        12.6853 
 106   0.0000       0.473064        12.8727 
 107   0.0000       0.476273        12.9601 
 108   0.0000       0.480706        13.0807 
 109   0.0000       0.484339        13.1795 
 110   0.0000       0.486081        13.2269 
 111   0.0000       0.488888        13.3033 
 112   0.0000       0.494173        13.4471 
 113   0.0000       0.501814        13.6550 
 114   0.0000       0.506601        13.7853 
 115   0.0000       0.515877        14.0377 
 116   0.0000       0.519403        14.1337 
 117   0.0000       0.520961        14.1761 
 118   0.0000       0.524480        14.2718 
 119   0.0000       0.530278        14.4296 
 120   0.0000       0.534882        14.5549 
 121   0.0000       0.536270        14.5927 
 122   0.0000       0.536869        14.6089 
 123   0.0000       0.538871        14.6634 
 124   0.0000       0.542111        14.7516 
 125   0.0000       0.557631        15.1739 
 126   0.0000       0.559486        15.2244 
 127   0.0000       0.564389        15.3578 
 128   0.0000       0.571579        15.5535 
 129   0.0000       0.572293        15.5729 
 130   0.0000       0.576619        15.6906 
 131   0.0000       0.576727        15.6935 
 132   0.0000       0.580329        15.7915 
 133   0.0000       0.581875        15.8336 
 134   0.0000       0.587202        15.9786 
 135   0.0000       0.596034        16.2189 
 136   0.0000       0.601946        16.3798 
 137   0.0000       0.604302        16.4439 
 138   0.0000       0.606060        16.4917 
 139   0.0000       0.609071        16.5737 
 140   0.0000       0.609610        16.5883 
 141   0.0000       0.627039        17.0626 
 142   0.0000       0.632271        17.2050 
 143   0.0000       0.641415        17.4538 
 144   0.0000       0.645917        17.5763 
 145   0.0000       0.654218        17.8022 
 146   0.0000       0.654804        17.8181 
 147   0.0000       0.656598        17.8669 
 148   0.0000       0.658178        17.9099 
 149   0.0000       0.659379        17.9426 
 150   0.0000       0.665589        18.1116 
 151   0.0000       0.677872        18.4458 
 152   0.0000       0.684865        18.6361 
 153   0.0000       0.687390        18.7048 
 154   0.0000       0.692053        18.8317 
 155   0.0000       0.705509        19.1979 
 156   0.0000       0.713637        19.4190 
 157   0.0000       0.713835        19.4244 
 158   0.0000       0.751630        20.4529 
 159   0.0000       0.752515        20.4770 
 160   0.0000       0.766761        20.8646 
 161   0.0000       0.771229        20.9862 
 162   0.0000       0.783783        21.3278 
 163   0.0000       0.795763        21.6538 
 164   0.0000       0.803167        21.8553 
 165   0.0000       0.803518        21.8648 
 166   0.0000       0.805496        21.9187 
 167   0.0000       0.809334        22.0231 
 168   0.0000       0.811007        22.0686 
 169   0.0000       0.814803        22.1719 
 170   0.0000       0.828007        22.5312 
 171   0.0000       0.830023        22.5861 
 172   0.0000       0.832256        22.6468 
 173   0.0000       0.835618        22.7383 
 174   0.0000       0.840229        22.8638 
 175   0.0000       0.844842        22.9893 
 176   0.0000       0.847823        23.0704 
 177   0.0000       0.853234        23.2177 
 178   0.0000       0.860971        23.4282 
 179   0.0000       0.868320        23.6282 
 180   0.0000       0.871236        23.7075 
 181   0.0000       0.880145        23.9500 
 182   0.0000       0.880612        23.9627 
 183   0.0000       0.884010        24.0551 
 184   0.0000       0.888505        24.1774 
 185   0.0000       0.888570        24.1792 
 186   0.0000       0.890099        24.2208 
 187   0.0000       0.891485        24.2585 
 188   0.0000       0.896170        24.3860 
 189   0.0000       0.898946        24.4616 
 190   0.0000       0.900505        24.5040 
 191   0.0000       0.918821        25.0024 
 192   0.0000       0.919425        25.0188 
 193   0.0000       0.933473        25.4011 
 194   0.0000       0.935065        25.4444 
 195   0.0000       0.939200        25.5569 
 196   0.0000       0.939616        25.5683 
 197   0.0000       0.941542        25.6207 
 198   0.0000       0.947407        25.7803 
 199   0.0000       0.949807        25.8455 
 200   0.0000       0.955426        25.9985 
 201   0.0000       0.955478        25.9999 
 202   0.0000       0.957132        26.0449 
 203   0.0000       0.962344        26.1867 
 204   0.0000       0.966823        26.3086 
 205   0.0000       0.967720        26.3330 
 206   0.0000       0.970336        26.4042 
 207   0.0000       0.972259        26.4565 
 208   0.0000       0.982833        26.7443 
 209   0.0000       1.002894        27.2901 
 210   0.0000       1.004081        27.3224 
 211   0.0000       1.011726        27.5305 
 212   0.0000       1.021819        27.8051 
 213   0.0000       1.023577        27.8530 
 214   0.0000       1.023651        27.8550 
 215   0.0000       1.026450        27.9311 
 216   0.0000       1.031561        28.0702 
 217   0.0000       1.034794        28.1582 
 218   0.0000       1.042498        28.3678 
 219   0.0000       1.052451        28.6387 
 220   0.0000       1.061675        28.8897 
 221   0.0000       1.061982        28.8980 
 222   0.0000       1.074582        29.2409 
 223   0.0000       1.079079        29.3632 
 224   0.0000       1.090657        29.6783 
 225   0.0000       1.113284        30.2940 
 226   0.0000       1.124124        30.5890 
 227   0.0000       1.130585        30.7648 
 228   0.0000       1.147248        31.2182 
 229   0.0000       1.148136        31.2424 
 230   0.0000       1.161948        31.6182 
 231   0.0000       1.212346        32.9896 
 232   0.0000       1.212513        32.9942 
 233   0.0000       1.225021        33.3345 
 234   0.0000       1.236568        33.6487 
 235   0.0000       1.238538        33.7023 
 236   0.0000       1.241912        33.7941 
 237   0.0000       1.256888        34.2017 
 238   0.0000       1.264831        34.4178 
 239   0.0000       1.325154        36.0593 
 240   0.0000       1.392696        37.8972 
 241   0.0000       1.399347        38.0782 
 242   0.0000       1.440255        39.1913 
 243   0.0000       1.461770        39.7768 
 244   0.0000       1.474039        40.1106 
 245   0.0000       1.494112        40.6568 
 246   0.0000       1.496509        40.7221 
 247   0.0000       1.501682        40.8628 
 248   0.0000       1.525513        41.5113 
 249   0.0000       1.540117        41.9087 
 250   0.0000       1.581235        43.0276 
 251   0.0000       1.585365        43.1400 
 252   0.0000       1.603034        43.6208 
 253   0.0000       1.605103        43.6771 
 254   0.0000       1.606087        43.7039 
 255   0.0000       1.608344        43.7653 
 256   0.0000       1.609039        43.7842 
 257   0.0000       1.621827        44.1322 
 258   0.0000       1.643162        44.7127 
 259   0.0000       1.674963        45.5781 
 260   0.0000       1.693451        46.0811 
 261   0.0000       1.702878        46.3377 
 262   0.0000       1.711556        46.5738 
 263   0.0000       1.714423        46.6518 
 264   0.0000       1.725578        46.9554 
 265   0.0000       1.729370        47.0586 
 266   0.0000       1.778245        48.3885 
 267   0.0000       1.786336        48.6087 
 268   0.0000       1.810574        49.2682 
 269   0.0000       1.870777        50.9064 
 270   0.0000       1.879895        51.1546 
 271   0.0000       1.897237        51.6265 
 272   0.0000       1.963002        53.4160 
 273   0.0000       1.969078        53.5813 
 274   0.0000       1.976537        53.7843 
 275   0.0000       2.007399        54.6241 
 276   0.0000       2.072924        56.4071 
 277   0.0000       2.073065        56.4110 
 278   0.0000       2.074821        56.4588 
 279   0.0000       2.107855        57.3577 
 280   0.0000       2.113848        57.5207 
 281   0.0000       2.126886        57.8755 
 282   0.0000       2.201396        59.9030 
 283   0.0000       2.210926        60.1624 
 284   0.0000       2.256015        61.3893 
 285   0.0000       2.271607        61.8136 
 286   0.0000       2.278379        61.9979 
 287   0.0000       2.291926        62.3665 
 288   0.0000       2.299863        62.5824 
 289   0.0000       2.331562        63.4450 
 290   0.0000       2.385191        64.9043 
 291   0.0000       2.425085        65.9899 
 292   0.0000       2.451612        66.7118 
 293   0.0000       2.457787        66.8798 
 294   0.0000       2.460943        66.9657 
 295   0.0000       2.515669        68.4548 
 296   0.0000       2.567157        69.8559 
 297   0.0000       2.612004        71.0763 
 298   0.0000       2.615172        71.1624 
 299   0.0000       2.620537        71.3084 
 300   0.0000       2.668186        72.6050 
 301   0.0000       2.686905        73.1144 
 302   0.0000       2.736104        74.4532 
 303   0.0000       2.784294        75.7645 
 304   0.0000       2.789355        75.9022 
 305   0.0000       2.937916        79.9447 
 306   0.0000       2.960911        80.5705 
 307   0.0000       3.036956        82.6398 
 308   0.0000       3.038002        82.6682 
 309   0.0000       3.044896        82.8558 
 310   0.0000       3.102081        84.4119 
 311   0.0000       3.102304        84.4180 
 312   0.0000       3.133591        85.2693 
 313   0.0000       3.219597        87.6097 
 314   0.0000       3.234959        88.0277 
 315   0.0000       3.273925        89.0880 
 316   0.0000       3.294295        89.6423 
 317   0.0000       3.354593        91.2831 
 318   0.0000       3.373830        91.8066 
 319   0.0000       3.421632        93.1073 
 320   0.0000       3.469177        94.4011 
 321   0.0000       3.496942        95.1566 
 322   0.0000       3.510031        95.5128 
 323   0.0000       3.528832        96.0244 
 324   0.0000       3.597794        97.9009 
 325   0.0000       3.644372        99.1684 
 326   0.0000       3.658809        99.5612 
 327   0.0000       3.680815       100.1601 
 328   0.0000       3.687468       100.3411 
 329   0.0000       3.689297       100.3909 
 330   0.0000       3.711960       101.0076 
 331   0.0000       3.743271       101.8596 
 332   0.0000       3.754411       102.1627 
 333   0.0000       3.762581       102.3850 
 334   0.0000       3.836249       104.3897 
 335   0.0000       3.877490       105.5119 
 336   0.0000       3.892072       105.9087 
 337   0.0000       3.902289       106.1867 
 338   0.0000       3.937902       107.1558 
 339   0.0000       3.952201       107.5449 
 340   0.0000       3.978404       108.2579 
 341   0.0000       4.000751       108.8660 
 342   0.0000       4.003976       108.9537 
 343   0.0000       4.004871       108.9781 
 344   0.0000       4.026791       109.5745 
 345   0.0000       4.064292       110.5950 
 346   0.0000       4.160988       113.2262 
 347   0.0000       4.161693       113.2454 
 348   0.0000       4.174059       113.5819 
 349   0.0000       4.197651       114.2239 
 350   0.0000       4.283606       116.5629 
 351   0.0000       4.283681       116.5649 
 352   0.0000       4.398199       119.6811 
 353   0.0000       4.400824       119.7525 
 354   0.0000       4.412693       120.0755 
 355   0.0000       4.418698       120.2389 
 356   0.0000       4.448414       121.0475 
 357   0.0000       4.451341       121.1272 
 358   0.0000       4.470594       121.6510 
 359   0.0000       4.547393       123.7409 
 360   0.0000       4.577708       124.5658 
 361   0.0000       4.636858       126.1753 
 362   0.0000       4.655075       126.6710 
 363   0.0000       4.676580       127.2562 
 364   0.0000       4.687247       127.5465 
 365   0.0000       4.735789       128.8674 
 366   0.0000       4.738080       128.9297 
 367   0.0000       4.756727       129.4371 
 368   0.0000       4.757030       129.4454 
 369   0.0000       4.809062       130.8612 
 370   0.0000       4.841201       131.7358 
 371   0.0000       4.842506       131.7713 
 372   0.0000       4.878403       132.7481 
 373   0.0000       4.929047       134.1262 
 374   0.0000       4.943550       134.5208 
 375   0.0000       4.964123       135.0807 
 376   0.0000       4.998448       136.0147 
 377   0.0000       5.016579       136.5081 
 378   0.0000       5.032286       136.9355 
 379   0.0000       5.035063       137.0110 
 380   0.0000       5.070997       137.9888 
 381   0.0000       5.226969       142.2331 
 382   0.0000       5.235677       142.4700 
 383   0.0000       5.236900       142.5033 
 384   0.0000       5.254044       142.9698 
 385   0.0000       5.354652       145.7075 
 386   0.0000       5.427029       147.6770 
 387   0.0000       5.428420       147.7148 
 388   0.0000       5.448132       148.2512 
 389   0.0000       5.625640       153.0814 
 390   0.0000       5.666066       154.1815 
 391   0.0000       5.677740       154.4992 
 392   0.0000       5.697071       155.0252 
 393   0.0000       5.713865       155.4822 
 394   0.0000       5.722956       155.7296 
 395   0.0000       5.725594       155.8013 
 396   0.0000       5.822917       158.4496 
 397   0.0000       5.866273       159.6294 
 398   0.0000       5.931752       161.4112 
 399   0.0000       5.989543       162.9838 
 400   0.0000       6.199134       168.6870 
 401   0.0000       6.213408       169.0754 
 402   0.0000       6.229345       169.5091 
 403   0.0000       6.373542       173.4329 
 404   0.0000       6.383445       173.7024 
 405   0.0000       6.397187       174.0763 
 406   0.0000       6.403288       174.2423 
 407   0.0000       6.428357       174.9245 
 408   0.0000       6.510340       177.1554 
 409   0.0000       6.667153       181.4225 
 410   0.0000       6.686740       181.9555 
 411   0.0000       6.722974       182.9414 
 412   0.0000       6.768879       184.1906 
 413   0.0000       6.792087       184.8221 
 414   0.0000       6.920624       188.3198 
 415   0.0000       6.942973       188.9279 
 416   0.0000       6.958564       189.3522 
 417   0.0000       7.028731       191.2615 
 418   0.0000       7.111992       193.5271 
 419   0.0000       7.199978       195.9214 
 420   0.0000       7.328102       199.4078 
 421   0.0000       7.358198       200.2267 
 422   0.0000       7.617333       207.2782 
 423   0.0000       7.762952       211.2407 
 424   0.0000       7.767125       211.3542 
 425   0.0000       7.827240       212.9900 
 426   0.0000       7.866091       214.0472 
 427   0.0000       8.063807       219.4273 
 428   0.0000       8.475059       230.6181 
 429   0.0000       8.494754       231.1540 
 430   0.0000       8.569588       233.1903 
 431   0.0000       8.720396       237.2940 
 432   0.0000       8.731083       237.5848 
 433   0.0000       8.818263       239.9571 
 434   0.0000       8.905545       242.3322 
 435   0.0000       8.924596       242.8506 
 436   0.0000       8.960359       243.8238 
 437   0.0000       8.985615       244.5110 
 438   0.0000       9.043349       246.0820 
 439   0.0000       9.062765       246.6104 
 440   0.0000       9.076233       246.9768 
 441   0.0000       9.110605       247.9122 
 442   0.0000       9.119344       248.1500 
 443   0.0000       9.161357       249.2932 
 444   0.0000       9.229392       251.1445 
 445   0.0000       9.232392       251.2262 
 446   0.0000       9.381733       255.2899 
 447   0.0000       9.438169       256.8256 
 448   0.0000       9.465086       257.5581 
 449   0.0000       9.492596       258.3067 
 450   0.0000       9.600136       261.2330 
 451   0.0000       9.636524       262.2232 
 452   0.0000       9.676184       263.3024 
 453   0.0000       9.706895       264.1380 
 454   0.0000       9.961461       271.0651 
 455   0.0000      10.013390       272.4782 
 456   0.0000      10.108887       275.0768 
 457   0.0000      10.177851       276.9534 
 458   0.0000      10.549223       287.0590 
 459   0.0000      10.586229       288.0659 
 460   0.0000      10.592193       288.2282 
 461   0.0000      10.689155       290.8667 
 462   0.0000      10.704467       291.2834 
 463   0.0000      10.716832       291.6198 
 464   0.0000      10.777807       293.2790 
 465   0.0000      10.830847       294.7223 
 466   0.0000      10.858150       295.4653 
 467   0.0000      10.909442       296.8610 
 468   0.0000      10.910231       296.8825 
 469   0.0000      10.977617       298.7162 
 470   0.0000      11.010772       299.6183 
 471   0.0000      11.019737       299.8623 
 472   0.0000      11.185257       304.3663 
 473   0.0000      11.214552       305.1635 
 474   0.0000      11.265489       306.5496 
 475   0.0000      11.271533       306.7140 
 476   0.0000      11.320453       308.0452 
 477   0.0000      11.441085       311.3278 
 478   0.0000      11.442800       311.3744 
 479   0.0000      11.506437       313.1061 
 480   0.0000      11.518592       313.4368 
 481   0.0000      11.614227       316.0392 
 482   0.0000      11.640890       316.7647 
 483   0.0000      11.662562       317.3545 
 484   0.0000      11.718285       318.8707 
 485   0.0000      11.750944       319.7595 
 486   0.0000      11.823643       321.7377 
 487   0.0000      11.828228       321.8624 
 488   0.0000      11.834516       322.0335 
 489   0.0000      11.835978       322.0733 
 490   0.0000      11.870987       323.0260 
 491   0.0000      11.882741       323.3458 
 492   0.0000      11.903177       323.9019 
 493   0.0000      12.191496       331.7475 
 494   0.0000      12.195021       331.8434 
 495   0.0000      12.203934       332.0859 
 496   0.0000      12.218356       332.4784 
 497   0.0000      12.291220       334.4611 
 498   0.0000      12.314727       335.1007 
 499   0.0000      12.321386       335.2820 
 500   0.0000      12.443916       338.6162 
 501   0.0000      12.454452       338.9029 
 502   0.0000      12.456871       338.9687 
 503   0.0000      12.529131       340.9350 
 504   0.0000      12.548645       341.4660 
 505   0.0000      12.588707       342.5561 
 506   0.0000      12.625568       343.5592 
 507   0.0000      12.630296       343.6878 
 508   0.0000      12.639763       343.9454 
 509   0.0000      12.795561       348.1849 
 510   0.0000      12.846469       349.5702 
 511   0.0000      12.864133       350.0509 
 512   0.0000      12.868272       350.1635 
 513   0.0000      12.892973       350.8356 
 514   0.0000      12.909552       351.2868 
 515   0.0000      12.995164       353.6164 
 516   0.0000      13.064266       355.4968 
 517   0.0000      13.088779       356.1638 
 518   0.0000      13.089258       356.1768 
 519   0.0000      13.168579       358.3353 
 520   0.0000      13.170133       358.3775 
 521   0.0000      13.213577       359.5597 
 522   0.0000      13.302427       361.9774 
 523   0.0000      13.325619       362.6085 
 524   0.0000      13.364895       363.6773 
 525   0.0000      13.385290       364.2323 
 526   0.0000      13.407483       364.8362 
 527   0.0000      13.438437       365.6784 
 528   0.0000      13.491457       367.1212 
 529   0.0000      13.496166       367.2493 
 530   0.0000      13.773000       374.7824 
 531   0.0000      13.781894       375.0244 
 532   0.0000      13.857296       377.0762 
 533   0.0000      13.876703       377.6043 
 534   0.0000      13.932150       379.1131 
 535   0.0000      14.153159       385.1270 
 536   0.0000      14.194378       386.2487 
 537   0.0000      14.215509       386.8237 
 538   0.0000      14.297195       389.0465 
 539   0.0000      14.482887       394.0994 
 540   0.0000      14.510219       394.8431 
 541   0.0000      14.634234       398.2177 
 542   0.0000      14.843561       403.9138 
 543   0.0000      14.964384       407.2016 
 544   0.0000      15.079455       410.3328 
 545   0.0000      15.129093       411.6835 
 546   0.0000      15.242830       414.7785 
 547   0.0000      15.258762       415.2120 
 548   0.0000      15.509017       422.0218 
 549   0.0000      15.710333       427.4999 
 550   0.0000      15.715047       427.6282 
 551   0.0000      15.738856       428.2760 
 552   0.0000      15.994885       435.2429 
 553   0.0000      16.130749       438.9400 
 554   0.0000      16.201539       440.8663 
 555   0.0000      16.636405       452.6996 
 556   0.0000      16.743194       455.6055 
 557   0.0000      16.751591       455.8340 
 558   0.0000      16.758172       456.0130 
 559   0.0000      16.761631       456.1072 
 560   0.0000      16.770982       456.3616 
 561   0.0000      16.786083       456.7726 
 562   0.0000      16.799563       457.1393 
 563   0.0000      16.821021       457.7232 
 564   0.0000      17.002442       462.6600 
 565   0.0000      17.069948       464.4969 
 566   0.0000      17.194569       467.8880 
 567   0.0000      17.203266       468.1247 
 568   0.0000      17.250020       469.3969 
 569   0.0000      17.269009       469.9136 
 570   0.0000      17.289927       470.4828 
 571   0.0000      17.404599       473.6032 
 572   0.0000      17.444561       474.6907 
 573   0.0000      17.539583       477.2763 
 574   0.0000      18.029107       490.5969 
 575   0.0000      18.382298       500.2078 
 576   0.0000      18.452661       502.1224 
 577   0.0000      18.475267       502.7376 
 578   0.0000      18.571190       505.3478 
 579   0.0000      18.573533       505.4115 
 580   0.0000      18.629184       506.9259 
 581   0.0000      18.699134       508.8293 
 582   0.0000      18.894092       514.1344 
 583   0.0000      18.906312       514.4669 
 584   0.0000      19.087987       519.4105 
 585   0.0000      19.782908       538.3203 
 586   0.0000      19.795553       538.6644 
 587   0.0000      20.157092       548.5024 
 588   0.0000      20.202059       549.7260 
 589   0.0000      20.209305       549.9231 
 590   0.0000      20.257350       551.2305 
 591   0.0000      20.297203       552.3150 
 592   0.0000      20.425674       555.8108 
 593   0.0000      20.437578       556.1348 
 594   0.0000      20.577026       559.9293 
 595   0.0000      20.862499       567.6975 
 596   0.0000      21.217549       577.3589 
 597   0.0000      21.486504       584.6775 
 598   0.0000      21.537442       586.0636 
 599   0.0000      21.688752       590.1809 
 600   0.0000      22.482237       611.7728 
 601   0.0000      23.493830       639.2996 
 602   0.0000      23.519802       640.0063 
 603   0.0000      23.618140       642.6823 
 604   0.0000      23.641362       643.3142 
 605   0.0000      23.758492       646.5014 
 606   0.0000      23.968875       652.2263 
 607   0.0000      24.151613       657.1988 
 608   0.0000      24.168866       657.6683 
 609   0.0000      25.391063       690.9260 
 610   0.0000      25.600818       696.6337 
 611   0.0000      25.633198       697.5148 
 612   0.0000      26.071793       709.4496 
 613   0.0000      32.168419       875.3472 
 614   0.0000      32.300796       878.9493 
 615   0.0000      32.385232       881.2470 
 616   0.0000      32.646675       888.3612 
 617   0.0000      32.666441       888.8990 
 618   0.0000      33.529931       912.3958 
 619   0.0000      33.623434       914.9402 
 620   0.0000      33.774079       919.0394 
 621   0.0000      34.511191       939.0972 
 622   0.0000      34.992018       952.1812 
 623   0.0000      40.943262      1114.1228 
 624   0.0000      41.141679      1119.5220 
 625   0.0000      41.456045      1128.0763 
 626   0.0000      41.709225      1134.9657 
 627   0.0000      75.585502      2056.7861 
 628   0.0000      77.349853      2104.7965 
 629   0.0000      91.053190      2477.6833 
 630   0.0000      91.074667      2478.2677 
 631   0.0000      91.137442      2479.9759 
 632   0.0000      91.159040      2480.5636 
 633   0.0000      91.232790      2482.5704 
 634   0.0000      91.364272      2486.1482 
 635   0.0000      91.467371      2488.9537 
 636   0.0000      91.496276      2489.7402 
 637   0.0000      92.329627      2512.4169 
 638   0.0000      92.461268      2515.9990 
 639   0.0000      92.516132      2517.4919 
 640   0.0000      92.767363      2524.3283 
 641   0.0000       0.000000         0.0000 

                 SPIN DOWN ORBITALS
  NO   OCC          E(Eh)            E(eV) 
   0   1.0000      -9.887300      -269.0471 
   1   1.0000      -9.886642      -269.0292 
   2   1.0000      -0.689753       -18.7691 
   3   1.0000      -0.523166       -14.2361 
   4   1.0000      -0.422720       -11.5028 
   5   1.0000      -0.372323       -10.1314 
   6   1.0000      -0.315091        -8.5741 
   7   1.0000      -0.247730        -6.7411 
   8   0.0000      -0.041226        -1.1218 
   9   0.0000      -0.011826        -0.3218 
  10   0.0000       0.005144         0.1400 
  11   0.0000       0.008008         0.2179 
  12   0.0000       0.017196         0.4679 
  13   0.0000       0.031945         0.8693 
  14   0.0000       0.032122         0.8741 
  15   0.0000       0.039112         1.0643 
  16   0.0000       0.042436         1.1548 
  17   0.0000       0.044024         1.1980 
  18   0.0000       0.052585         1.4309 
  19   0.0000       0.054363         1.4793 
  20   0.0000       0.055439         1.5086 
  21   0.0000       0.060817         1.6549 
  22   0.0000       0.064555         1.7566 
  23   0.0000       0.069515         1.8916 
  24   0.0000       0.076832         2.0907 
  25   0.0000       0.084137         2.2895 
  26   0.0000       0.100273         2.7286 
  27   0.0000       0.102293         2.7835 
  28   0.0000       0.106140         2.8882 
  29   0.0000       0.107504         2.9253 
  30   0.0000       0.111634         3.0377 
  31   0.0000       0.116629         3.1736 
  32   0.0000       0.120180         3.2703 
  33   0.0000       0.127171         3.4605 
  34   0.0000       0.131443         3.5767 
  35   0.0000       0.135236         3.6800 
  36   0.0000       0.137562         3.7432 
  37   0.0000       0.142159         3.8683 
  38   0.0000       0.143715         3.9107 
  39   0.0000       0.153252         4.1702 
  40   0.0000       0.154741         4.2107 
  41   0.0000       0.156288         4.2528 
  42   0.0000       0.165497         4.5034 
  43   0.0000       0.171715         4.6726 
  44   0.0000       0.175226         4.7682 
  45   0.0000       0.189173         5.1477 
  46   0.0000       0.189593         5.1591 
  47   0.0000       0.196987         5.3603 
  48   0.0000       0.201184         5.4745 
  49   0.0000       0.206284         5.6133 
  50   0.0000       0.209286         5.6950 
  51   0.0000       0.210805         5.7363 
  52   0.0000       0.211612         5.7582 
  53   0.0000       0.213170         5.8006 
  54   0.0000       0.213870         5.8197 
  55   0.0000       0.214093         5.8258 
  56   0.0000       0.215950         5.8763 
  57   0.0000       0.232534         6.3276 
  58   0.0000       0.233738         6.3603 
  59   0.0000       0.244228         6.6458 
  60   0.0000       0.245338         6.6760 
  61   0.0000       0.246790         6.7155 
  62   0.0000       0.262139         7.1332 
  63   0.0000       0.272218         7.4074 
  64   0.0000       0.280362         7.6290 
  65   0.0000       0.282670         7.6918 
  66   0.0000       0.283488         7.7141 
  67   0.0000       0.287263         7.8168 
  68   0.0000       0.288659         7.8548 
  69   0.0000       0.288804         7.8588 
  70   0.0000       0.291647         7.9361 
  71   0.0000       0.295963         8.0536 
  72   0.0000       0.305857         8.3228 
  73   0.0000       0.311607         8.4792 
  74   0.0000       0.313354         8.5268 
  75   0.0000       0.315982         8.5983 
  76   0.0000       0.316468         8.6115 
  77   0.0000       0.318329         8.6622 
  78   0.0000       0.322663         8.7801 
  79   0.0000       0.339636         9.2420 
  80   0.0000       0.346741         9.4353 
  81   0.0000       0.347377         9.4526 
  82   0.0000       0.351405         9.5622 
  83   0.0000       0.360264         9.8033 
  84   0.0000       0.363585         9.8936 
  85   0.0000       0.367530        10.0010 
  86   0.0000       0.368367        10.0238 
  87   0.0000       0.374744        10.1973 
  88   0.0000       0.375524        10.2185 
  89   0.0000       0.376259        10.2385 
  90   0.0000       0.379073        10.3151 
  91   0.0000       0.386969        10.5300 
  92   0.0000       0.394414        10.7325 
  93   0.0000       0.396978        10.8023 
  94   0.0000       0.413421        11.2497 
  95   0.0000       0.417807        11.3691 
  96   0.0000       0.418136        11.3780 
  97   0.0000       0.422525        11.4975 
  98   0.0000       0.434265        11.8170 
  99   0.0000       0.434487        11.8230 
 100   0.0000       0.442158        12.0317 
 101   0.0000       0.449356        12.2276 
 102   0.0000       0.451080        12.2745 
 103   0.0000       0.461449        12.5567 
 104   0.0000       0.461686        12.5631 
 105   0.0000       0.466177        12.6853 
 106   0.0000       0.473064        12.8727 
 107   0.0000       0.476273        12.9601 
 108   0.0000       0.480706        13.0807 
 109   0.0000       0.484339        13.1795 
 110   0.0000       0.486081        13.2269 
 111   0.0000       0.488888        13.3033 
 112   0.0000       0.494173        13.4471 
 113   0.0000       0.501814        13.6550 
 114   0.0000       0.506601        13.7853 
 115   0.0000       0.515877        14.0377 
 116   0.0000       0.519403        14.1337 
 117   0.0000       0.520961        14.1761 
 118   0.0000       0.524480        14.2718 
 119   0.0000       0.530278        14.4296 
 120   0.0000       0.534882        14.5549 
 121   0.0000       0.536270        14.5927 
 122   0.0000       0.536869        14.6089 
 123   0.0000       0.538871        14.6634 
 124   0.0000       0.542111        14.7516 
 125   0.0000       0.557631        15.1739 
 126   0.0000       0.559486        15.2244 
 127   0.0000       0.564389        15.3578 
 128   0.0000       0.571579        15.5535 
 129   0.0000       0.572293        15.5729 
 130   0.0000       0.576619        15.6906 
 131   0.0000       0.576727        15.6935 
 132   0.0000       0.580329        15.7915 
 133   0.0000       0.581875        15.8336 
 134   0.0000       0.587202        15.9786 
 135   0.0000       0.596034        16.2189 
 136   0.0000       0.601946        16.3798 
 137   0.0000       0.604302        16.4439 
 138   0.0000       0.606060        16.4917 
 139   0.0000       0.609071        16.5737 
 140   0.0000       0.609610        16.5883 
 141   0.0000       0.627039        17.0626 
 142   0.0000       0.632271        17.2050 
 143   0.0000       0.641415        17.4538 
 144   0.0000       0.645917        17.5763 
 145   0.0000       0.654218        17.8022 
 146   0.0000       0.654804        17.8181 
 147   0.0000       0.656598        17.8669 
 148   0.0000       0.658178        17.9099 
 149   0.0000       0.659379        17.9426 
 150   0.0000       0.665589        18.1116 
 151   0.0000       0.677872        18.4458 
 152   0.0000       0.684865        18.6361 
 153   0.0000       0.687390        18.7048 
 154   0.0000       0.692053        18.8317 
 155   0.0000       0.705509        19.1979 
 156   0.0000       0.713637        19.4190 
 157   0.0000       0.713835        19.4244 
 158   0.0000       0.751630        20.4529 
 159   0.0000       0.752515        20.4770 
 160   0.0000       0.766761        20.8646 
 161   0.0000       0.771229        20.9862 
 162   0.0000       0.783783        21.3278 
 163   0.0000       0.795763        21.6538 
 164   0.0000       0.803167        21.8553 
 165   0.0000       0.803518        21.8648 
 166   0.0000       0.805496        21.9187 
 167   0.0000       0.809334        22.0231 
 168   0.0000       0.811007        22.0686 
 169   0.0000       0.814803        22.1719 
 170   0.0000       0.828007        22.5312 
 171   0.0000       0.830023        22.5861 
 172   0.0000       0.832256        22.6468 
 173   0.0000       0.835618        22.7383 
 174   0.0000       0.840229        22.8638 
 175   0.0000       0.844842        22.9893 
 176   0.0000       0.847823        23.0704 
 177   0.0000       0.853234        23.2177 
 178   0.0000       0.860971        23.4282 
 179   0.0000       0.868320        23.6282 
 180   0.0000       0.871236        23.7075 
 181   0.0000       0.880145        23.9500 
 182   0.0000       0.880612        23.9627 
 183   0.0000       0.884010        24.0551 
 184   0.0000       0.888505        24.1774 
 185   0.0000       0.888570        24.1792 
 186   0.0000       0.890099        24.2208 
 187   0.0000       0.891485        24.2585 
 188   0.0000       0.896170        24.3860 
 189   0.0000       0.898946        24.4616 
 190   0.0000       0.900505        24.5040 
 191   0.0000       0.918821        25.0024 
 192   0.0000       0.919425        25.0188 
 193   0.0000       0.933473        25.4011 
 194   0.0000       0.935065        25.4444 
 195   0.0000       0.939200        25.5569 
 196   0.0000       0.939616        25.5683 
 197   0.0000       0.941542        25.6207 
 198   0.0000       0.947407        25.7803 
 199   0.0000       0.949807        25.8455 
 200   0.0000       0.955426        25.9985 
 201   0.0000       0.955478        25.9999 
 202   0.0000       0.957132        26.0449 
 203   0.0000       0.962344        26.1867 
 204   0.0000       0.966823        26.3086 
 205   0.0000       0.967720        26.3330 
 206   0.0000       0.970336        26.4042 
 207   0.0000       0.972259        26.4565 
 208   0.0000       0.982833        26.7443 
 209   0.0000       1.002894        27.2901 
 210   0.0000       1.004081        27.3224 
 211   0.0000       1.011726        27.5305 
 212   0.0000       1.021819        27.8051 
 213   0.0000       1.023577        27.8530 
 214   0.0000       1.023651        27.8550 
 215   0.0000       1.026450        27.9311 
 216   0.0000       1.031561        28.0702 
 217   0.0000       1.034794        28.1582 
 218   0.0000       1.042498        28.3678 
 219   0.0000       1.052451        28.6387 
 220   0.0000       1.061675        28.8897 
 221   0.0000       1.061982        28.8980 
 222   0.0000       1.074582        29.2409 
 223   0.0000       1.079079        29.3632 
 224   0.0000       1.090657        29.6783 
 225   0.0000       1.113284        30.2940 
 226   0.0000       1.124124        30.5890 
 227   0.0000       1.130585        30.7648 
 228   0.0000       1.147248        31.2182 
 229   0.0000       1.148136        31.2424 
 230   0.0000       1.161948        31.6182 
 231   0.0000       1.212346        32.9896 
 232   0.0000       1.212513        32.9942 
 233   0.0000       1.225021        33.3345 
 234   0.0000       1.236568        33.6487 
 235   0.0000       1.238538        33.7023 
 236   0.0000       1.241912        33.7941 
 237   0.0000       1.256888        34.2017 
 238   0.0000       1.264831        34.4178 
 239   0.0000       1.325154        36.0593 
 240   0.0000       1.392696        37.8972 
 241   0.0000       1.399347        38.0782 
 242   0.0000       1.440255        39.1913 
 243   0.0000       1.461770        39.7768 
 244   0.0000       1.474039        40.1106 
 245   0.0000       1.494112        40.6568 
 246   0.0000       1.496509        40.7221 
 247   0.0000       1.501682        40.8628 
 248   0.0000       1.525513        41.5113 
 249   0.0000       1.540117        41.9087 
 250   0.0000       1.581235        43.0276 
 251   0.0000       1.585365        43.1400 
 252   0.0000       1.603034        43.6208 
 253   0.0000       1.605103        43.6771 
 254   0.0000       1.606087        43.7039 
 255   0.0000       1.608344        43.7653 
 256   0.0000       1.609039        43.7842 
 257   0.0000       1.621827        44.1322 
 258   0.0000       1.643162        44.7127 
 259   0.0000       1.674963        45.5781 
 260   0.0000       1.693451        46.0811 
 261   0.0000       1.702878        46.3377 
 262   0.0000       1.711556        46.5738 
 263   0.0000       1.714423        46.6518 
 264   0.0000       1.725578        46.9554 
 265   0.0000       1.729370        47.0586 
 266   0.0000       1.778245        48.3885 
 267   0.0000       1.786336        48.6087 
 268   0.0000       1.810574        49.2682 
 269   0.0000       1.870777        50.9064 
 270   0.0000       1.879895        51.1546 
 271   0.0000       1.897237        51.6265 
 272   0.0000       1.963002        53.4160 
 273   0.0000       1.969078        53.5813 
 274   0.0000       1.976537        53.7843 
 275   0.0000       2.007399        54.6241 
 276   0.0000       2.072924        56.4071 
 277   0.0000       2.073065        56.4110 
 278   0.0000       2.074821        56.4588 
 279   0.0000       2.107855        57.3577 
 280   0.0000       2.113848        57.5207 
 281   0.0000       2.126886        57.8755 
 282   0.0000       2.201396        59.9030 
 283   0.0000       2.210926        60.1624 
 284   0.0000       2.256015        61.3893 
 285   0.0000       2.271607        61.8136 
 286   0.0000       2.278379        61.9979 
 287   0.0000       2.291926        62.3665 
 288   0.0000       2.299863        62.5824 
 289   0.0000       2.331562        63.4450 
 290   0.0000       2.385191        64.9043 
 291   0.0000       2.425085        65.9899 
 292   0.0000       2.451612        66.7118 
 293   0.0000       2.457787        66.8798 
 294   0.0000       2.460943        66.9657 
 295   0.0000       2.515669        68.4548 
 296   0.0000       2.567157        69.8559 
 297   0.0000       2.612004        71.0763 
 298   0.0000       2.615172        71.1624 
 299   0.0000       2.620537        71.3084 
 300   0.0000       2.668186        72.6050 
 301   0.0000       2.686905        73.1144 
 302   0.0000       2.736104        74.4532 
 303   0.0000       2.784294        75.7645 
 304   0.0000       2.789355        75.9022 
 305   0.0000       2.937916        79.9447 
 306   0.0000       2.960911        80.5705 
 307   0.0000       3.036956        82.6398 
 308   0.0000       3.038002        82.6682 
 309   0.0000       3.044896        82.8558 
 310   0.0000       3.102081        84.4119 
 311   0.0000       3.102304        84.4180 
 312   0.0000       3.133591        85.2693 
 313   0.0000       3.219597        87.6097 
 314   0.0000       3.234959        88.0277 
 315   0.0000       3.273925        89.0880 
 316   0.0000       3.294295        89.6423 
 317   0.0000       3.354593        91.2831 
 318   0.0000       3.373830        91.8066 
 319   0.0000       3.421632        93.1073 
 320   0.0000       3.469177        94.4011 
 321   0.0000       3.496942        95.1566 
 322   0.0000       3.510031        95.5128 
 323   0.0000       3.528832        96.0244 
 324   0.0000       3.597794        97.9009 
 325   0.0000       3.644372        99.1684 
 326   0.0000       3.658809        99.5612 
 327   0.0000       3.680815       100.1601 
 328   0.0000       3.687468       100.3411 
 329   0.0000       3.689297       100.3909 
 330   0.0000       3.711960       101.0076 
 331   0.0000       3.743271       101.8596 
 332   0.0000       3.754411       102.1627 
 333   0.0000       3.762581       102.3850 
 334   0.0000       3.836249       104.3897 
 335   0.0000       3.877490       105.5119 
 336   0.0000       3.892072       105.9087 
 337   0.0000       3.902289       106.1867 
 338   0.0000       3.937902       107.1558 
 339   0.0000       3.952201       107.5449 
 340   0.0000       3.978404       108.2579 
 341   0.0000       4.000751       108.8660 
 342   0.0000       4.003976       108.9537 
 343   0.0000       4.004871       108.9781 
 344   0.0000       4.026791       109.5745 
 345   0.0000       4.064292       110.5950 
 346   0.0000       4.160988       113.2262 
 347   0.0000       4.161693       113.2454 
 348   0.0000       4.174059       113.5819 
 349   0.0000       4.197651       114.2239 
 350   0.0000       4.283606       116.5629 
 351   0.0000       4.283681       116.5649 
 352   0.0000       4.398199       119.6811 
 353   0.0000       4.400824       119.7525 
 354   0.0000       4.412693       120.0755 
 355   0.0000       4.418698       120.2389 
 356   0.0000       4.448414       121.0475 
 357   0.0000       4.451341       121.1272 
 358   0.0000       4.470594       121.6510 
 359   0.0000       4.547393       123.7409 
 360   0.0000       4.577708       124.5658 
 361   0.0000       4.636858       126.1753 
 362   0.0000       4.655075       126.6710 
 363   0.0000       4.676580       127.2562 
 364   0.0000       4.687247       127.5465 
 365   0.0000       4.735789       128.8674 
 366   0.0000       4.738080       128.9297 
 367   0.0000       4.756727       129.4371 
 368   0.0000       4.757030       129.4454 
 369   0.0000       4.809062       130.8612 
 370   0.0000       4.841201       131.7358 
 371   0.0000       4.842506       131.7713 
 372   0.0000       4.878403       132.7481 
 373   0.0000       4.929047       134.1262 
 374   0.0000       4.943550       134.5208 
 375   0.0000       4.964123       135.0807 
 376   0.0000       4.998448       136.0147 
 377   0.0000       5.016579       136.5081 
 378   0.0000       5.032286       136.9355 
 379   0.0000       5.035063       137.0110 
 380   0.0000       5.070997       137.9888 
 381   0.0000       5.226969       142.2331 
 382   0.0000       5.235677       142.4700 
 383   0.0000       5.236900       142.5033 
 384   0.0000       5.254044       142.9698 
 385   0.0000       5.354652       145.7075 
 386   0.0000       5.427029       147.6770 
 387   0.0000       5.428420       147.7148 
 388   0.0000       5.448132       148.2512 
 389   0.0000       5.625640       153.0814 
 390   0.0000       5.666066       154.1815 
 391   0.0000       5.677740       154.4992 
 392   0.0000       5.697071       155.0252 
 393   0.0000       5.713865       155.4822 
 394   0.0000       5.722956       155.7296 
 395   0.0000       5.725594       155.8013 
 396   0.0000       5.822917       158.4496 
 397   0.0000       5.866273       159.6294 
 398   0.0000       5.931752       161.4112 
 399   0.0000       5.989543       162.9838 
 400   0.0000       6.199134       168.6870 
 401   0.0000       6.213408       169.0754 
 402   0.0000       6.229345       169.5091 
 403   0.0000       6.373542       173.4329 
 404   0.0000       6.383445       173.7024 
 405   0.0000       6.397187       174.0763 
 406   0.0000       6.403288       174.2423 
 407   0.0000       6.428357       174.9245 
 408   0.0000       6.510340       177.1554 
 409   0.0000       6.667153       181.4225 
 410   0.0000       6.686740       181.9555 
 411   0.0000       6.722974       182.9414 
 412   0.0000       6.768879       184.1906 
 413   0.0000       6.792087       184.8221 
 414   0.0000       6.920624       188.3198 
 415   0.0000       6.942973       188.9279 
 416   0.0000       6.958564       189.3522 
 417   0.0000       7.028731       191.2615 
 418   0.0000       7.111992       193.5271 
 419   0.0000       7.199978       195.9214 
 420   0.0000       7.328102       199.4078 
 421   0.0000       7.358198       200.2267 
 422   0.0000       7.617333       207.2782 
 423   0.0000       7.762952       211.2407 
 424   0.0000       7.767125       211.3542 
 425   0.0000       7.827240       212.9900 
 426   0.0000       7.866091       214.0472 
 427   0.0000       8.063807       219.4273 
 428   0.0000       8.475059       230.6181 
 429   0.0000       8.494754       231.1540 
 430   0.0000       8.569588       233.1903 
 431   0.0000       8.720396       237.2940 
 432   0.0000       8.731083       237.5848 
 433   0.0000       8.818263       239.9571 
 434   0.0000       8.905545       242.3322 
 435   0.0000       8.924596       242.8506 
 436   0.0000       8.960359       243.8238 
 437   0.0000       8.985615       244.5110 
 438   0.0000       9.043349       246.0820 
 439   0.0000       9.062765       246.6104 
 440   0.0000       9.076233       246.9768 
 441   0.0000       9.110605       247.9122 
 442   0.0000       9.119344       248.1500 
 443   0.0000       9.161357       249.2932 
 444   0.0000       9.229392       251.1445 
 445   0.0000       9.232392       251.2262 
 446   0.0000       9.381733       255.2899 
 447   0.0000       9.438169       256.8256 
 448   0.0000       9.465086       257.5581 
 449   0.0000       9.492596       258.3067 
 450   0.0000       9.600136       261.2330 
 451   0.0000       9.636524       262.2232 
 452   0.0000       9.676184       263.3024 
 453   0.0000       9.706895       264.1380 
 454   0.0000       9.961461       271.0651 
 455   0.0000      10.013390       272.4782 
 456   0.0000      10.108887       275.0768 
 457   0.0000      10.177851       276.9534 
 458   0.0000      10.549223       287.0590 
 459   0.0000      10.586229       288.0659 
 460   0.0000      10.592193       288.2282 
 461   0.0000      10.689155       290.8667 
 462   0.0000      10.704467       291.2834 
 463   0.0000      10.716832       291.6198 
 464   0.0000      10.777807       293.2790 
 465   0.0000      10.830847       294.7223 
 466   0.0000      10.858150       295.4653 
 467   0.0000      10.909442       296.8610 
 468   0.0000      10.910231       296.8825 
 469   0.0000      10.977617       298.7162 
 470   0.0000      11.010772       299.6183 
 471   0.0000      11.019737       299.8623 
 472   0.0000      11.185257       304.3663 
 473   0.0000      11.214552       305.1635 
 474   0.0000      11.265489       306.5496 
 475   0.0000      11.271533       306.7140 
 476   0.0000      11.320453       308.0452 
 477   0.0000      11.441085       311.3278 
 478   0.0000      11.442800       311.3744 
 479   0.0000      11.506437       313.1061 
 480   0.0000      11.518592       313.4368 
 481   0.0000      11.614227       316.0392 
 482   0.0000      11.640890       316.7647 
 483   0.0000      11.662562       317.3545 
 484   0.0000      11.718285       318.8707 
 485   0.0000      11.750944       319.7595 
 486   0.0000      11.823643       321.7377 
 487   0.0000      11.828228       321.8624 
 488   0.0000      11.834516       322.0335 
 489   0.0000      11.835978       322.0733 
 490   0.0000      11.870987       323.0260 
 491   0.0000      11.882741       323.3458 
 492   0.0000      11.903177       323.9019 
 493   0.0000      12.191496       331.7475 
 494   0.0000      12.195021       331.8434 
 495   0.0000      12.203934       332.0859 
 496   0.0000      12.218356       332.4784 
 497   0.0000      12.291220       334.4611 
 498   0.0000      12.314727       335.1007 
 499   0.0000      12.321386       335.2820 
 500   0.0000      12.443916       338.6162 
 501   0.0000      12.454452       338.9029 
 502   0.0000      12.456871       338.9687 
 503   0.0000      12.529131       340.9350 
 504   0.0000      12.548645       341.4660 
 505   0.0000      12.588707       342.5561 
 506   0.0000      12.625568       343.5592 
 507   0.0000      12.630296       343.6878 
 508   0.0000      12.639763       343.9454 
 509   0.0000      12.795561       348.1849 
 510   0.0000      12.846469       349.5702 
 511   0.0000      12.864133       350.0509 
 512   0.0000      12.868272       350.1635 
 513   0.0000      12.892973       350.8356 
 514   0.0000      12.909552       351.2868 
 515   0.0000      12.995164       353.6164 
 516   0.0000      13.064266       355.4968 
 517   0.0000      13.088779       356.1638 
 518   0.0000      13.089258       356.1768 
 519   0.0000      13.168579       358.3353 
 520   0.0000      13.170133       358.3775 
 521   0.0000      13.213577       359.5597 
 522   0.0000      13.302427       361.9774 
 523   0.0000      13.325619       362.6085 
 524   0.0000      13.364895       363.6773 
 525   0.0000      13.385290       364.2323 
 526   0.0000      13.407483       364.8362 
 527   0.0000      13.438437       365.6784 
 528   0.0000      13.491457       367.1212 
 529   0.0000      13.496166       367.2493 
 530   0.0000      13.773000       374.7824 
 531   0.0000      13.781894       375.0244 
 532   0.0000      13.857296       377.0762 
 533   0.0000      13.876703       377.6043 
 534   0.0000      13.932150       379.1131 
 535   0.0000      14.153159       385.1270 
 536   0.0000      14.194378       386.2487 
 537   0.0000      14.215509       386.8237 
 538   0.0000      14.297195       389.0465 
 539   0.0000      14.482887       394.0994 
 540   0.0000      14.510219       394.8431 
 541   0.0000      14.634234       398.2177 
 542   0.0000      14.843561       403.9138 
 543   0.0000      14.964384       407.2016 
 544   0.0000      15.079455       410.3328 
 545   0.0000      15.129093       411.6835 
 546   0.0000      15.242830       414.7785 
 547   0.0000      15.258762       415.2120 
 548   0.0000      15.509017       422.0218 
 549   0.0000      15.710333       427.4999 
 550   0.0000      15.715047       427.6282 
 551   0.0000      15.738856       428.2760 
 552   0.0000      15.994885       435.2429 
 553   0.0000      16.130749       438.9400 
 554   0.0000      16.201539       440.8663 
 555   0.0000      16.636405       452.6996 
 556   0.0000      16.743194       455.6055 
 557   0.0000      16.751591       455.8340 
 558   0.0000      16.758172       456.0130 
 559   0.0000      16.761631       456.1072 
 560   0.0000      16.770982       456.3616 
 561   0.0000      16.786083       456.7726 
 562   0.0000      16.799563       457.1393 
 563   0.0000      16.821021       457.7232 
 564   0.0000      17.002442       462.6600 
 565   0.0000      17.069948       464.4969 
 566   0.0000      17.194569       467.8880 
 567   0.0000      17.203266       468.1247 
 568   0.0000      17.250020       469.3969 
 569   0.0000      17.269009       469.9136 
 570   0.0000      17.289927       470.4828 
 571   0.0000      17.404599       473.6032 
 572   0.0000      17.444561       474.6907 
 573   0.0000      17.539583       477.2763 
 574   0.0000      18.029107       490.5969 
 575   0.0000      18.382298       500.2078 
 576   0.0000      18.452661       502.1224 
 577   0.0000      18.475267       502.7376 
 578   0.0000      18.571190       505.3478 
 579   0.0000      18.573533       505.4115 
 580   0.0000      18.629184       506.9259 
 581   0.0000      18.699134       508.8293 
 582   0.0000      18.894092       514.1344 
 583   0.0000      18.906312       514.4669 
 584   0.0000      19.087987       519.4105 
 585   0.0000      19.782908       538.3203 
 586   0.0000      19.795553       538.6644 
 587   0.0000      20.157092       548.5024 
 588   0.0000      20.202059       549.7260 
 589   0.0000      20.209305       549.9231 
 590   0.0000      20.257350       551.2305 
 591   0.0000      20.297203       552.3150 
 592   0.0000      20.425674       555.8108 
 593   0.0000      20.437578       556.1348 
 594   0.0000      20.577026       559.9293 
 595   0.0000      20.862499       567.6975 
 596   0.0000      21.217549       577.3589 
 597   0.0000      21.486504       584.6775 
 598   0.0000      21.537442       586.0636 
 599   0.0000      21.688752       590.1809 
 600   0.0000      22.482237       611.7728 
 601   0.0000      23.493830       639.2996 
 602   0.0000      23.519802       640.0063 
 603   0.0000      23.618140       642.6823 
 604   0.0000      23.641362       643.3142 
 605   0.0000      23.758492       646.5014 
 606   0.0000      23.968875       652.2263 
 607   0.0000      24.151613       657.1988 
 608   0.0000      24.168866       657.6683 
 609   0.0000      25.391063       690.9260 
 610   0.0000      25.600818       696.6337 
 611   0.0000      25.633198       697.5148 
 612   0.0000      26.071793       709.4496 
 613   0.0000      32.168419       875.3472 
 614   0.0000      32.300796       878.9493 
 615   0.0000      32.385232       881.2470 
 616   0.0000      32.646675       888.3612 
 617   0.0000      32.666441       888.8990 
 618   0.0000      33.529931       912.3958 
 619   0.0000      33.623434       914.9402 
 620   0.0000      33.774079       919.0394 
 621   0.0000      34.511191       939.0972 
 622   0.0000      34.992018       952.1812 
 623   0.0000      40.943262      1114.1228 
 624   0.0000      41.141679      1119.5220 
 625   0.0000      41.456045      1128.0763 
 626   0.0000      41.709225      1134.9657 
 627   0.0000      75.585502      2056.7861 
 628   0.0000      77.349853      2104.7965 
 629   0.0000      91.053190      2477.6833 
 630   0.0000      91.074667      2478.2677 
 631   0.0000      91.137442      2479.9759 
 632   0.0000      91.159040      2480.5636 
 633   0.0000      91.232790      2482.5704 
 634   0.0000      91.364272      2486.1482 
 635   0.0000      91.467371      2488.9537 
 636   0.0000      91.496276      2489.7402 
 637   0.0000      92.329627      2512.4169 
 638   0.0000      92.461268      2515.9990 
 639   0.0000      92.516132      2517.4919 
 640   0.0000      92.767363      2524.3283 
 641   0.0000       0.000000         0.0000 

                    ********************************
                    * MULLIKEN POPULATION ANALYSIS *
                    ********************************

--------------------------------------------
MULLIKEN ATOMIC CHARGES AND SPIN POPULATIONS
--------------------------------------------
   0 C :   -0.002485   -0.000000
   1 C :   -0.003627    0.000000
   2 H :    0.001237    0.000000
   3 H :    0.001619   -0.000000
   4 H :    0.001653    0.000000
   5 H :    0.001602   -0.000000
Sum of atomic charges         :    0.0000000
Sum of atomic spin populations:   -0.0000000

-----------------------------------------------------
MULLIKEN REDUCED ORBITAL CHARGES AND SPIN POPULATIONS
-----------------------------------------------------
CHARGE
  0 C s       :     3.089675  s :     3.089675
      pz      :     0.909987  p :     2.888554
      px      :     0.930059
      py      :     1.048508
      dz2     :     0.014355  d :     0.002682
      dxz     :     0.015980
      dyz     :    -0.030277
      dx2y2   :     0.002624
      dxy     :    -0.000000
      f0      :     0.000040  f :     0.015960
      f+1     :     0.001832
      f-1     :     0.014052
      f+2     :     0.000047
      f-2     :     0.000000
      f+3     :    -0.000019
      f-3     :     0.000007
      g0      :     0.000718  g :     0.005055
      g+1     :    -0.000435
      g-1     :     0.004533
      g+2     :     0.000026
      g-2     :     0.000000
      g+3     :     0.000015
      g-3     :     0.000187
      g+4     :     0.000012
      g-4     :     0.000000
      h0      :     0.000075  h :     0.000559
      h+1     :    -0.000093
      h-1     :     0.000563
[...]
      dxy     :     0.000000
      f0      :     0.000000  f :    -0.000000
      f+1     :    -0.000000
      f-1     :    -0.000000
      f+2     :    -0.000000
      f-2     :     0.000000
      f+3     :     0.000000
      f-3     :     0.000000
      g0      :     0.000000  g :    -0.000000
      g+1     :    -0.000000
      g-1     :    -0.000000
      g+2     :    -0.000000
      g-2     :     0.000000
      g+3     :     0.000000
      g-3     :    -0.000000
      g+4     :     0.000000
      g-4     :     0.000000


                     *******************************
                     * LOEWDIN POPULATION ANALYSIS *
                     *******************************

-------------------------------------------
LOEWDIN ATOMIC CHARGES AND SPIN POPULATIONS
-------------------------------------------
   0 C :    0.799914    0.000000
   1 C :    0.799914   -0.000000
   2 H :   -0.399957    0.000000
   3 H :   -0.399957   -0.000000
   4 H :   -0.399957    0.000000
   5 H :   -0.399957    0.000000

----------------------------------------------------
LOEWDIN REDUCED ORBITAL CHARGES AND SPIN POPULATIONS
----------------------------------------------------
CHARGE
  0 C s       :     2.476258  s :     2.476258
      pz      :     0.851319  p :     2.182656
      px      :     0.557217
      py      :     0.774120
      dz2     :     0.116248  d :     0.388350
      dxz     :     0.047533
      dyz     :     0.202200
      dx2y2   :     0.022370
      dxy     :     0.000000
      f0      :     0.025524  f :     0.105439
      f+1     :     0.018938
      f-1     :     0.048920
      f+2     :     0.007290
      f-2     :     0.000000
      f+3     :     0.000488
      f-3     :     0.004278
      g0      :     0.006624  g :     0.034378
      g+1     :     0.004626
      g-1     :     0.020086
      g+2     :     0.001455
      g-2     :     0.000000
      g+3     :     0.000039
      g-3     :     0.001266
      g+4     :     0.000282
      g-4     :     0.000000
      h0      :     0.001717  h :     0.013006
      h+1     :     0.001310
      h-1     :     0.006544
      h+2     :     0.002278
      h-2     :     0.000000
      h+3     :     0.000146
      h-3     :     0.000769
      h+4     :     0.000081
      h-4     :     0.000000
      h+5     :     0.000023
      h-5     :     0.000137
  1 C s       :     2.476258  s :     2.476258
      pz      :     0.851319  p :     2.182656
      px      :     0.557217
      py      :     0.774120
      dz2     :     0.116248  d :     0.388350
      dxz     :     0.047533
      dyz     :     0.202200
      dx2y2   :     0.022370
      dxy     :     0.000000
      f0      :     0.025524  f :     0.105439
      f+1     :     0.018938
      f-1     :     0.048920
      f+2     :     0.007290
      f-2     :     0.000000
      f+3     :     0.000488
      f-3     :     0.004278
      g0      :     0.006624  g :     0.034378
      g+1     :     0.004626
      g-1     :     0.020086
      g+2     :     0.001455
      g-2     :     0.000000
      g+3     :     0.000039
      g-3     :     0.001266
      g+4     :     0.000282
      g-4     :     0.000000
      h0      :     0.001717  h :     0.013006
      h+1     :     0.001310
      h-1     :     0.006544
      h+2     :     0.002278
      h-2     :     0.000000
      h+3     :     0.000146
      h-3     :     0.000769
      h+4     :     0.000081
      h-4     :     0.000000
      h+5     :     0.000023
      h-5     :     0.000137
  2 H s       :     0.642330  s :     0.642330
      pz      :     0.095940  p :     0.296593
      px      :     0.073448
      py      :     0.127205
      dz2     :     0.070308  d :     0.250641
      dxz     :     0.029693
      dyz     :     0.063464
      dx2y2   :     0.047480
      dxy     :     0.039697
      f0      :     0.034645  f :     0.132564
      f+1     :     0.006695
      f-1     :     0.041861
      f+2     :     0.014911
      f-2     :     0.014770
      f+3     :     0.007204
      f-3     :     0.012477
      g0      :     0.029398  g :     0.077829
      g+1     :     0.003039
      g-1     :     0.012569
      g+2     :     0.015604
      g-2     :     0.005686
      g+3     :     0.003650
      g-3     :     0.003195
      g+4     :     0.003729
      g-4     :     0.000959
  3 H s       :     0.642330  s :     0.642330
      pz      :     0.095940  p :     0.296593
      px      :     0.073448
      py      :     0.127205
      dz2     :     0.070308  d :     0.250641
      dxz     :     0.029693
      dyz     :     0.063464
      dx2y2   :     0.047480
      dxy     :     0.039697
      f0      :     0.034645  f :     0.132564
      f+1     :     0.006695
      f-1     :     0.041861
      f+2     :     0.014911
      f-2     :     0.014770
      f+3     :     0.007204
      f-3     :     0.012477
      g0      :     0.029398  g :     0.077829
      g+1     :     0.003039
      g-1     :     0.012569
      g+2     :     0.015604
      g-2     :     0.005686
      g+3     :     0.003650
      g-3     :     0.003195
      g+4     :     0.003729
      g-4     :     0.000959
  4 H s       :     0.642330  s :     0.642330
      pz      :     0.095940  p :     0.296593
      px      :     0.073448
      py      :     0.127205
      dz2     :     0.070308  d :     0.250641
      dxz     :     0.029693
      dyz     :     0.063464
      dx2y2   :     0.047480
      dxy     :     0.039697
      f0      :     0.034645  f :     0.132564
      f+1     :     0.006695
      f-1     :     0.041861
      f+2     :     0.014911
      f-2     :     0.014770
      f+3     :     0.007204
      f-3     :     0.012477
      g0      :     0.029398  g :     0.077829
      g+1     :     0.003039
      g-1     :     0.012569
      g+2     :     0.015604
      g-2     :     0.005686
      g+3     :     0.003650
      g-3     :     0.003195
      g+4     :     0.003729
      g-4     :     0.000959
  5 H s       :     0.642330  s :     0.642330
      pz      :     0.095940  p :     0.296593
      px      :     0.073448
      py      :     0.127205
      dz2     :     0.070308  d :     0.250641
      dxz     :     0.029693
      dyz     :     0.063464
      dx2y2   :     0.047480
      dxy     :     0.039697
      f0      :     0.034645  f :     0.132564
      f+1     :     0.006695
      f-1     :     0.041861
      f+2     :     0.014911
      f-2     :     0.014770
      f+3     :     0.007204
      f-3     :     0.012477
      g0      :     0.029398  g :     0.077829
      g+1     :     0.003039
      g-1     :     0.012569
      g+2     :     0.015604
      g-2     :     0.005686
      g+3     :     0.003650
      g-3     :     0.003195
      g+4     :     0.003729
      g-4     :     0.000959

SPIN
  0 C s       :     0.000000  s :     0.000000
      pz      :    -0.000000  p :     0.000000
      px      :     0.000000
      py      :    -0.000000
      dz2     :    -0.000000  d :    -0.000000
      dxz     :    -0.000000
      dyz     :     0.000000
      dx2y2   :    -0.000000
      dxy     :     0.000000
      f0      :     0.000000  f :     0.000000
      f+1     :    -0.000000
      f-1     :    -0.000000
      f+2     :    -0.000000
      f-2     :    -0.000000
      f+3     :     0.000000
      f-3     :    -0.000000
      g0      :    -0.000000  g :    -0.000000
      g+1     :    -0.000000
      g-1     :     0.000000
      g+2     :     0.000000
      g-2     :    -0.000000
      g+3     :     0.000000
      g-3     :     0.000000
      g+4     :    -0.000000
      g-4     :     0.000000
      h0      :     0.000000  h :     0.000000
      h+1     :    -0.000000
      h-1     :     0.000000
      h+2     :    -0.000000
      h-2     :     0.000000
      h+3     :     0.000000
      h-3     :    -0.000000
      h+4     :    -0.000000
      h-4     :    -0.000000
      h+5     :    -0.000000
      h-5     :     0.000000
  1 C s       :    -0.000000  s :    -0.000000
      pz      :     0.000000  p :    -0.000000
      px      :    -0.000000
      py      :     0.000000
      dz2     :    -0.000000  d :    -0.000000
      dxz     :     0.000000
      dyz     :    -0.000000
      dx2y2   :     0.000000
      dxy     :    -0.000000
      f0      :    -0.000000  f :    -0.000000
      f+1     :     0.000000
      f-1     :    -0.000000
      f+2     :     0.000000
      f-2     :    -0.000000
      f+3     :    -0.000000
      f-3     :     0.000000
      g0      :     0.000000  g :     0.000000
      g+1     :     0.000000
      g-1     :    -0.000000
      g+2     :    -0.000000
      g-2     :    -0.000000
      g+3     :    -0.000000
      g-3     :     0.000000
      g+4     :     0.000000
      g-4     :     0.000000
      h0      :    -0.000000  h :     0.000000
      h+1     :     0.000000
      h-1     :    -0.000000
      h+2     :     0.000000
      h-2     :     0.000000
      h+3     :    -0.000000
      h-3     :    -0.000000
      h+4     :     0.000000
      h-4     :     0.000000
      h+5     :    -0.000000
      h-5     :    -0.000000
  2 H s       :    -0.000000  s :    -0.000000
      pz      :    -0.000000  p :     0.000000
      px      :     0.000000
      py      :     0.000000
      dz2     :    -0.000000  d :     0.000000
      dxz     :     0.000000
      dyz     :     0.000000
      dx2y2   :     0.000000
      dxy     :     0.000000
      f0      :     0.000000  f :    -0.000000
      f+1     :    -0.000000
      f-1     :    -0.000000
      f+2     :     0.000000
      f-2     :     0.000000
      f+3     :     0.000000
      f-3     :    -0.000000
      g0      :     0.000000  g :    -0.000000
      g+1     :    -0.000000
      g-1     :    -0.000000
      g+2     :     0.000000
      g-2     :    -0.000000
      g+3     :    -0.000000
      g-3     :     0.000000
      g+4     :     0.000000
      g-4     :    -0.000000
  3 H s       :     0.000000  s :     0.000000
      pz      :    -0.000000  p :    -0.000000
      px      :    -0.000000
      py      :    -0.000000
      dz2     :    -0.000000  d :    -0.000000
      dxz     :     0.000000
      dyz     :     0.000000
      dx2y2   :    -0.000000
      dxy     :     0.000000
      f0      :     0.000000  f :    -0.000000
      f+1     :    -0.000000
      f-1     :    -0.000000
      f+2     :    -0.000000
      f-2     :    -0.000000
      f+3     :     0.000000
      f-3     :    -0.000000
      g0      :     0.000000  g :     0.000000
      g+1     :    -0.000000
      g-1     :    -0.000000
      g+2     :     0.000000
      g-2     :    -0.000000
      g+3     :    -0.000000
      g-3     :     0.000000
      g+4     :     0.000000
      g-4     :    -0.000000
  4 H s       :     0.000000  s :     0.000000
      pz      :     0.000000  p :     0.000000
      px      :    -0.000000
      py      :    -0.000000
      dz2     :     0.000000  d :    -0.000000
      dxz     :     0.000000
      dyz     :    -0.000000
      dx2y2   :     0.000000
      dxy     :    -0.000000
      f0      :     0.000000  f :     0.000000
      f+1     :     0.000000
      f-1     :     0.000000
      f+2     :     0.000000
      f-2     :    -0.000000
      f+3     :    -0.000000
      f-3     :     0.000000
      g0      :    -0.000000  g :    -0.000000
      g+1     :     0.000000
      g-1     :     0.000000
      g+2     :    -0.000000
      g-2     :     0.000000
      g+3     :     0.000000
      g-3     :    -0.000000
      g+4     :    -0.000000
      g-4     :     0.000000
  5 H s       :     0.000000  s :     0.000000
      pz      :    -0.000000  p :    -0.000000
      px      :     0.000000
      py      :    -0.000000
      dz2     :     0.000000  d :    -0.000000
      dxz     :    -0.000000
      dyz     :    -0.000000
      dx2y2   :    -0.000000
      dxy     :    -0.000000
      f0      :    -0.000000  f :    -0.000000
      f+1     :     0.000000
      f-1     :    -0.000000
      f+2     :    -0.000000
      f-2     :     0.000000
      f+3     :    -0.000000
      f-3     :     0.000000
      g0      :    -0.000000  g :    -0.000000
      g+1     :     0.000000
      g-1     :    -0.000000
      g+2     :     0.000000
      g-2     :     0.000000
      g+3     :     0.000000
      g-3     :    -0.000000
      g+4     :     0.000000
      g-4     :     0.000000


                      *****************************
                      * MAYER POPULATION ANALYSIS *
                      *****************************

  NA   - Mulliken gross atomic population
  ZA   - Total nuclear charge
  QA   - Mulliken gross atomic charge
  VA   - Mayer's total valence
  BVA  - Mayer's bonded valence
  FA   - Mayer's free valence

  ATOM       NA         ZA         QA         VA         BVA        FA
  0 C      6.0025     6.0000    -0.0025     3.9411     3.9411     0.0000
  1 C      6.0036     6.0000    -0.0036     3.9418     3.9418     0.0000
  2 H      0.9988     1.0000     0.0012     1.0717     1.0717    -0.0000
  3 H      0.9984     1.0000     0.0016     1.0708     1.0708     0.0000
  4 H      0.9983     1.0000     0.0017     1.0717     1.0717     0.0000
  5 H      0.9984     1.0000     0.0016     1.0712     1.0712     0.0000

  Mayer bond orders larger than 0.1
B(  0-C ,  1-C ) :   1.8467 B(  0-C ,  2-H ) :   1.0454 B(  0-C ,  3-H ) :   1.0452 
B(  1-C ,  4-H ) :   1.0457 B(  1-C ,  5-H ) :   1.0454 

-------
TIMINGS
-------

Total SCF time: 0 days 1 hours 15 min 27 sec 

Total time                  ....    4527.787 sec
Sum of individual times     ....    4526.066 sec  (100.0%)

Fock matrix formation       ....    4509.924 sec  ( 99.6%)
  XC integration            ....     135.394 sec  (  3.0% of F)
    Basis function eval.    ....       6.137 sec  (  4.5% of XC)
    Density eval.           ....      42.055 sec  ( 31.1% of XC)
    XC-Functional eval.     ....       0.472 sec  (  0.3% of XC)
    XC-Potential eval.      ....      83.631 sec  ( 61.8% of XC)
Diagonalization             ....       5.009 sec  (  0.1%)
Density matrix formation    ....       0.072 sec  (  0.0%)
Population analysis         ....       0.419 sec  (  0.0%)
Initial guess               ....       5.313 sec  (  0.1%)
Orbital Transformation      ....       0.000 sec  (  0.0%)
Orbital Orthonormalization  ....       0.000 sec  (  0.0%)
DIIS solution               ....       2.514 sec  (  0.1%)
Grid generation             ....       2.816 sec  (  0.1%)

-------------------------   --------------------
FINAL SINGLE POINT ENERGY       -78.508664940491
-------------------------   --------------------


                            ***************************************
                            *     ORCA property calculations      *
                            ***************************************

                                    ---------------------
                                    Active property flags
                                    ---------------------
   (+) Dipole Moment
   (+) Polarizability


------------------------------------------------------------------------------
                       ORCA ELECTRIC PROPERTIES CALCULATION
------------------------------------------------------------------------------

Dipole Moment Calculation                       ... on
Quadrupole Moment Calculation                   ... off
Polarizability Calculation                      ... Analytic (CP-SCF)
GBWName                                         ... c2h4_pbe.gbw
Electron density file                           ... c2h4_pbe.scfp.tmp
The origin for moment calculation is the CENTER OF MASS  = ( 0.000000,  0.000000  0.000000)

-------------
DIPOLE MOMENT
-------------
                                X             Y             Z
Electronic contribution:      0.00000       0.00000      -0.00000
Nuclear contribution   :      0.00000       0.00000       0.00000
                        -----------------------------------------
Total Dipole Moment    :      0.00000       0.00000      -0.00000
                        -----------------------------------------
Magnitude (a.u.)       :      0.00000
Magnitude (Debye)      :      0.00000



--------------------
Rotational spectrum 
--------------------
 
Rotational constants in cm-1:     4.845498     0.998188     0.827683 
Rotational constants in MHz : 145264.386663 29924.922399 24813.303514 

 Dipole components along the rotational axes: 
x,y,z [a.u.] :    -0.000000     0.000000     0.000000 
x,y,z [Debye]:    -0.000000     0.000000     0.000000 

 
Transforming and storing MO dipole integrals   ... done

                ... starting polarizability calculation

Opening the Dipole integral file               ... (c2h4_pbe.dmo.tmp) done
Reading Dipole-MO integrals                    ... done
Solving CP-SCF equations                       ... 

           ************************************************************
           *        Program running with 4 parallel MPI-processes     *
           *              working on a common directory               *
           ************************************************************

------------------------------------------------------------------------------
                           ORCA CP-SCF CALCULATION
------------------------------------------------------------------------------

Input orbitals are from        ... c2h4_pbe.gbw
Input Perturbation             ... c2h4_pbe.cpv.tmp
Wavefunction output            ... c2h4_pbe.cpu.tmp
Perturbation mode              ... Real perturbation (singlet)
Solver                         ... POPLE
Max. number of iterations      ... 200
Convergence tolerance          ... 1.000e-06
Integral handling              ... Direct
Number of perturbations        ... 3
Number of operators            ... 2
Orbital ranges used for CP-SCF:
 Operator 0:  Orbitals   0...  7  to   8...641
 Operator 1:  Orbitals   0...  7  to   8...641
DFT calculation                         ... on
Exchange functional (SCF)               ... PBE
Exchange functional (CP-SCF)            ... PBE
   PBE kappa parameter  XKappa (SCF)    ...  0.804000
   PBE kappa parameter  XKappa (CP-SCF) ...  0.804000
   PBE mue parameter   XMuePBE (SCF)    ...  0.219520
   PBE mue parameter   XMuePBE (CP-SCF) ...  0.219520
Correlation functional (SCF)            ... PBE
Correlation functional (CP-SCF)         ... PBE
   PBE beta parameter CBetaPBE (SCF)    ...  0.066725
   PBE beta parameter CBetaPBE (CP-SCF) ...  0.066725
 LDA part of GGA corr.  LDAOpt (SCF)    ... PW91-LDA
 LDA part of GGA corr.  LDAOpt (CP-SCF) ... PW91-LDA
Variables per vector in CP-SCF ... 10144
Number of vectors sought       ... 3
Recalculating density on grid  ... done
Calculating the xc-kernel      ... done
     CP-SCF ITERATION   0: 
     CP-SCF ITERATION   1:      0.346602038465
     CP-SCF ITERATION   2:      0.002223359314
     CP-SCF ITERATION   3:      0.000003420899
     CP-SCF ITERATION   4:      0.000000803710
done
Reading CP-SCF coefficients                    ... done
Doing the polarizability tensor   ... done
Cleaning up                                    ... done

-------------------------
THE POLARIZABILITY TENSOR
-------------------------

The raw cartesian tensor (atomic units):
   23.31077      0.00000     -0.00000  
    0.00000     26.36590     -0.00000  
   -0.00000     -0.00000     36.30572  
diagonalized tensor: 
   23.31077     26.36590     36.30572  

    1.00000      0.00000     -0.00000  
   -0.00000      1.00000     -0.00000  
    0.00000      0.00000      1.00000  

Isotropic polarizability :  28.66080


Timings for individual modules:

Sum of individual times         ...     7770.882 sec (= 129.515 min)
GTO integral calculation        ...        3.922 sec (=   0.065 min)   0.1 %
SCF iterations                  ...     4529.059 sec (=  75.484 min)  58.3 %
Solution of CP-SCF eqns.        ...     3237.900 sec (=  53.965 min)  41.7 %
                             ****ORCA TERMINATED NORMALLY****
TOTAL RUN TIME: 0 days 2 hours 9 minutes 32 seconds 156 msec
