
                                 *****************
                                 * O   R   C   A *
                                 *****************

           --- An Ab Initio, DFT and Semiempirical electronic structure package ---

                  #######################################################
                  #                        -***-                        #
                  #          Department of theory and spectroscopy      #
                  #               Directorship: Frank Neese             #
                  #        Max Planck Institute fuer Kohlenforschung    #
                  #                Kaiser Wilhelm Platz 1               #
                  #                 D-45470 Muelheim/Ruhr               #
                  #                      Germany                        #
                  #                                                     #
                  #                  All rights reserved                #
                  #                        -***-                        #
                  #######################################################


                         Program Version 4.1.2  - RELEASE  -


 With contributions from (in alphabetic order):
   Daniel Aravena         : Magnetic Properties
   Michael Atanasov       : Ab Initio Ligand Field Theory
   Alexander A. Auer      : GIAO ZORA
   Ute Becker             : Parallelization
   Giovanni Bistoni       : ED, Open-shell LED
   Martin Brehm           : Molecular dynamics
   Dmytro Bykov           : SCF Hessian
   Vijay G. Chilkuri      : MRCI spin determinant printing
   Dipayan Datta          : RHF DLPNO-CCSD density
   Achintya Kumar Dutta   : EOM-CC, STEOM-CC
   Dmitry Ganyushin       : Spin-Orbit,Spin-Spin,Magnetic field MRCI
   Miquel Garcia          : C-PCM Hessian
   Yang Guo               : DLPNO-NEVPT2, CIM, IAO-localization
   Andreas Hansen         : Spin unrestricted coupled pair/coupled cluster methods
   Benjamin Helmich-Paris : CASSCF linear response (MC-RPA)
   Lee Huntington         : MR-EOM, pCC
   Robert Izsak           : Overlap fitted RIJCOSX, COSX-SCS-MP3, EOM
   Christian Kollmar      : KDIIS, OOCD, Brueckner-CCSD(T), CCSD density
   Simone Kossmann        : Meta GGA functionals, TD-DFT gradient, OOMP2, MP2 Hessian
   Martin Krupicka        : AUTO-CI
   Lucas Lang             : DCDCAS
   Dagmar Lenk            : GEPOL surface, SMD
   Dimitrios Liakos       : Extrapolation schemes; parallel MDCI
   Dimitrios Manganas     : ROCIS; embedding schemes
   Dimitrios Pantazis     : SARC Basis sets
   Taras Petrenko         : DFT Hessian,TD-DFT gradient, ASA, ECA, R-Raman, ABS, FL, XAS/XES, NRVS
   Peter Pinski           : DLPNO-MP2, DLPNO-MP2 Gradient
   Christoph Reimann      : Effective Core Potentials
   Marius Retegan         : Local ZFS, SOC
   Christoph Riplinger    : Optimizer, TS searches, QM/MM, DLPNO-CCSD(T), (RO)-DLPNO pert. Triples
   Tobias Risthaus        : Range-separated hybrids, TD-DFT gradient, RPA, STAB
   Michael Roemelt        : Restricted open shell CIS
   Masaaki Saitow         : Open-shell DLPNO
   Barbara Sandhoefer     : DKH picture change effects
   Avijit Sen             : IP-ROCIS
   Kantharuban Sivalingam : CASSCF convergence, NEVPT2, FIC-MRCI
   Bernardo de Souza      : ESD, SOC TD-DFT
   Georgi Stoychev        : AutoAux, RI-MP2 NMR
   Willem Van den Heuvel  : Paramagnetic NMR
   Boris Wezisla          : Elementary symmetry handling
   Frank Wennmohs         : Technical directorship


 We gratefully acknowledge several colleagues who have allowed us to
 interface, adapt or use parts of their codes:
   Stefan Grimme, W. Hujo, H. Kruse,             : VdW corrections, initial TS optimization,
                  C. Bannwarth                     DFT functionals, gCP, sTDA/sTD-DF
   Ed Valeev                                     : LibInt (2-el integral package), F12 methods
   Garnet Chan, S. Sharma, J. Yang, R. Olivares  : DMRG
   Ulf Ekstrom                                   : XCFun DFT Library
   Mihaly Kallay                                 : mrcc  (arbitrary order and MRCC methods)
   Andreas Klamt, Michael Diedenhofen            : otool_cosmo (COSMO solvation model)
   Jiri Pittner, Ondrej Demel                    : Mk-CCSD
   Frank Weinhold                                : gennbo (NPA and NBO analysis)
   Christopher J. Cramer and Donald G. Truhlar   : smd solvation model
   Lars Goerigk                                  : TD-DFT with DH, B97 family of functionals
   V. Asgeirsson, H. Jonsson                     : NEB implementation
   FAccTs GmbH                                   : IRC, NEB, NEB-TS, Multilevel


 Your calculation uses the libint2 library for the computation of 2-el integrals
 For citations please refer to: http://libint.valeyev.net

 This ORCA versions uses:
   CBLAS   interface :  Fast vector & matrix operations
   LAPACKE interface :  Fast linear algebra routines
   SCALAPACK package :  Parallel linear algebra routines


----- Orbital basis set information -----
Your calculation utilizes the basis: aug-pc-4
   H, C-F              : F. Jensen, J. Chem. Phys. 115, 9113 (2001).
                         F. Jensen, J. Chem. Phys. 116, 7372 (2002).
                         F. Jensen, J. Chem. Phys. 117, 9234 (2002).
   Si-Cl               : F. Jensen, T. Helgaker, J. Chem. Phys. 121, 3463 (2004).
   He-B, Ne-Mg, Al, Ar : F. Jensen, J. Phys. Chem. A 111, 11198 (2007).
   K, Ca, Ga-Kr        : F. Jensen, J. Chem. Phys. 136, 094110 (2012).
   Sc-Zn               : F. Jensen, J. Chem. Phys. 138, 014107 (2013).

================================================================================
                                        WARNINGS
                       Please study these warnings very carefully!
================================================================================


INFO   : the flag for use of LIBINT has been found!

================================================================================
                                       INPUT FILE
================================================================================
NAME = c2h_pbe.inp
|  1> !uks pbe nori aug-pc-4 grid7 nofinalgrid verytightscf
|  2> 
|  3> %maxcore 1500
|  4> 
|  5> %pal nprocs 1 end
|  6> 
|  7> %scf
|  8> 	maxiter 200
|  9> end
| 10> %elprop
| 11> 	dipole true
| 12> 	 polar 1
| 13> 	 maxiter 200
| 14> end
| 15> 
| 16> * xyz 0 2
| 17> C 0.0000 0.0000 0.0000
| 18> C 0.0000 0.0000 -1.2165
| 19> H 0.0000 0.0000 1.0465
| 20> *
| 21> 
| 22>                          ****END OF INPUT****
================================================================================

                       ****************************
                       * Single Point Calculation *
                       ****************************

---------------------------------
CARTESIAN COORDINATES (ANGSTROEM)
---------------------------------
  C      0.000000    0.000000    0.000000
  C      0.000000    0.000000   -1.216500
  H      0.000000    0.000000    1.046500

----------------------------
CARTESIAN COORDINATES (A.U.)
----------------------------
  NO LB      ZA    FRAG     MASS         X           Y           Z
   0 C     6.0000    0    12.011    0.000000    0.000000    0.000000
   1 C     6.0000    0    12.011    0.000000    0.000000   -2.298852
   2 H     1.0000    0     1.008    0.000000    0.000000    1.977598

--------------------------------
INTERNAL COORDINATES (ANGSTROEM)
--------------------------------
 C      0   0   0     0.000000000000     0.00000000     0.00000000
 C      1   0   0     1.216500000000     0.00000000     0.00000000
 H      1   2   0     1.046500000000   180.00000000     0.00000000

---------------------------
INTERNAL COORDINATES (A.U.)
---------------------------
 C      0   0   0     0.000000000000     0.00000000     0.00000000
 C      1   0   0     2.298851841915     0.00000000     0.00000000
 H      1   2   0     1.977598399149   180.00000000     0.00000000

---------------------
BASIS SET INFORMATION
---------------------
There are 2 groups of distinct atoms

 Group   1 Type C   : 28s12p7d4f3g2h contracted to 9s8p7d4f3g2h pattern {11101111111/51111111/1111111/1111/111/11}
 Group   2 Type H   : 12s7p4d3f2g contracted to 8s7p4d3f2g pattern {51111111/1111111/1111/111/11}

Atom   0C    basis set group =>   1
Atom   1C    basis set group =>   1
Atom   2H    basis set group =>   2
------------------------------------------------------------------------------
                           ORCA GTO INTEGRAL CALCULATION
------------------------------------------------------------------------------

                         BASIS SET STATISTICS AND STARTUP INFO

 # of primitive gaussian shells          ...  140
 # of primitive gaussian functions       ...  444
 # of contracted shells                  ...   90
 # of contracted basis functions         ...  378
 Highest angular momentum                ...    5
 Maximum contraction depth               ...   11
 Integral package used                   ... LIBINT
 Integral threshhold            Thresh   ...  1.000e-12
 Primitive cut-off              TCut     ...  1.000e-14


------------------------------ INTEGRAL EVALUATION ----------------------------


 * One electron integrals 
 Pre-screening matrix                    ... done
 Shell pair data                         ... done (   0.001 sec)

-------------------------------------------------------------------------------
                                 ORCA SCF
-------------------------------------------------------------------------------

------------
SCF SETTINGS
------------
Hamiltonian:
 Density Functional     Method          .... DFT(GTOs)
 Exchange Functional    Exchange        .... PBE
   PBE kappa parameter   XKappa         ....  0.804000
   PBE mue parameter    XMuePBE         ....  0.219520
 Correlation Functional Correlation     .... PBE
   PBE beta parameter  CBetaPBE         ....  0.066725
 LDA part of GGA corr.  LDAOpt          .... PW91-LDA
 Gradients option       PostSCFGGA      .... off
   Density functional embedding theory  .... OFF
   NL short-range parameter             ....  6.400000


General Settings:
 Integral files         IntName         .... c2h_pbe
 Hartree-Fock type      HFTyp           .... UHF
 Total Charge           Charge          ....    0
 Multiplicity           Mult            ....    2
 Number of Electrons    NEL             ....   13
 Basis Dimension        Dim             ....  378
 Nuclear Repulsion      ENuc            ....     20.0970072165 Eh

Convergence Acceleration:
 DIIS                   CNVDIIS         .... on
   Start iteration      DIISMaxIt       ....    12
   Startup error        DIISStart       ....  0.200000
   # of expansion vecs  DIISMaxEq       ....     5
   Bias factor          DIISBfac        ....   1.050
   Max. coefficient     DIISMaxC        ....  10.000
 Newton-Raphson         CNVNR           .... off
 SOSCF                  CNVSOSCF        .... off
 Level Shifting         CNVShift        .... on
   Level shift para.    LevelShift      ....    0.2500
   Turn off err/grad.   ShiftErr        ....    0.0010
 Zerner damping         CNVZerner       .... off
 Static damping         CNVDamp         .... on
   Fraction old density DampFac         ....    0.7000
   Max. Damping (<1)    DampMax         ....    0.9800
   Min. Damping (>=0)   DampMin         ....    0.0000
   Turn off err/grad.   DampErr         ....    0.1000
 Fernandez-Rico         CNVRico         .... off

SCF Procedure:
 Maximum # iterations   MaxIter         ....   200
 SCF integral mode      SCFMode         .... Direct
   Integral package                     .... LIBINT
 Reset frequency        DirectResetFreq ....    20
 Integral Threshold     Thresh          ....  1.000e-12 Eh
 Primitive CutOff       TCut            ....  1.000e-14 Eh

Convergence Tolerance:
 Convergence Check Mode ConvCheckMode   .... Total+1el-Energy
 Convergence forced     ConvForced      .... 0
 Energy Change          TolE            ....  1.000e-09 Eh
 1-El. energy change                    ....  1.000e-06 Eh
 DIIS Error             TolErr          ....  1.000e-08


Diagonalization of the overlap matrix:
Smallest eigenvalue                        ... 3.652e-07
Time for diagonalization                   ...    0.026 sec
Threshold for overlap eigenvalues          ... 1.000e-08
Number of eigenvalues below threshold      ... 0
Time for construction of square roots      ...    0.018 sec
Total time needed                          ...    0.045 sec

-------------------
DFT GRID GENERATION
-------------------

General Integration Accuracy     IntAcc      ...  5.670
Radial Grid Type                 RadialGrid  ... Gauss-Chebyshev
Angular Grid (max. acc.)         AngularGrid ... Lebedev-770
Angular grid pruning method      GridPruning ... 3 (G Style)
Weight generation scheme         WeightScheme... Becke
Basis function cutoff            BFCut       ...    1.0000e-12
Integration weight cutoff        WCut        ...    1.0000e-14
Grids for H and He will be reduced by one unit

# of grid points (after initial pruning)     ...  67904 (   0.0 sec)
# of grid points (after weights+screening)   ...  67047 (   0.0 sec)
nearest neighbour list constructed           ...    0.0 sec
Grid point re-assignment to atoms done       ...    0.0 sec
Grid point division into batches done        ...    1.4 sec
Reduced shell lists constructed in    2.1 sec

Total number of grid points                  ...    67047
Total number of batches                      ...     1050
Average number of points per batch           ...       63
Average number of grid points per atom       ...    22349
Average number of shells per batch           ...    68.02 (75.58%)
Average number of basis functions per batch  ...   292.32 (77.33%)
Average number of large shells per batch     ...    61.39 (90.26%)
Average number of large basis fcns per batch ...   264.78 (90.58%)
Maximum spatial batch extension              ...  25.23, 31.17, 25.08 au
Average spatial batch extension              ...   2.64,  2.63,  2.17 au

Time for grid setup =    2.175 sec

------------------------------
INITIAL GUESS: MODEL POTENTIAL
------------------------------
Loading Hartree-Fock densities                     ... done
Calculating cut-offs                               ... done
Setting up the integral package                    ... done
Initializing the effective Hamiltonian             ... done
Starting the Coulomb interaction                   ... done (   0.1 sec)
Reading the grid                                   ... done
Mapping shells                                     ... done
Starting the XC term evaluation                    ... done (   4.5 sec)
  promolecular density results
     # of electrons  =     12.999509557
     EX              =    -10.387104767
     EC              =     -0.386950026
     EX+EC           =    -10.774054793
Transforming the Hamiltonian                       ... done (   0.0 sec)
Diagonalizing the Hamiltonian                      ... done (   0.0 sec)
Back transforming the eigenvectors                 ... done (   0.0 sec)
Now organizing SCF variables                       ... done
                      ------------------
                      INITIAL GUESS DONE (   6.9 sec)
                      ------------------
--------------
SCF ITERATIONS
--------------
ITER       Energy         Delta-E        Max-DP      RMS-DP      [F,P]     Damp
               ***  Starting incremental Fock matrix formation  ***
  0    -76.4632446474   0.000000000000 0.01773600  0.00014916  0.1885943 0.7000
  1    -76.5010266052  -0.037781957770 0.01031906  0.00009812  0.0764750 0.7000
                               ***Turning on DIIS***
  2    -76.5120339785  -0.011007373325 0.01386972  0.00015367  0.0383302 0.0000
  3    -76.5334652573  -0.021431278776 0.00676085  0.00007491  0.0390766 0.0000
  4    -76.5370348552  -0.003569597894 0.00276748  0.00002435  0.0335899 0.0000
  5    -76.5384866312  -0.001451776012 0.00278070  0.00001957  0.0094736 0.0000
  6    -76.5386518721  -0.000165240864 0.00106959  0.00000918  0.0024470 0.0000
  7    -76.5386987226  -0.000046850547 0.00063773  0.00000815  0.0008241 0.0000
  8    -76.5387352507  -0.000036528064 0.00040180  0.00000347  0.0002528 0.0000
  9    -76.5387416477  -0.000006397001 0.00021265  0.00000273  0.0001105 0.0000
 10    -76.5387438729  -0.000002225249 0.00005348  0.00000064  0.0000546 0.0000
 11    -76.5387440305  -0.000000157507 0.00002993  0.00000037  0.0000208 0.0000
 12    -76.5387440621  -0.000000031634 0.00001588  0.00000009  0.0000034 0.0000
 13    -76.5387440630  -0.000000000927 0.00000707  0.00000005  0.0000005 0.0000
                 **** Energy Check signals convergence ****

               *****************************************************
               *                     SUCCESS                       *
               *           SCF CONVERGED AFTER  14 CYCLES          *
               *****************************************************


----------------
TOTAL SCF ENERGY
----------------

Total Energy       :          -76.53874406 Eh           -2082.72511 eV

Components:
Nuclear Repulsion  :           20.09700722 Eh             546.86737 eV
Electronic Energy  :          -96.63575128 Eh           -2629.59248 eV
One Electron Energy:         -141.81863157 Eh           -3859.08116 eV
Two Electron Energy:           45.18288029 Eh            1229.48868 eV

Virial components:
Potential Energy   :         -152.77290276 Eh           -4157.16203 eV
Kinetic Energy     :           76.23415870 Eh            2074.43692 eV
Virial Ratio       :            2.00399539


DFT components:
N(Alpha)           :        6.999999790788 electrons
N(Beta)            :        5.999999788680 electrons
N(Total)           :       12.999999579468 electrons
E(X)               :      -10.586602527823 Eh       
E(C)               :       -0.386292719033 Eh       
E(XC)              :      -10.972895246856 Eh       
DFET-embed. en.    :        0.000000000000 Eh       

---------------
SCF CONVERGENCE
---------------

  Last Energy change         ...   -2.4542e-11  Tolerance :   1.0000e-09
  Last MAX-Density change    ...    4.5105e-05  Tolerance :   1.0000e-08
  Last RMS-Density change    ...    2.7704e-07  Tolerance :   1.0000e-09
  Last DIIS Error            ...    6.4816e-08  Tolerance :   1.0000e-08

             **** THE GBW FILE WAS UPDATED (c2h_pbe.gbw) ****
             **** DENSITY FILE WAS UPDATED (c2h_pbe.scfp.tmp) ****
             **** ENERGY FILE WAS UPDATED (c2h_pbe.en.tmp) ****
----------------------
UHF SPIN CONTAMINATION
----------------------

Warning: in a DFT calculation there is little theoretical justification to 
         calculate <S**2> as in Hartree-Fock theory. We will do it anyways
         but you should keep in mind that the values have only limited relevance

Expectation value of <S**2>     :     0.773064
Ideal value S*(S+1) for S=0.5   :     0.750000
Deviation                       :     0.023064

----------------
ORBITAL ENERGIES
----------------
                 SPIN UP ORBITALS
  NO   OCC          E(Eh)            E(eV) 
   0   1.0000      -9.959950      -271.0240 
   1   1.0000      -9.913270      -269.7538 
   2   1.0000      -0.701657       -19.0931 
   3   1.0000      -0.509826       -13.8731 
   4   1.0000      -0.356871        -9.7110 
   5   1.0000      -0.282662        -7.6916 
   6   1.0000      -0.282662        -7.6916 
   7   0.0000      -0.029798        -0.8108 
   8   0.0000      -0.029798        -0.8108 
   9   0.0000      -0.006094        -0.1658 
  10   0.0000       0.006646         0.1809 
  11   0.0000       0.018297         0.4979 
  12   0.0000       0.018297         0.4979 
  13   0.0000       0.032911         0.8955 
  14   0.0000       0.040531         1.1029 
  15   0.0000       0.040531         1.1029 
  16   0.0000       0.044575         1.2129 
  17   0.0000       0.047865         1.3025 
  18   0.0000       0.076240         2.0746 
  19   0.0000       0.079226         2.1558 
  20   0.0000       0.079226         2.1558 
  21   0.0000       0.081491         2.2175 
  22   0.0000       0.081491         2.2175 
  23   0.0000       0.108483         2.9520 
  24   0.0000       0.111899         3.0449 
  25   0.0000       0.111899         3.0449 
  26   0.0000       0.122781         3.3410 
  27   0.0000       0.122781         3.3410 
  28   0.0000       0.127869         3.4795 
  29   0.0000       0.127869         3.4795 
  30   0.0000       0.132778         3.6131 
  31   0.0000       0.145025         3.9463 
  32   0.0000       0.163741         4.4556 
  33   0.0000       0.172998         4.7075 
  34   0.0000       0.186558         5.0765 
  35   0.0000       0.186558         5.0765 
  36   0.0000       0.195961         5.3324 
  37   0.0000       0.195961         5.3324 
  38   0.0000       0.220575         6.0022 
  39   0.0000       0.220575         6.0022 
  40   0.0000       0.225069         6.1244 
  41   0.0000       0.225069         6.1244 
  42   0.0000       0.233662         6.3583 
  43   0.0000       0.239109         6.5065 
  44   0.0000       0.239109         6.5065 
  45   0.0000       0.249686         6.7943 
  46   0.0000       0.249686         6.7943 
  47   0.0000       0.252913         6.8821 
  48   0.0000       0.252913         6.8821 
  49   0.0000       0.270951         7.3730 
  50   0.0000       0.270951         7.3730 
  51   0.0000       0.277756         7.5581 
  52   0.0000       0.287274         7.8171 
  53   0.0000       0.291834         7.9412 
  54   0.0000       0.291834         7.9412 
  55   0.0000       0.301531         8.2051 
  56   0.0000       0.301531         8.2051 
  57   0.0000       0.313169         8.5218 
  58   0.0000       0.325111         8.8467 
  59   0.0000       0.333840         9.0843 
  60   0.0000       0.333840         9.0843 
  61   0.0000       0.366711         9.9787 
  62   0.0000       0.366711         9.9787 
  63   0.0000       0.370083        10.0705 
  64   0.0000       0.381826        10.3900 
  65   0.0000       0.381826        10.3900 
  66   0.0000       0.399822        10.8797 
  67   0.0000       0.399822        10.8797 
  68   0.0000       0.414580        11.2813 
  69   0.0000       0.414580        11.2813 
  70   0.0000       0.417618        11.3640 
  71   0.0000       0.462464        12.5843 
  72   0.0000       0.462464        12.5843 
  73   0.0000       0.472802        12.8656 
  74   0.0000       0.472802        12.8656 
  75   0.0000       0.474638        12.9156 
  76   0.0000       0.474638        12.9156 
  77   0.0000       0.479143        13.0381 
  78   0.0000       0.479143        13.0381 
  79   0.0000       0.489155        13.3106 
  80   0.0000       0.489155        13.3106 
  81   0.0000       0.496264        13.5040 
  82   0.0000       0.509364        13.8605 
  83   0.0000       0.509364        13.8605 
  84   0.0000       0.514898        14.0111 
  85   0.0000       0.514898        14.0111 
  86   0.0000       0.517044        14.0695 
  87   0.0000       0.532463        14.4890 
  88   0.0000       0.535905        14.5827 
  89   0.0000       0.535905        14.5827 
  90   0.0000       0.563798        15.3417 
  91   0.0000       0.564423        15.3587 
  92   0.0000       0.564423        15.3587 
  93   0.0000       0.566017        15.4021 
  94   0.0000       0.566017        15.4021 
  95   0.0000       0.573683        15.6107 
  96   0.0000       0.573683        15.6107 
  97   0.0000       0.585350        15.9282 
  98   0.0000       0.588965        16.0266 
  99   0.0000       0.588966        16.0266 
 100   0.0000       0.622890        16.9497 
 101   0.0000       0.622890        16.9497 
 102   0.0000       0.647677        17.6242 
 103   0.0000       0.647677        17.6242 
 104   0.0000       0.667395        18.1608 
 105   0.0000       0.667395        18.1608 
 106   0.0000       0.692588        18.8463 
 107   0.0000       0.705399        19.1949 
 108   0.0000       0.705399        19.1949 
 109   0.0000       0.726297        19.7636 
 110   0.0000       0.729055        19.8386 
 111   0.0000       0.729055        19.8386 
 112   0.0000       0.733400        19.9568 
 113   0.0000       0.733400        19.9568 
 114   0.0000       0.744662        20.2633 
 115   0.0000       0.752627        20.4800 
 116   0.0000       0.752627        20.4800 
 117   0.0000       0.763874        20.7861 
 118   0.0000       0.763874        20.7861 
 119   0.0000       0.782964        21.3055 
 120   0.0000       0.782964        21.3055 
 121   0.0000       0.785508        21.3748 
 122   0.0000       0.785508        21.3748 
 123   0.0000       0.799544        21.7567 
 124   0.0000       0.799544        21.7567 
 125   0.0000       0.842257        22.9190 
 126   0.0000       0.842257        22.9190 
 127   0.0000       0.851675        23.1753 
 128   0.0000       0.863786        23.5048 
 129   0.0000       0.863786        23.5048 
 130   0.0000       0.874123        23.7861 
 131   0.0000       0.882723        24.0201 
 132   0.0000       0.882723        24.0201 
 133   0.0000       0.886712        24.1287 
 134   0.0000       0.886712        24.1287 
 135   0.0000       0.914988        24.8981 
 136   0.0000       0.962349        26.1869 
 137   0.0000       0.962350        26.1869 
 138   0.0000       0.988921        26.9099 
 139   0.0000       1.030079        28.0299 
 140   0.0000       1.030079        28.0299 
 141   0.0000       1.057938        28.7880 
 142   0.0000       1.077959        29.3327 
 143   0.0000       1.114891        30.3377 
 144   0.0000       1.114891        30.3377 
 145   0.0000       1.226011        33.3615 
 146   0.0000       1.226011        33.3615 
 147   0.0000       1.242839        33.8194 
 148   0.0000       1.242839        33.8194 
 149   0.0000       1.264085        34.3975 
 150   0.0000       1.264085        34.3975 
 151   0.0000       1.272067        34.6147 
 152   0.0000       1.353287        36.8248 
 153   0.0000       1.353287        36.8248 
 154   0.0000       1.362564        37.0773 
 155   0.0000       1.441277        39.2191 
 156   0.0000       1.495345        40.6904 
 157   0.0000       1.495345        40.6904 
 158   0.0000       1.608680        43.7744 
 159   0.0000       1.608680        43.7744 
 160   0.0000       1.614154        43.9234 
 161   0.0000       1.647049        44.8185 
 162   0.0000       1.671434        45.4820 
 163   0.0000       1.671434        45.4820 
 164   0.0000       1.735495        47.2252 
 165   0.0000       1.735495        47.2252 
 166   0.0000       1.863367        50.7048 
 167   0.0000       1.863367        50.7048 
 168   0.0000       1.910851        51.9969 
 169   0.0000       1.953540        53.1585 
 170   0.0000       1.953540        53.1585 
 171   0.0000       2.066714        56.2381 
 172   0.0000       2.066714        56.2381 
 173   0.0000       2.118587        57.6497 
 174   0.0000       2.158492        58.7356 
 175   0.0000       2.158492        58.7356 
 176   0.0000       2.206676        60.0467 
 177   0.0000       2.206676        60.0467 
 178   0.0000       2.248758        61.1918 
 179   0.0000       2.252455        61.2924 
 180   0.0000       2.252455        61.2924 
 181   0.0000       2.401772        65.3556 
 182   0.0000       2.473462        67.3063 
 183   0.0000       2.593005        70.5593 
 184   0.0000       2.593005        70.5593 
 185   0.0000       2.651185        72.1424 
 186   0.0000       2.651185        72.1424 
 187   0.0000       2.676838        72.8405 
 188   0.0000       2.731952        74.3402 
 189   0.0000       2.731952        74.3402 
 190   0.0000       2.733971        74.3951 
 191   0.0000       3.073631        83.6378 
 192   0.0000       3.073631        83.6378 
 193   0.0000       3.091202        84.1159 
 194   0.0000       3.393200        92.3337 
 195   0.0000       3.393200        92.3337 
 196   0.0000       3.438481        93.5658 
 197   0.0000       3.477662        94.6320 
 198   0.0000       3.477662        94.6320 
 199   0.0000       3.580774        97.4378 
 200   0.0000       3.580774        97.4378 
 201   0.0000       3.877044       105.4997 
 202   0.0000       3.877044       105.4997 
 203   0.0000       3.877398       105.5094 
 204   0.0000       3.877398       105.5094 
 205   0.0000       3.881521       105.6215 
 206   0.0000       3.881521       105.6215 
 207   0.0000       3.894680       105.9796 
 208   0.0000       3.999044       108.8195 
 209   0.0000       3.999044       108.8195 
 210   0.0000       4.118490       112.0698 
 211   0.0000       4.118490       112.0698 
 212   0.0000       4.125953       112.2729 
 213   0.0000       4.148798       112.8945 
 214   0.0000       4.148798       112.8945 
 215   0.0000       4.248321       115.6027 
 216   0.0000       4.248321       115.6027 
 217   0.0000       4.311847       117.3313 
 218   0.0000       4.311847       117.3313 
 219   0.0000       4.317140       117.4754 
 220   0.0000       4.317140       117.4754 
 221   0.0000       4.343527       118.1934 
 222   0.0000       4.507315       122.6503 
 223   0.0000       4.556408       123.9862 
 224   0.0000       4.556408       123.9862 
 225   0.0000       4.567114       124.2775 
 226   0.0000       4.567114       124.2775 
 227   0.0000       4.707489       128.0973 
 228   0.0000       4.707489       128.0973 
 229   0.0000       4.764250       129.6418 
 230   0.0000       4.805228       130.7569 
 231   0.0000       4.805228       130.7569 
 232   0.0000       4.948139       134.6457 
 233   0.0000       4.948139       134.6457 
 234   0.0000       5.032968       136.9540 
 235   0.0000       5.100753       138.7985 
 236   0.0000       5.100753       138.7985 
 237   0.0000       5.189167       141.2044 
 238   0.0000       5.189167       141.2044 
 239   0.0000       5.352848       145.6584 
 240   0.0000       5.467055       148.7661 
 241   0.0000       5.467055       148.7661 
 242   0.0000       5.549510       151.0099 
 243   0.0000       6.175065       168.0321 
 244   0.0000       6.175065       168.0321 
 245   0.0000       6.207743       168.9213 
 246   0.0000       6.207743       168.9213 
 247   0.0000       6.216808       169.1679 
 248   0.0000       6.422326       174.7604 
 249   0.0000       6.535935       177.8518 
 250   0.0000       6.535935       177.8518 
 251   0.0000       6.708498       182.5475 
 252   0.0000       6.708498       182.5475 
 253   0.0000       6.709019       182.5617 
 254   0.0000       7.236821       196.9239 
 255   0.0000       7.242107       197.0677 
 256   0.0000       7.242107       197.0677 
 257   0.0000       7.705675       209.6821 
 258   0.0000       7.732271       210.4058 
 259   0.0000       7.732271       210.4058 
 260   0.0000       8.100233       220.4185 
 261   0.0000       8.761262       238.4061 
 262   0.0000       8.761262       238.4061 
 263   0.0000       8.833356       240.3678 
 264   0.0000       8.833356       240.3678 
 265   0.0000       9.389215       255.4935 
 266   0.0000       9.598032       261.1757 
 267   0.0000       9.927748       270.1477 
 268   0.0000       9.927748       270.1477 
 269   0.0000       9.968304       271.2513 
 270   0.0000       9.968304       271.2513 
 271   0.0000      10.100101       274.8377 
 272   0.0000      10.100101       274.8377 
 273   0.0000      10.130014       275.6517 
 274   0.0000      10.130014       275.6517 
 275   0.0000      10.201923       277.6084 
 276   0.0000      10.201923       277.6084 
 277   0.0000      10.276184       279.6292 
 278   0.0000      10.276184       279.6292 
 279   0.0000      10.330502       281.1073 
 280   0.0000      10.330502       281.1073 
 281   0.0000      10.621049       289.0134 
 282   0.0000      10.621049       289.0134 
 283   0.0000      10.664542       290.1969 
 284   0.0000      10.699802       291.1564 
 285   0.0000      10.699802       291.1564 
 286   0.0000      10.838249       294.9237 
 287   0.0000      10.838249       294.9237 
 288   0.0000      11.074911       301.3637 
 289   0.0000      11.074912       301.3637 
 290   0.0000      11.130885       302.8868 
 291   0.0000      11.233296       305.6735 
 292   0.0000      11.233296       305.6735 
 293   0.0000      11.371650       309.4383 
 294   0.0000      11.424186       310.8679 
 295   0.0000      11.424186       310.8679 
 296   0.0000      11.555260       314.4346 
 297   0.0000      11.555261       314.4346 
 298   0.0000      11.567558       314.7693 
 299   0.0000      11.567559       314.7693 
 300   0.0000      11.628681       316.4325 
 301   0.0000      11.628681       316.4325 
 302   0.0000      11.660023       317.2854 
 303   0.0000      11.660023       317.2854 
 304   0.0000      11.674518       317.6798 
 305   0.0000      11.674518       317.6798 
 306   0.0000      11.717299       318.8439 
 307   0.0000      11.717299       318.8439 
 308   0.0000      11.827771       321.8500 
 309   0.0000      11.827771       321.8500 
 310   0.0000      11.883050       323.3542 
 311   0.0000      11.883050       323.3542 
 312   0.0000      12.031773       327.4012 
 313   0.0000      12.037107       327.5463 
 314   0.0000      12.037107       327.5463 
 315   0.0000      12.202271       332.0407 
 316   0.0000      12.202271       332.0407 
 317   0.0000      12.465377       339.2001 
 318   0.0000      12.600760       342.8841 
 319   0.0000      12.600760       342.8841 
 320   0.0000      12.688420       345.2695 
 321   0.0000      12.688420       345.2695 
 322   0.0000      12.711625       345.9009 
 323   0.0000      12.711625       345.9009 
 324   0.0000      12.891498       350.7955 
 325   0.0000      13.088114       356.1457 
 326   0.0000      13.088114       356.1457 
 327   0.0000      13.132270       357.3472 
 328   0.0000      13.515971       367.7883 
 329   0.0000      13.515971       367.7883 
 330   0.0000      13.963205       379.9581 
 331   0.0000      14.011831       381.2813 
 332   0.0000      14.011831       381.2813 
 333   0.0000      15.043836       409.3636 
 334   0.0000      15.043836       409.3636 
 335   0.0000      15.106239       411.0617 
 336   0.0000      16.078201       437.5101 
 337   0.0000      16.078201       437.5101 
 338   0.0000      16.145985       439.3546 
 339   0.0000      16.474676       448.2987 
 340   0.0000      16.635447       452.6735 
 341   0.0000      16.635447       452.6735 
 342   0.0000      16.694166       454.2713 
 343   0.0000      16.694166       454.2713 
 344   0.0000      17.214058       468.4183 
 345   0.0000      17.214058       468.4183 
 346   0.0000      17.590314       478.6568 
 347   0.0000      18.088479       492.2125 
 348   0.0000      18.104243       492.6415 
 349   0.0000      18.104243       492.6415 
 350   0.0000      19.093689       519.5657 
 351   0.0000      19.093689       519.5657 
 352   0.0000      19.384950       527.4913 
 353   0.0000      19.384950       527.4913 
 354   0.0000      20.580117       560.0135 
 355   0.0000      21.172871       576.1431 
 356   0.0000      21.314113       579.9865 
 357   0.0000      21.314113       579.9865 
 358   0.0000      23.811419       647.9416 
 359   0.0000      23.811419       647.9416 
 360   0.0000      24.012674       653.4181 
 361   0.0000      26.170466       712.1346 
 362   0.0000      31.863313       867.0448 
 363   0.0000      31.863316       867.0449 
 364   0.0000      31.954478       869.5255 
 365   0.0000      31.954480       869.5256 
 366   0.0000      32.112184       873.8169 
 367   0.0000      32.112184       873.8169 
 368   0.0000      33.249502       904.7650 
 369   0.0000      33.249502       904.7650 
 370   0.0000      33.377461       908.2469 
 371   0.0000      35.514252       966.3919 
 372   0.0000      41.537482      1130.2923 
 373   0.0000      74.444327      2025.7331 
 374   0.0000      76.794035      2089.6719 
 375   0.0000      91.202334      2481.7417 
 376   0.0000      91.202334      2481.7417 
 377   0.0000      92.600976      2519.8007 

                 SPIN DOWN ORBITALS
  NO   OCC          E(Eh)            E(eV) 
   0   1.0000      -9.940587      -270.4971 
   1   1.0000      -9.913269      -269.7538 
   2   1.0000      -0.687273       -18.7017 
   3   1.0000      -0.501776       -13.6540 
   4   1.0000      -0.269247        -7.3266 
   5   1.0000      -0.269247        -7.3266 
   6   0.0000      -0.232159        -6.3174 
   7   0.0000      -0.007727        -0.2103 
   8   0.0000      -0.007727        -0.2103 
   9   0.0000      -0.004816        -0.1310 
  10   0.0000       0.011878         0.3232 
  11   0.0000       0.018763         0.5106 
  12   0.0000       0.018763         0.5106 
  13   0.0000       0.034427         0.9368 
  14   0.0000       0.042077         1.1450 
  15   0.0000       0.042077         1.1450 
  16   0.0000       0.044663         1.2153 
  17   0.0000       0.053414         1.4535 
  18   0.0000       0.080522         2.1911 
  19   0.0000       0.080522         2.1911 
  20   0.0000       0.081534         2.2186 
  21   0.0000       0.081534         2.2186 
  22   0.0000       0.082626         2.2484 
  23   0.0000       0.113874         3.0987 
  24   0.0000       0.115217         3.1352 
  25   0.0000       0.115217         3.1352 
  26   0.0000       0.126300         3.4368 
  27   0.0000       0.126300         3.4368 
  28   0.0000       0.128990         3.5100 
  29   0.0000       0.128990         3.5100 
  30   0.0000       0.137605         3.7444 
  31   0.0000       0.144634         3.9357 
  32   0.0000       0.167639         4.5617 
  33   0.0000       0.183756         5.0003 
  34   0.0000       0.186361         5.0711 
  35   0.0000       0.186361         5.0711 
  36   0.0000       0.197393         5.3713 
  37   0.0000       0.197393         5.3713 
  38   0.0000       0.221679         6.0322 
  39   0.0000       0.221679         6.0322 
  40   0.0000       0.231801         6.3076 
  41   0.0000       0.231801         6.3076 
  42   0.0000       0.240713         6.5501 
  43   0.0000       0.240713         6.5501 
  44   0.0000       0.247643         6.7387 
  45   0.0000       0.249700         6.7947 
  46   0.0000       0.249700         6.7947 
  47   0.0000       0.255322         6.9477 
  48   0.0000       0.255322         6.9477 
  49   0.0000       0.275904         7.5077 
  50   0.0000       0.275904         7.5077 
  51   0.0000       0.280175         7.6240 
  52   0.0000       0.290371         7.9014 
  53   0.0000       0.296142         8.0584 
  54   0.0000       0.296142         8.0584 
  55   0.0000       0.305544         8.3143 
  56   0.0000       0.305544         8.3143 
  57   0.0000       0.315788         8.5930 
  58   0.0000       0.334383         9.0990 
  59   0.0000       0.334383         9.0990 
  60   0.0000       0.337085         9.1726 
  61   0.0000       0.368240        10.0203 
  62   0.0000       0.368240        10.0203 
  63   0.0000       0.381830        10.3901 
  64   0.0000       0.383842        10.4449 
  65   0.0000       0.383842        10.4449 
  66   0.0000       0.398809        10.8521 
  67   0.0000       0.398809        10.8521 
  68   0.0000       0.419411        11.4128 
  69   0.0000       0.419411        11.4128 
  70   0.0000       0.434039        11.8108 
  71   0.0000       0.469259        12.7692 
  72   0.0000       0.469259        12.7692 
  73   0.0000       0.475971        12.9518 
  74   0.0000       0.475971        12.9518 
  75   0.0000       0.479264        13.0414 
  76   0.0000       0.479264        13.0414 
  77   0.0000       0.483366        13.1530 
  78   0.0000       0.483366        13.1530 
  79   0.0000       0.492904        13.4126 
  80   0.0000       0.492904        13.4126 
  81   0.0000       0.504501        13.7282 
  82   0.0000       0.517120        14.0715 
  83   0.0000       0.517120        14.0715 
  84   0.0000       0.520660        14.1679 
  85   0.0000       0.520660        14.1679 
  86   0.0000       0.520771        14.1709 
  87   0.0000       0.541198        14.7268 
  88   0.0000       0.541198        14.7268 
  89   0.0000       0.544523        14.8172 
  90   0.0000       0.565556        15.3896 
  91   0.0000       0.565556        15.3896 
  92   0.0000       0.565984        15.4012 
  93   0.0000       0.565984        15.4012 
  94   0.0000       0.570290        15.5184 
  95   0.0000       0.581271        15.8172 
  96   0.0000       0.581271        15.8172 
  97   0.0000       0.600315        16.3354 
  98   0.0000       0.600315        16.3354 
  99   0.0000       0.603677        16.4269 
 100   0.0000       0.624002        16.9800 
 101   0.0000       0.624002        16.9800 
 102   0.0000       0.649388        17.6707 
 103   0.0000       0.649388        17.6707 
 104   0.0000       0.668624        18.1942 
 105   0.0000       0.668624        18.1942 
 106   0.0000       0.705812        19.2061 
 107   0.0000       0.714647        19.4465 
 108   0.0000       0.714647        19.4465 
 109   0.0000       0.733394        19.9567 
 110   0.0000       0.733394        19.9567 
 111   0.0000       0.740069        20.1383 
 112   0.0000       0.742157        20.1951 
 113   0.0000       0.742157        20.1951 
 114   0.0000       0.759148        20.6575 
 115   0.0000       0.759148        20.6575 
 116   0.0000       0.767603        20.8875 
 117   0.0000       0.767603        20.8875 
 118   0.0000       0.769985        20.9524 
 119   0.0000       0.786114        21.3913 
 120   0.0000       0.786114        21.3913 
 121   0.0000       0.791053        21.5256 
 122   0.0000       0.791053        21.5256 
 123   0.0000       0.803067        21.8526 
 124   0.0000       0.803067        21.8526 
 125   0.0000       0.853803        23.2332 
 126   0.0000       0.853803        23.2332 
 127   0.0000       0.857439        23.3321 
 128   0.0000       0.871609        23.7177 
 129   0.0000       0.871609        23.7177 
 130   0.0000       0.883683        24.0462 
 131   0.0000       0.886124        24.1127 
 132   0.0000       0.886124        24.1127 
 133   0.0000       0.901698        24.5365 
 134   0.0000       0.901698        24.5365 
 135   0.0000       0.924117        25.1465 
 136   0.0000       0.962994        26.2044 
 137   0.0000       0.962994        26.2044 
 138   0.0000       0.990597        26.9555 
 139   0.0000       1.048331        28.5265 
 140   0.0000       1.048331        28.5265 
 141   0.0000       1.087354        29.5884 
 142   0.0000       1.090764        29.6812 
 143   0.0000       1.123463        30.5710 
 144   0.0000       1.123463        30.5710 
 145   0.0000       1.232866        33.5480 
 146   0.0000       1.232866        33.5480 
 147   0.0000       1.247261        33.9397 
 148   0.0000       1.247261        33.9397 
 149   0.0000       1.287694        35.0399 
 150   0.0000       1.287694        35.0399 
 151   0.0000       1.310155        35.6511 
 152   0.0000       1.365480        37.1566 
 153   0.0000       1.365480        37.1566 
 154   0.0000       1.376465        37.4555 
 155   0.0000       1.460655        39.7464 
 156   0.0000       1.496873        40.7320 
 157   0.0000       1.496873        40.7320 
 158   0.0000       1.613309        43.9004 
 159   0.0000       1.613309        43.9004 
 160   0.0000       1.623629        44.1812 
 161   0.0000       1.653506        44.9942 
 162   0.0000       1.681842        45.7652 
 163   0.0000       1.681842        45.7652 
 164   0.0000       1.762766        47.9673 
 165   0.0000       1.762766        47.9673 
 166   0.0000       1.880248        51.1641 
 167   0.0000       1.880248        51.1641 
 168   0.0000       1.917225        52.1703 
 169   0.0000       1.971823        53.6560 
 170   0.0000       1.971823        53.6560 
 171   0.0000       2.075502        56.4773 
 172   0.0000       2.075502        56.4773 
 173   0.0000       2.144208        58.3469 
 174   0.0000       2.167851        58.9902 
 175   0.0000       2.167851        58.9902 
 176   0.0000       2.247760        61.1647 
 177   0.0000       2.247760        61.1647 
 178   0.0000       2.267056        61.6897 
 179   0.0000       2.267056        61.6897 
 180   0.0000       2.324517        63.2533 
 181   0.0000       2.410252        65.5863 
 182   0.0000       2.491879        67.8075 
 183   0.0000       2.623162        71.3799 
 184   0.0000       2.623162        71.3799 
 185   0.0000       2.660328        72.3912 
 186   0.0000       2.660328        72.3912 
 187   0.0000       2.721346        74.0516 
 188   0.0000       2.752313        74.8942 
 189   0.0000       2.752313        74.8942 
 190   0.0000       2.778308        75.6016 
 191   0.0000       3.076580        83.7180 
 192   0.0000       3.076580        83.7180 
 193   0.0000       3.100381        84.3657 
 194   0.0000       3.412543        92.8600 
 195   0.0000       3.412543        92.8600 
 196   0.0000       3.448615        93.8416 
 197   0.0000       3.481394        94.7336 
 198   0.0000       3.481394        94.7336 
 199   0.0000       3.587699        97.6262 
 200   0.0000       3.587699        97.6262 
 201   0.0000       3.880806       105.6021 
 202   0.0000       3.880806       105.6021 
 203   0.0000       3.885166       105.7207 
 204   0.0000       3.885166       105.7207 
 205   0.0000       3.913511       106.4921 
 206   0.0000       3.913511       106.4921 
 207   0.0000       3.927861       106.8825 
 208   0.0000       4.013484       109.2125 
 209   0.0000       4.013484       109.2125 
 210   0.0000       4.135862       112.5425 
 211   0.0000       4.141113       112.6854 
 212   0.0000       4.141113       112.6854 
 213   0.0000       4.179415       113.7277 
 214   0.0000       4.179415       113.7277 
 215   0.0000       4.260299       115.9286 
 216   0.0000       4.260299       115.9286 
 217   0.0000       4.323641       117.6523 
 218   0.0000       4.323641       117.6523 
 219   0.0000       4.323653       117.6526 
 220   0.0000       4.323653       117.6526 
 221   0.0000       4.354105       118.4812 
 222   0.0000       4.548228       123.7636 
 223   0.0000       4.590958       124.9263 
 224   0.0000       4.590958       124.9263 
 225   0.0000       4.617853       125.6582 
 226   0.0000       4.617853       125.6582 
 227   0.0000       4.726096       128.6036 
 228   0.0000       4.726096       128.6036 
 229   0.0000       4.768248       129.7506 
 230   0.0000       4.820448       131.1711 
 231   0.0000       4.820448       131.1711 
 232   0.0000       5.053422       137.5106 
 233   0.0000       5.053422       137.5106 
 234   0.0000       5.117352       139.2502 
 235   0.0000       5.117352       139.2502 
 236   0.0000       5.153413       140.2315 
 237   0.0000       5.239093       142.5630 
 238   0.0000       5.239093       142.5630 
 239   0.0000       5.387905       146.6123 
 240   0.0000       5.497052       149.5824 
 241   0.0000       5.497052       149.5824 
 242   0.0000       5.597022       152.3027 
 243   0.0000       6.197096       168.6316 
 244   0.0000       6.197096       168.6316 
 245   0.0000       6.237433       169.7292 
 246   0.0000       6.237433       169.7292 
 247   0.0000       6.256283       170.2421 
 248   0.0000       6.456858       175.7000 
 249   0.0000       6.535529       177.8408 
 250   0.0000       6.535529       177.8408 
 251   0.0000       6.723007       182.9423 
 252   0.0000       6.723007       182.9423 
 253   0.0000       6.757526       183.8816 
 254   0.0000       7.263205       197.6419 
 255   0.0000       7.264571       197.6790 
 256   0.0000       7.264571       197.6790 
 257   0.0000       7.724900       210.2052 
 258   0.0000       7.762960       211.2409 
 259   0.0000       7.762960       211.2409 
 260   0.0000       8.109138       220.6609 
 261   0.0000       8.767285       238.5699 
 262   0.0000       8.767285       238.5699 
 263   0.0000       8.839096       240.5240 
 264   0.0000       8.839096       240.5240 
 265   0.0000       9.400010       255.7873 
 266   0.0000       9.620031       261.7743 
 267   0.0000       9.947705       270.6908 
 268   0.0000       9.947705       270.6908 
 269   0.0000      10.013271       272.4750 
 270   0.0000      10.013271       272.4750 
 271   0.0000      10.127145       275.5736 
 272   0.0000      10.127145       275.5736 
 273   0.0000      10.151524       276.2370 
 274   0.0000      10.151524       276.2370 
 275   0.0000      10.232138       278.4306 
 276   0.0000      10.232138       278.4306 
 277   0.0000      10.283642       279.8321 
 278   0.0000      10.283642       279.8321 
 279   0.0000      10.360468       281.9227 
 280   0.0000      10.360468       281.9227 
 281   0.0000      10.644658       289.6559 
 282   0.0000      10.644658       289.6559 
 283   0.0000      10.698929       291.1327 
 284   0.0000      10.715380       291.5803 
 285   0.0000      10.715380       291.5803 
 286   0.0000      10.848400       295.2000 
 287   0.0000      10.848400       295.2000 
 288   0.0000      11.116097       302.4844 
 289   0.0000      11.116097       302.4844 
 290   0.0000      11.161984       303.7330 
 291   0.0000      11.257000       306.3185 
 292   0.0000      11.257000       306.3185 
 293   0.0000      11.421058       310.7828 
 294   0.0000      11.448838       311.5387 
 295   0.0000      11.448838       311.5387 
 296   0.0000      11.549698       314.2833 
 297   0.0000      11.549700       314.2833 
 298   0.0000      11.594367       315.4988 
 299   0.0000      11.594369       315.4988 
 300   0.0000      11.657752       317.2236 
 301   0.0000      11.657752       317.2236 
 302   0.0000      11.674434       317.6775 
 303   0.0000      11.674434       317.6775 
 304   0.0000      11.722889       318.9960 
 305   0.0000      11.722889       318.9960 
 306   0.0000      11.807906       321.3095 
 307   0.0000      11.807906       321.3095 
 308   0.0000      11.845820       322.3411 
 309   0.0000      11.845820       322.3411 
 310   0.0000      11.908630       324.0503 
 311   0.0000      11.908630       324.0503 
 312   0.0000      12.094822       329.1168 
 313   0.0000      12.094822       329.1168 
 314   0.0000      12.118091       329.7500 
 315   0.0000      12.215069       332.3889 
 316   0.0000      12.215069       332.3889 
 317   0.0000      12.506582       340.3214 
 318   0.0000      12.678506       344.9997 
 319   0.0000      12.678506       344.9997 
 320   0.0000      12.719152       346.1057 
 321   0.0000      12.719152       346.1057 
 322   0.0000      12.826774       349.0343 
 323   0.0000      12.826775       349.0343 
 324   0.0000      12.917524       351.5037 
 325   0.0000      13.111400       356.7793 
 326   0.0000      13.111400       356.7793 
 327   0.0000      13.197486       359.1219 
 328   0.0000      13.530635       368.1873 
 329   0.0000      13.530635       368.1873 
 330   0.0000      14.042786       382.1236 
 331   0.0000      14.081902       383.1880 
 332   0.0000      14.081902       383.1880 
 333   0.0000      15.070617       410.0923 
 334   0.0000      15.070617       410.0923 
 335   0.0000      15.121810       411.4854 
 336   0.0000      16.102580       438.1735 
 337   0.0000      16.102580       438.1735 
 338   0.0000      16.197789       440.7643 
 339   0.0000      16.515124       449.3994 
 340   0.0000      16.650129       453.0730 
 341   0.0000      16.650129       453.0730 
 342   0.0000      16.699956       454.4289 
 343   0.0000      16.699956       454.4289 
 344   0.0000      17.219591       468.5689 
 345   0.0000      17.219591       468.5689 
 346   0.0000      17.599697       478.9121 
 347   0.0000      18.115186       492.9393 
 348   0.0000      18.125424       493.2179 
 349   0.0000      18.125424       493.2179 
 350   0.0000      19.099546       519.7251 
 351   0.0000      19.099546       519.7251 
 352   0.0000      19.401276       527.9356 
 353   0.0000      19.401276       527.9356 
 354   0.0000      20.587600       560.2171 
 355   0.0000      21.204052       576.9916 
 356   0.0000      21.319819       580.1418 
 357   0.0000      21.319819       580.1418 
 358   0.0000      23.819743       648.1682 
 359   0.0000      23.819743       648.1682 
 360   0.0000      24.030434       653.9013 
 361   0.0000      26.177895       712.3367 
 362   0.0000      31.876323       867.3988 
 363   0.0000      31.876326       867.3989 
 364   0.0000      31.957545       869.6090 
 365   0.0000      31.957548       869.6091 
 366   0.0000      32.136525       874.4793 
 367   0.0000      32.136525       874.4793 
 368   0.0000      33.276623       905.5029 
 369   0.0000      33.276623       905.5029 
 370   0.0000      33.423159       909.4904 
 371   0.0000      35.531682       966.8662 
 372   0.0000      41.544948      1130.4955 
 373   0.0000      74.468017      2026.3778 
 374   0.0000      76.794702      2089.6901 
 375   0.0000      91.211482      2481.9906 
 376   0.0000      91.211482      2481.9906 
 377   0.0000      92.609973      2520.0455 

                    ********************************
                    * MULLIKEN POPULATION ANALYSIS *
                    ********************************

--------------------------------------------
MULLIKEN ATOMIC CHARGES AND SPIN POPULATIONS
--------------------------------------------
   0 C :   -0.047202   -0.008305
   1 C :    0.001448    0.972862
   2 H :    0.045754    0.035443
Sum of atomic charges         :   -0.0000000
Sum of atomic spin populations:    1.0000000

-----------------------------------------------------
MULLIKEN REDUCED ORBITAL CHARGES AND SPIN POPULATIONS
-----------------------------------------------------
CHARGE
  0 C s       :     3.129187  s :     3.129187
      pz      :     0.926111  p :     2.881943
      px      :     0.977916
      py      :     0.977916
      dz2     :    -0.005881  d :     0.028371
      dxz     :     0.017126
      dyz     :     0.017126
      dx2y2   :     0.000000
      dxy     :     0.000000
      f0      :     0.003151  f :     0.007631
      f+1     :     0.002240
      f-1     :     0.002240
      f+2     :     0.000000
      f-2     :    -0.000000
      f+3     :     0.000000
      f-3     :     0.000000
      g0      :     0.000373  g :     0.000238
      g+1     :    -0.000068
      g-1     :    -0.000068
      g+2     :     0.000000
      g-2     :     0.000000
      g+3     :     0.000000
      g-3     :     0.000000
      g+4     :     0.000000
      g-4     :    -0.000000
      h0      :    -0.000025  h :    -0.000166
      h+1     :    -0.000070
      h-1     :    -0.000070
      h+2     :    -0.000000
      h-2     :    -0.000000
      h+3     :    -0.000000
      h-3     :    -0.000000
      h+4     :     0.000000
      h-4     :    -0.000000
      h+5     :     0.000000
      h-5     :     0.000000
  1 C s       :     3.289477  s :     3.289477
      pz      :     0.757026  p :     2.674345
      px      :     0.958659
      py      :     0.958659
      dz2     :     0.007686  d :     0.028287
      dxz     :     0.010300
      dyz     :     0.010300
      dx2y2   :    -0.000000
      dxy     :    -0.000000
      f0      :     0.001271  f :     0.005713
      f+1     :     0.002221
      f-1     :     0.002221
      f+2     :     0.000000
      f-2     :     0.000000
      f+3     :     0.000000
      f-3     :     0.000000
      g0      :     0.000255  g :     0.000761
      g+1     :     0.000253
      g-1     :     0.000253
      g+2     :    -0.000000
      g-2     :    -0.000000
      g+3     :     0.000000
      g-3     :     0.000000
      g+4     :     0.000000
      g-4     :     0.000000
      h0      :     0.000046  h :    -0.000031
      h+1     :    -0.000039
      h-1     :    -0.000039
      h+2     :    -0.000000
      h-2     :    -0.000000
      h+3     :     0.000000
      h-3     :     0.000000
      h+4     :     0.000000
      h-4     :    -0.000000
      h+5     :     0.000000
      h-5     :     0.000000
  2 H s       :     0.863691  s :     0.863691
      pz      :     0.023433  p :     0.085742
      px      :     0.031154
      py      :     0.031154
      dz2     :     0.003023  d :     0.007480
      dxz     :     0.002228
      dyz     :     0.002229
      dx2y2   :    -0.000000
      dxy     :     0.000000
      f0      :     0.000987  f :    -0.001784
      f+1     :    -0.001385
      f-1     :    -0.001385
      f+2     :     0.000000
      f-2     :     0.000000
      f+3     :     0.000000
      f-3     :     0.000000
      g0      :     0.000187  g :    -0.000884
      g+1     :    -0.000536
      g-1     :    -0.000536
      g+2     :    -0.000000
      g-2     :    -0.000000
      g+3     :     0.000000
      g-3     :     0.000000
      g+4     :    -0.000000
      g-4     :     0.000000

SPIN
  0 C s       :     0.064056  s :     0.064056
      pz      :     0.070487  p :    -0.082193
      px      :    -0.076340
      py      :    -0.076340
      dz2     :    -0.009426  d :     0.006971
      dxz     :     0.008199
      dyz     :     0.008199
      dx2y2   :     0.000000
      dxy     :     0.000000
      f0      :     0.001687  f :     0.002985
      f+1     :     0.000649
      f-1     :     0.000649
      f+2     :     0.000000
      f-2     :     0.000000
      f+3     :    -0.000000
      f-3     :    -0.000000
      g0      :     0.000336  g :     0.000035
      g+1     :    -0.000151
      g-1     :    -0.000151
      g+2     :     0.000000
      g-2     :     0.000000
      g+3     :     0.000000
      g-3     :     0.000000
      g+4     :     0.000000
      g-4     :     0.000000
      h0      :    -0.000041  h :    -0.000159
      h+1     :    -0.000059
      h-1     :    -0.000059
      h+2     :     0.000000
      h-2     :    -0.000000
      h+3     :    -0.000000
      h-3     :    -0.000000
      h+4     :     0.000000
      h-4     :    -0.000000
      h+5     :    -0.000000
      h-5     :    -0.000000
  1 C s       :     0.336469  s :     0.336469
      pz      :     0.511857  p :     0.669182
      px      :     0.078662
      py      :     0.078662
      dz2     :    -0.003359  d :    -0.035529
      dxz     :    -0.016085
      dyz     :    -0.016085
      dx2y2   :    -0.000000
      dxy     :    -0.000000
      f0      :     0.000462  f :     0.002163
      f+1     :     0.000850
      f-1     :     0.000850
      f+2     :     0.000000
      f-2     :    -0.000000
      f+3     :     0.000000
      f-3     :     0.000000
      g0      :     0.000222  g :     0.000493
      g+1     :     0.000135
      g-1     :     0.000135
      g+2     :    -0.000000
      g-2     :    -0.000000
      g+3     :     0.000000
      g-3     :     0.000000
      g+4     :     0.000000
      g-4     :    -0.000000
      h0      :     0.000040  h :     0.000085
      h+1     :     0.000022
      h-1     :     0.000022
      h+2     :    -0.000000
      h-2     :    -0.000000
      h+3     :    -0.000000
      h-3     :    -0.000000
      h+4     :     0.000000
      h-4     :    -0.000000
      h+5     :    -0.000000
      h-5     :    -0.000000
  2 H s       :     0.030744  s :     0.030744
      pz      :    -0.004968  p :    -0.004145
      px      :     0.000412
      py      :     0.000412
      dz2     :    -0.000065  d :     0.005355
      dxz     :     0.002710
      dyz     :     0.002710
      dx2y2   :     0.000000
      dxy     :    -0.000000
      f0      :     0.001254  f :     0.003131
      f+1     :     0.000939
      f-1     :     0.000939
      f+2     :     0.000000
      f-2     :     0.000000
      f+3     :     0.000000
      f-3     :     0.000000
      g0      :     0.000243  g :     0.000357
      g+1     :     0.000057
      g-1     :     0.000057
      g+2     :    -0.000000
      g-2     :    -0.000000
      g+3     :    -0.000000
      g-3     :    -0.000000
      g+4     :     0.000000
      g-4     :     0.000000


                     *******************************
                     * LOEWDIN POPULATION ANALYSIS *
                     *******************************

-------------------------------------------
LOEWDIN ATOMIC CHARGES AND SPIN POPULATIONS
-------------------------------------------
   0 C :    0.331523    0.123144
   1 C :    0.312067    0.849815
   2 H :   -0.643590    0.027041

----------------------------------------------------
LOEWDIN REDUCED ORBITAL CHARGES AND SPIN POPULATIONS
----------------------------------------------------
CHARGE
  0 C s       :     2.694171  s :     2.694171
      pz      :     1.103154  p :     2.575027
      px      :     0.735936
      py      :     0.735936
      dz2     :     0.125679  d :     0.272683
      dxz     :     0.073502
      dyz     :     0.073502
      dx2y2   :     0.000000
      dxy     :     0.000000
      f0      :     0.036530  f :     0.091273
      f+1     :     0.027371
      f-1     :     0.027371
      f+2     :     0.000000
      f-2     :     0.000000
      f+3     :     0.000000
      f-3     :     0.000000
      g0      :     0.012160  g :     0.028502
      g+1     :     0.008171
      g-1     :     0.008171
      g+2     :     0.000000
      g-2     :     0.000000
      g+3     :     0.000000
      g-3     :     0.000000
      g+4     :     0.000000
      g-4     :     0.000000
      h0      :     0.002383  h :     0.006821
      h+1     :     0.002219
      h-1     :     0.002219
      h+2     :     0.000000
      h-2     :     0.000000
      h+3     :     0.000000
      h-3     :     0.000000
      h+4     :     0.000000
      h-4     :     0.000000
      h+5     :     0.000000
      h-5     :     0.000000
  1 C s       :     2.799323  s :     2.799323
      pz      :     0.895816  p :     2.506989
      px      :     0.805587
      py      :     0.805587
      dz2     :     0.124782  d :     0.245645
      dxz     :     0.060431
      dyz     :     0.060431
      dx2y2   :     0.000000
      dxy     :     0.000000
      f0      :     0.040671  f :     0.093319
      f+1     :     0.026324
      f-1     :     0.026324
      f+2     :     0.000000
      f-2     :     0.000000
      f+3     :     0.000000
      f-3     :     0.000000
      g0      :     0.020175  g :     0.034416
      g+1     :     0.007120
      g-1     :     0.007120
      g+2     :     0.000000
      g-2     :     0.000000
      g+3     :     0.000000
      g-3     :     0.000000
      g+4     :     0.000000
      g-4     :     0.000000
      h0      :     0.006502  h :     0.008240
      h+1     :     0.000869
      h-1     :     0.000869
      h+2     :     0.000000
      h-2     :     0.000000
      h+3     :     0.000000
      h-3     :     0.000000
      h+4     :     0.000000
      h-4     :     0.000000
      h+5     :     0.000000
      h-5     :     0.000000
  2 H s       :     0.769203  s :     0.769203
      pz      :     0.191991  p :     0.380869
      px      :     0.094439
      py      :     0.094439
      dz2     :     0.098405  d :     0.280839
      dxz     :     0.091217
      dyz     :     0.091217
      dx2y2   :     0.000000
      dxy     :     0.000000
      f0      :     0.053185  f :     0.139044
      f+1     :     0.042930
      f-1     :     0.042930
      f+2     :     0.000000
      f-2     :     0.000000
      f+3     :     0.000000
      f-3     :     0.000000
      g0      :     0.025868  g :     0.073635
      g+1     :     0.023883
      g-1     :     0.023883
      g+2     :     0.000000
      g-2     :     0.000000
      g+3     :     0.000000
      g-3     :     0.000000
      g+4     :     0.000000
      g-4     :     0.000000

SPIN
  0 C s       :     0.030004  s :     0.030004
      pz      :     0.077025  p :    -0.031705
      px      :    -0.054365
      py      :    -0.054365
      dz2     :     0.071171  d :     0.093475
      dxz     :     0.011152
      dyz     :     0.011152
      dx2y2   :     0.000000
      dxy     :     0.000000
      f0      :     0.011654  f :     0.021769
      f+1     :     0.005058
      f-1     :     0.005058
      f+2     :     0.000000
      f-2     :     0.000000
      f+3     :    -0.000000
      f-3     :    -0.000000
      g0      :     0.004693  g :     0.007339
      g+1     :     0.001323
      g-1     :     0.001323
      g+2     :     0.000000
      g-2     :     0.000000
      g+3     :     0.000000
      g-3     :     0.000000
      g+4     :     0.000000
      g-4     :     0.000000
      h0      :     0.001434  h :     0.002262
      h+1     :     0.000414
      h-1     :     0.000414
      h+2     :     0.000000
      h-2     :     0.000000
      h+3     :    -0.000000
      h-3     :    -0.000000
      h+4     :     0.000000
      h-4     :    -0.000000
      h+5     :    -0.000000
      h-5     :    -0.000000
  1 C s       :     0.211086  s :     0.211086
      pz      :     0.535771  p :     0.677073
      px      :     0.070651
      py      :     0.070651
      dz2     :     0.001047  d :    -0.033143
      dxz     :    -0.017095
      dyz     :    -0.017095
      dx2y2   :     0.000000
      dxy     :    -0.000000
      f0      :     0.000720  f :    -0.004063
      f+1     :    -0.002391
      f-1     :    -0.002391
      f+2     :     0.000000
      f-2     :     0.000000
      f+3     :     0.000000
      f-3     :     0.000000
      g0      :     0.000222  g :    -0.001126
      g+1     :    -0.000674
      g-1     :    -0.000674
      g+2     :     0.000000
      g-2     :     0.000000
      g+3     :     0.000000
      g-3     :     0.000000
      g+4     :     0.000000
      g-4     :     0.000000
      h0      :     0.000169  h :    -0.000013
      h+1     :    -0.000091
      h-1     :    -0.000091
      h+2     :     0.000000
      h-2     :     0.000000
      h+3     :    -0.000000
      h-3     :    -0.000000
      h+4     :     0.000000
      h-4     :     0.000000
      h+5     :    -0.000000
      h-5     :    -0.000000
  2 H s       :     0.017298  s :     0.017298
      pz      :     0.005142  p :    -0.015379
      px      :    -0.010260
      py      :    -0.010260
      dz2     :     0.011090  d :    -0.001750
      dxz     :    -0.006420
      dyz     :    -0.006420
      dx2y2   :     0.000000
      dxy     :     0.000000
      f0      :     0.011095  f :     0.011897
      f+1     :     0.000401
      f-1     :     0.000401
      f+2     :     0.000000
      f-2     :     0.000000
      f+3     :     0.000000
      f-3     :     0.000000
      g0      :     0.010379  g :     0.014974
      g+1     :     0.002298
      g-1     :     0.002298
      g+2     :     0.000000
      g-2     :    -0.000000
      g+3     :     0.000000
      g-3     :     0.000000
      g+4     :     0.000000
      g-4     :     0.000000


                      *****************************
                      * MAYER POPULATION ANALYSIS *
                      *****************************

  NA   - Mulliken gross atomic population
  ZA   - Total nuclear charge
  QA   - Mulliken gross atomic charge
  VA   - Mayer's total valence
  BVA  - Mayer's bonded valence
  FA   - Mayer's free valence

  ATOM       NA         ZA         QA         VA         BVA        FA
  0 C      6.0472     6.0000    -0.0472     3.8916     3.8768     0.0147
  1 C      5.9986     6.0000     0.0014     3.9061     2.9756     0.9305
  2 H      0.9542     1.0000     0.0458     1.1550     1.1532     0.0018

  Mayer bond orders larger than 0.1
B(  0-C ,  1-C ) :   2.8496 B(  0-C ,  2-H ) :   1.0272 B(  1-C ,  2-H ) :   0.1260 


-------
TIMINGS
-------

Total SCF time: 0 days 1 hours 2 min 0 sec 

Total time                  ....    3720.067 sec
Sum of individual times     ....    3719.310 sec  (100.0%)

Fock matrix formation       ....    3710.246 sec  ( 99.7%)
  XC integration            ....     142.795 sec  (  3.8% of F)
    Basis function eval.    ....       9.233 sec  (  6.5% of XC)
    Density eval.           ....      27.990 sec  ( 19.6% of XC)
    XC-Functional eval.     ....       1.227 sec  (  0.9% of XC)
    XC-Potential eval.      ....     103.577 sec  ( 72.5% of XC)
Diagonalization             ....       1.411 sec  (  0.0%)
Density matrix formation    ....       0.026 sec  (  0.0%)
Population analysis         ....       0.097 sec  (  0.0%)
Initial guess               ....       4.707 sec  (  0.1%)
Orbital Transformation      ....       0.000 sec  (  0.0%)
Orbital Orthonormalization  ....       0.000 sec  (  0.0%)
DIIS solution               ....       0.648 sec  (  0.0%)
Grid generation             ....       2.175 sec  (  0.1%)

-------------------------   --------------------
FINAL SINGLE POINT ENERGY       -76.538744063042
-------------------------   --------------------


                            ***************************************
                            *     ORCA property calculations      *
                            ***************************************

                                    ---------------------
                                    Active property flags
                                    ---------------------
   (+) Dipole Moment
   (+) Polarizability


------------------------------------------------------------------------------
                       ORCA ELECTRIC PROPERTIES CALCULATION
------------------------------------------------------------------------------

Dipole Moment Calculation                       ... on
Quadrupole Moment Calculation                   ... off
Polarizability Calculation                      ... Analytic (CP-SCF)
GBWName                                         ... c2h_pbe.gbw
Electron density file                           ... c2h_pbe.scfp.tmp
The origin for moment calculation is the CENTER OF MASS  = ( 0.000000,  0.000000 -1.023495)

-------------
DIPOLE MOMENT
-------------
                                X             Y             Z
Electronic contribution:     -0.00000       0.00000      -1.18993
Nuclear contribution   :      0.00000       0.00000       1.48993
                        -----------------------------------------
Total Dipole Moment    :     -0.00000       0.00000       0.29999
                        -----------------------------------------
Magnitude (a.u.)       :      0.29999
Magnitude (Debye)      :      0.76253



--------------------
Rotational spectrum 
--------------------
 
Rotational constants in cm-1:     0.000000     1.461267     1.461267 
Rotational constants in MHz :     0.000000 43807.678146 43807.678146 

 Dipole components along the rotational axes: 
x,y,z [a.u.] :     0.299995     0.000000    -0.000000 
x,y,z [Debye]:     0.762526     0.000000    -0.000000 

 
Transforming and storing MO dipole integrals   ... done

                ... starting polarizability calculation

Opening the Dipole integral file               ... (c2h_pbe.dmo.tmp) done
Reading Dipole-MO integrals                    ... done
Solving CP-SCF equations                       ... 
------------------------------------------------------------------------------
                           ORCA CP-SCF CALCULATION
------------------------------------------------------------------------------

Input orbitals are from        ... c2h_pbe.gbw
Input Perturbation             ... c2h_pbe.cpv.tmp
Wavefunction output            ... c2h_pbe.cpu.tmp
Perturbation mode              ... Real perturbation (singlet)
Solver                         ... POPLE
Max. number of iterations      ... 200
Convergence tolerance          ... 1.000e-06
Integral handling              ... Direct
Number of perturbations        ... 3
Number of operators            ... 2
Orbital ranges used for CP-SCF:
 Operator 0:  Orbitals   0...  6  to   7...377
 Operator 1:  Orbitals   0...  5  to   6...377
DFT calculation                         ... on
Exchange functional (SCF)               ... PBE
Exchange functional (CP-SCF)            ... PBE
   PBE kappa parameter  XKappa (SCF)    ...  0.804000
   PBE kappa parameter  XKappa (CP-SCF) ...  0.804000
   PBE mue parameter   XMuePBE (SCF)    ...  0.219520
   PBE mue parameter   XMuePBE (CP-SCF) ...  0.219520
Correlation functional (SCF)            ... PBE
Correlation functional (CP-SCF)         ... PBE
   PBE beta parameter CBetaPBE (SCF)    ...  0.066725
   PBE beta parameter CBetaPBE (CP-SCF) ...  0.066725
 LDA part of GGA corr.  LDAOpt (SCF)    ... PW91-LDA
 LDA part of GGA corr.  LDAOpt (CP-SCF) ... PW91-LDA
Variables per vector in CP-SCF ... 4829
Number of vectors sought       ... 3
Recalculating density on grid  ... done
Calculating the xc-kernel      ... done
     CP-SCF ITERATION   0: 
     CP-SCF ITERATION   1:      8.732939121445
     CP-SCF ITERATION   2:      0.129555398913
     CP-SCF ITERATION   3:      0.005089601519
     CP-SCF ITERATION   4:      0.000366352835
     CP-SCF ITERATION   5:      0.000005005135
     CP-SCF ITERATION   6:      0.000000368371
done
Reading CP-SCF coefficients                    ... done
Doing the polarizability tensor   ... done
Cleaning up                                    ... done

-------------------------
THE POLARIZABILITY TENSOR
-------------------------

The raw cartesian tensor (atomic units):
   25.94867      0.00000      0.00000  
    0.00000     25.94867     -0.00000  
    0.00000     -0.00000     27.91942  
diagonalized tensor: 
   25.94867     25.94867     27.91942  

    0.99501     -0.09981      0.00000  
   -0.09981     -0.99501     -0.00000  
   -0.00000     -0.00000      1.00000  

Isotropic polarizability :  26.60559


Timings for individual modules:

Sum of individual times         ...     6401.045 sec (= 106.684 min)
GTO integral calculation        ...        1.199 sec (=   0.020 min)   0.0 %
SCF iterations                  ...     3720.088 sec (=  62.001 min)  58.1 %
Solution of CP-SCF eqns.        ...     2679.759 sec (=  44.663 min)  41.9 %
                             ****ORCA TERMINATED NORMALLY****
TOTAL RUN TIME: 0 days 1 hours 46 minutes 41 seconds 488 msec
