
                                 *****************
                                 * O   R   C   A *
                                 *****************

           --- An Ab Initio, DFT and Semiempirical electronic structure package ---

                  #######################################################
                  #                        -***-                        #
                  #          Department of theory and spectroscopy      #
                  #               Directorship: Frank Neese             #
                  #        Max Planck Institute fuer Kohlenforschung    #
                  #                Kaiser Wilhelm Platz 1               #
                  #                 D-45470 Muelheim/Ruhr               #
                  #                      Germany                        #
                  #                                                     #
                  #                  All rights reserved                #
                  #                        -***-                        #
                  #######################################################


                         Program Version 4.1.2  - RELEASE  -


 With contributions from (in alphabetic order):
   Daniel Aravena         : Magnetic Properties
   Michael Atanasov       : Ab Initio Ligand Field Theory
   Alexander A. Auer      : GIAO ZORA
   Ute Becker             : Parallelization
   Giovanni Bistoni       : ED, Open-shell LED
   Martin Brehm           : Molecular dynamics
   Dmytro Bykov           : SCF Hessian
   Vijay G. Chilkuri      : MRCI spin determinant printing
   Dipayan Datta          : RHF DLPNO-CCSD density
   Achintya Kumar Dutta   : EOM-CC, STEOM-CC
   Dmitry Ganyushin       : Spin-Orbit,Spin-Spin,Magnetic field MRCI
   Miquel Garcia          : C-PCM Hessian
   Yang Guo               : DLPNO-NEVPT2, CIM, IAO-localization
   Andreas Hansen         : Spin unrestricted coupled pair/coupled cluster methods
   Benjamin Helmich-Paris : CASSCF linear response (MC-RPA)
   Lee Huntington         : MR-EOM, pCC
   Robert Izsak           : Overlap fitted RIJCOSX, COSX-SCS-MP3, EOM
   Christian Kollmar      : KDIIS, OOCD, Brueckner-CCSD(T), CCSD density
   Simone Kossmann        : Meta GGA functionals, TD-DFT gradient, OOMP2, MP2 Hessian
   Martin Krupicka        : AUTO-CI
   Lucas Lang             : DCDCAS
   Dagmar Lenk            : GEPOL surface, SMD
   Dimitrios Liakos       : Extrapolation schemes; parallel MDCI
   Dimitrios Manganas     : ROCIS; embedding schemes
   Dimitrios Pantazis     : SARC Basis sets
   Taras Petrenko         : DFT Hessian,TD-DFT gradient, ASA, ECA, R-Raman, ABS, FL, XAS/XES, NRVS
   Peter Pinski           : DLPNO-MP2, DLPNO-MP2 Gradient
   Christoph Reimann      : Effective Core Potentials
   Marius Retegan         : Local ZFS, SOC
   Christoph Riplinger    : Optimizer, TS searches, QM/MM, DLPNO-CCSD(T), (RO)-DLPNO pert. Triples
   Tobias Risthaus        : Range-separated hybrids, TD-DFT gradient, RPA, STAB
   Michael Roemelt        : Restricted open shell CIS
   Masaaki Saitow         : Open-shell DLPNO
   Barbara Sandhoefer     : DKH picture change effects
   Avijit Sen             : IP-ROCIS
   Kantharuban Sivalingam : CASSCF convergence, NEVPT2, FIC-MRCI
   Bernardo de Souza      : ESD, SOC TD-DFT
   Georgi Stoychev        : AutoAux, RI-MP2 NMR
   Willem Van den Heuvel  : Paramagnetic NMR
   Boris Wezisla          : Elementary symmetry handling
   Frank Wennmohs         : Technical directorship


 We gratefully acknowledge several colleagues who have allowed us to
 interface, adapt or use parts of their codes:
   Stefan Grimme, W. Hujo, H. Kruse,             : VdW corrections, initial TS optimization,
                  C. Bannwarth                     DFT functionals, gCP, sTDA/sTD-DF
   Ed Valeev                                     : LibInt (2-el integral package), F12 methods
   Garnet Chan, S. Sharma, J. Yang, R. Olivares  : DMRG
   Ulf Ekstrom                                   : XCFun DFT Library
   Mihaly Kallay                                 : mrcc  (arbitrary order and MRCC methods)
   Andreas Klamt, Michael Diedenhofen            : otool_cosmo (COSMO solvation model)
   Jiri Pittner, Ondrej Demel                    : Mk-CCSD
   Frank Weinhold                                : gennbo (NPA and NBO analysis)
   Christopher J. Cramer and Donald G. Truhlar   : smd solvation model
   Lars Goerigk                                  : TD-DFT with DH, B97 family of functionals
   V. Asgeirsson, H. Jonsson                     : NEB implementation
   FAccTs GmbH                                   : IRC, NEB, NEB-TS, Multilevel


 Your calculation uses the libint2 library for the computation of 2-el integrals
 For citations please refer to: http://libint.valeyev.net

 This ORCA versions uses:
   CBLAS   interface :  Fast vector & matrix operations
   LAPACKE interface :  Fast linear algebra routines
   SCALAPACK package :  Parallel linear algebra routines


----- Orbital basis set information -----
Your calculation utilizes the basis: aug-pc-4
   H, C-F              : F. Jensen, J. Chem. Phys. 115, 9113 (2001).
                         F. Jensen, J. Chem. Phys. 116, 7372 (2002).
                         F. Jensen, J. Chem. Phys. 117, 9234 (2002).
   Si-Cl               : F. Jensen, T. Helgaker, J. Chem. Phys. 121, 3463 (2004).
   He-B, Ne-Mg, Al, Ar : F. Jensen, J. Phys. Chem. A 111, 11198 (2007).
   K, Ca, Ga-Kr        : F. Jensen, J. Chem. Phys. 136, 094110 (2012).
   Sc-Zn               : F. Jensen, J. Chem. Phys. 138, 014107 (2013).

================================================================================
                                        WARNINGS
                       Please study these warnings very carefully!
================================================================================


INFO   : the flag for use of LIBINT has been found!

================================================================================
                                       INPUT FILE
================================================================================
NAME = ch2f_pbe.inp
|  1> !uks pbe nori aug-pc-4 grid7 nofinalgrid verytightscf
|  2> 
|  3> %maxcore 1500
|  4> 
|  5> %pal nprocs 1 end
|  6> 
|  7> %scf
|  8> 	maxiter 200
|  9> end
| 10> %elprop
| 11> 	dipole true
| 12> 	 polar 1
| 13> 	 maxiter 200
| 14> end
| 15> 
| 16> * xyz 0 2
| 17> C -0.0287000000 0.6550000000 0.0000000000
| 18> F -0.0287000000 -0.6819000000 0.0000000000
| 19> H 0.2150000000 1.1036000000 0.9474000000
| 20> H 0.2150000000 1.1036000000 -0.9474000000
| 21> *
| 22> 
| 23>                          ****END OF INPUT****
================================================================================

                       ****************************
                       * Single Point Calculation *
                       ****************************

---------------------------------
CARTESIAN COORDINATES (ANGSTROEM)
---------------------------------
  C     -0.028700    0.655000    0.000000
  F     -0.028700   -0.681900    0.000000
  H      0.215000    1.103600    0.947400
  H      0.215000    1.103600   -0.947400

----------------------------
CARTESIAN COORDINATES (A.U.)
----------------------------
  NO LB      ZA    FRAG     MASS         X           Y           Z
   0 C     6.0000    0    12.011   -0.054235    1.237771    0.000000
   1 F     9.0000    0    18.998   -0.054235   -1.288604    0.000000
   2 H     1.0000    0     1.008    0.406291    2.085502    1.790327
   3 H     1.0000    0     1.008    0.406291    2.085502   -1.790327

--------------------------------
INTERNAL COORDINATES (ANGSTROEM)
--------------------------------
 C      0   0   0     0.000000000000     0.00000000     0.00000000
 F      1   0   0     1.336900000000     0.00000000     0.00000000
 H      1   2   0     1.076196269274   114.63514679     0.00000000
 H      1   2   3     1.076196269274   114.63514679   151.14905363

---------------------------
INTERNAL COORDINATES (A.U.)
---------------------------
 C      0   0   0     0.000000000000     0.00000000     0.00000000
 F      1   0   0     2.526374868439     0.00000000     0.00000000
 H      1   2   0     2.033716215276   114.63514679     0.00000000
 H      1   2   3     2.033716215276   114.63514679   151.14905363

---------------------
BASIS SET INFORMATION
---------------------
There are 3 groups of distinct atoms

 Group   1 Type C   : 28s12p7d4f3g2h contracted to 9s8p7d4f3g2h pattern {11101111111/51111111/1111111/1111/111/11}
 Group   2 Type F   : 27s12p7d4f3g2h contracted to 9s8p7d4f3g2h pattern {1191111111/51111111/1111111/1111/111/11}
 Group   3 Type H   : 12s7p4d3f2g contracted to 8s7p4d3f2g pattern {51111111/1111111/1111/111/11}

Atom   0C    basis set group =>   1
Atom   1F    basis set group =>   2
Atom   2H    basis set group =>   3
Atom   3H    basis set group =>   3
------------------------------------------------------------------------------
                           ORCA GTO INTEGRAL CALCULATION
------------------------------------------------------------------------------

                         BASIS SET STATISTICS AND STARTUP INFO

 # of primitive gaussian shells          ...  167
 # of primitive gaussian functions       ...  535
 # of contracted shells                  ...  114
 # of contracted basis functions         ...  466
 Highest angular momentum                ...    5
 Maximum contraction depth               ...   11
 Integral package used                   ... LIBINT
 Integral threshhold            Thresh   ...  1.000e-12
 Primitive cut-off              TCut     ...  1.000e-14


------------------------------ INTEGRAL EVALUATION ----------------------------


 * One electron integrals 
 Pre-screening matrix                    ... done
 Shell pair data                         ... done (   0.002 sec)

-------------------------------------------------------------------------------
                                 ORCA SCF
-------------------------------------------------------------------------------

------------
SCF SETTINGS
------------
Hamiltonian:
 Density Functional     Method          .... DFT(GTOs)
 Exchange Functional    Exchange        .... PBE
   PBE kappa parameter   XKappa         ....  0.804000
   PBE mue parameter    XMuePBE         ....  0.219520
 Correlation Functional Correlation     .... PBE
   PBE beta parameter  CBetaPBE         ....  0.066725
 LDA part of GGA corr.  LDAOpt          .... PW91-LDA
 Gradients option       PostSCFGGA      .... off
   Density functional embedding theory  .... OFF
   NL short-range parameter             ....  6.400000


General Settings:
 Integral files         IntName         .... ch2f_pbe
 Hartree-Fock type      HFTyp           .... UHF
 Total Charge           Charge          ....    0
 Multiplicity           Mult            ....    2
 Number of Electrons    NEL             ....   17
 Basis Dimension        Dim             ....  466
 Nuclear Repulsion      ENuc            ....     32.2328768680 Eh

Convergence Acceleration:
 DIIS                   CNVDIIS         .... on
   Start iteration      DIISMaxIt       ....    12
   Startup error        DIISStart       ....  0.200000
   # of expansion vecs  DIISMaxEq       ....     5
   Bias factor          DIISBfac        ....   1.050
   Max. coefficient     DIISMaxC        ....  10.000
 Newton-Raphson         CNVNR           .... off
 SOSCF                  CNVSOSCF        .... off
 Level Shifting         CNVShift        .... on
   Level shift para.    LevelShift      ....    0.2500
   Turn off err/grad.   ShiftErr        ....    0.0010
 Zerner damping         CNVZerner       .... off
 Static damping         CNVDamp         .... on
   Fraction old density DampFac         ....    0.7000
   Max. Damping (<1)    DampMax         ....    0.9800
   Min. Damping (>=0)   DampMin         ....    0.0000
   Turn off err/grad.   DampErr         ....    0.1000
 Fernandez-Rico         CNVRico         .... off

SCF Procedure:
 Maximum # iterations   MaxIter         ....   200
 SCF integral mode      SCFMode         .... Direct
   Integral package                     .... LIBINT
 Reset frequency        DirectResetFreq ....    20
 Integral Threshold     Thresh          ....  1.000e-12 Eh
 Primitive CutOff       TCut            ....  1.000e-14 Eh

Convergence Tolerance:
 Convergence Check Mode ConvCheckMode   .... Total+1el-Energy
 Convergence forced     ConvForced      .... 0
 Energy Change          TolE            ....  1.000e-09 Eh
 1-El. energy change                    ....  1.000e-06 Eh
 DIIS Error             TolErr          ....  1.000e-08


Diagonalization of the overlap matrix:
Smallest eigenvalue                        ... 1.824e-07
Time for diagonalization                   ...    0.058 sec
Threshold for overlap eigenvalues          ... 1.000e-08
Number of eigenvalues below threshold      ... 0
Time for construction of square roots      ...    0.032 sec
Total time needed                          ...    0.091 sec

-------------------
DFT GRID GENERATION
-------------------

General Integration Accuracy     IntAcc      ...  5.670
Radial Grid Type                 RadialGrid  ... Gauss-Chebyshev
Angular Grid (max. acc.)         AngularGrid ... Lebedev-770
Angular grid pruning method      GridPruning ... 3 (G Style)
Weight generation scheme         WeightScheme... Becke
Basis function cutoff            BFCut       ...    1.0000e-12
Integration weight cutoff        WCut        ...    1.0000e-14
Grids for H and He will be reduced by one unit

# of grid points (after initial pruning)     ...  86196 (   0.0 sec)
# of grid points (after weights+screening)   ...  84573 (   0.0 sec)
nearest neighbour list constructed           ...    0.0 sec
Grid point re-assignment to atoms done       ...    0.0 sec
Grid point division into batches done        ...    1.8 sec
Reduced shell lists constructed in    3.0 sec

Total number of grid points                  ...    84573
Total number of batches                      ...     1324
Average number of points per batch           ...       63
Average number of grid points per atom       ...    21143
Average number of shells per batch           ...    83.12 (72.92%)
Average number of basis functions per batch  ...   349.98 (75.10%)
Average number of large shells per batch     ...    73.70 (88.67%)
Average number of large basis fcns per batch ...   310.69 (88.77%)
Maximum spatial batch extension              ...  19.47, 15.92, 14.71 au
Average spatial batch extension              ...   2.16,  2.04,  1.99 au

Time for grid setup =    3.063 sec

------------------------------
INITIAL GUESS: MODEL POTENTIAL
------------------------------
Loading Hartree-Fock densities                     ... done
Calculating cut-offs                               ... done
Setting up the integral package                    ... done
Initializing the effective Hamiltonian             ... done
Starting the Coulomb interaction                   ... done (   0.2 sec)
Reading the grid                                   ... done
Mapping shells                                     ... done
Starting the XC term evaluation                    ... done (   8.2 sec)
  promolecular density results
     # of electrons  =     16.999021543
     EX              =    -15.647964709
     EC              =     -0.553018180
     EX+EC           =    -16.200982889
Transforming the Hamiltonian                       ... done (   0.0 sec)
Diagonalizing the Hamiltonian                      ... done (   0.1 sec)
Back transforming the eigenvectors                 ... done (   0.0 sec)
Now organizing SCF variables                       ... done
                      ------------------
                      INITIAL GUESS DONE (  11.6 sec)
                      ------------------
--------------
SCF ITERATIONS
--------------
ITER       Energy         Delta-E        Max-DP      RMS-DP      [F,P]     Damp
               ***  Starting incremental Fock matrix formation  ***
  0   -138.9761051141   0.000000000000 0.00878277  0.00008344  0.0939803 0.7000
  1   -138.9831759305  -0.007070816395 0.00688951  0.00006891  0.0407016 0.7000
                               ***Turning on DIIS***
  2   -138.9865199009  -0.003343970400 0.01432662  0.00014898  0.0180205 0.0000
  3   -138.9921980590  -0.005678158048 0.00332913  0.00003338  0.0221777 0.0000
  4   -138.9931306704  -0.000932611433 0.00086183  0.00000985  0.0047785 0.0000
  5   -138.9931873239  -0.000056653546 0.00038711  0.00000374  0.0030561 0.0000
  6   -138.9932014378  -0.000014113864 0.00026763  0.00000260  0.0010346 0.0000
  7   -138.9932051117  -0.000003673912 0.00042268  0.00000240  0.0002195 0.0000
  8   -138.9932061123  -0.000001000570 0.00008806  0.00000065  0.0000729 0.0000
  9   -138.9932061385  -0.000000026230 0.00000652  0.00000009  0.0000537 0.0000
 10   -138.9932061437  -0.000000005215 0.00002700  0.00000018  0.0000078 0.0000
 11   -138.9932061440  -0.000000000254 0.00002604  0.00000014  0.0000073 0.0000
 12   -138.9932061441  -0.000000000078 0.00007425  0.00000052  0.0000011 0.0000
 13   -138.9932061441  -0.000000000006 0.00016190  0.00000109  0.0000002 0.0000
                 **** Energy Check signals convergence ****

               *****************************************************
               *                     SUCCESS                       *
               *           SCF CONVERGED AFTER  14 CYCLES          *
               *****************************************************


----------------
TOTAL SCF ENERGY
----------------

Total Energy       :         -138.99320614 Eh           -3782.19742 eV

Components:
Nuclear Repulsion  :           32.23287687 Eh             877.10117 eV
Electronic Energy  :         -171.22608301 Eh           -4659.29859 eV
One Electron Energy:         -255.24001005 Eh           -6945.43377 eV
Two Electron Energy:           84.01392704 Eh            2286.13518 eV

Virial components:
Potential Energy   :         -277.58190979 Eh           -7553.38777 eV
Kinetic Energy     :          138.58870364 Eh            3771.19035 eV
Virial Ratio       :            2.00291873


DFT components:
N(Alpha)           :        8.999999970918 electrons
N(Beta)            :        7.999999978849 electrons
N(Total)           :       16.999999949767 electrons
E(X)               :      -15.877264513631 Eh       
E(C)               :       -0.550160347644 Eh       
E(XC)              :      -16.427424861275 Eh       
DFET-embed. en.    :        0.000000000000 Eh       

---------------
SCF CONVERGENCE
---------------

  Last Energy change         ...   -3.7232e-12  Tolerance :   1.0000e-09
  Last MAX-Density change    ...    2.4950e-04  Tolerance :   1.0000e-08
  Last RMS-Density change    ...    1.7028e-06  Tolerance :   1.0000e-09
  Last DIIS Error            ...    3.0111e-08  Tolerance :   1.0000e-08

             **** THE GBW FILE WAS UPDATED (ch2f_pbe.gbw) ****
             **** DENSITY FILE WAS UPDATED (ch2f_pbe.scfp.tmp) ****
             **** ENERGY FILE WAS UPDATED (ch2f_pbe.en.tmp) ****
----------------------
UHF SPIN CONTAMINATION
----------------------

Warning: in a DFT calculation there is little theoretical justification to 
         calculate <S**2> as in Hartree-Fock theory. We will do it anyways
         but you should keep in mind that the values have only limited relevance

Expectation value of <S**2>     :     0.753078
Ideal value S*(S+1) for S=0.5   :     0.750000
Deviation                       :     0.003078

----------------
ORBITAL ENERGIES
----------------
                 SPIN UP ORBITALS
  NO   OCC          E(Eh)            E(eV) 
   0   1.0000     -24.282191      -660.7520 
   1   1.0000      -9.970501      -271.3111 
   2   1.0000      -1.139397       -31.0046 
   3   1.0000      -0.629034       -17.1169 
   4   1.0000      -0.469608       -12.7787 
   5   1.0000      -0.462748       -12.5920 
   6   1.0000      -0.420328       -11.4377 
   7   1.0000      -0.325004        -8.8438 
   8   1.0000      -0.183664        -4.9978 
   9   0.0000      -0.015809        -0.4302 
  10   0.0000       0.001762         0.0479 
  11   0.0000       0.011493         0.3127 
  12   0.0000       0.014252         0.3878 
  13   0.0000       0.037451         1.0191 
  14   0.0000       0.037742         1.0270 
  15   0.0000       0.046419         1.2631 
  16   0.0000       0.054937         1.4949 
  17   0.0000       0.059055         1.6070 
  18   0.0000       0.063005         1.7145 
  19   0.0000       0.066133         1.7996 
  20   0.0000       0.071576         1.9477 
  21   0.0000       0.074495         2.0271 
  22   0.0000       0.092384         2.5139 
  23   0.0000       0.114192         3.1073 
  24   0.0000       0.118915         3.2358 
  25   0.0000       0.122884         3.3438 
  26   0.0000       0.127434         3.4677 
  27   0.0000       0.129322         3.5190 
  28   0.0000       0.131641         3.5821 
  29   0.0000       0.132011         3.5922 
  30   0.0000       0.136756         3.7213 
  31   0.0000       0.139422         3.7939 
  32   0.0000       0.146842         3.9958 
  33   0.0000       0.157916         4.2971 
  34   0.0000       0.180387         4.9086 
  35   0.0000       0.190989         5.1971 
  36   0.0000       0.194701         5.2981 
  37   0.0000       0.205507         5.5921 
  38   0.0000       0.208188         5.6651 
  39   0.0000       0.226500         6.1634 
  40   0.0000       0.227597         6.1932 
  41   0.0000       0.233193         6.3455 
  42   0.0000       0.238422         6.4878 
  43   0.0000       0.240905         6.5554 
  44   0.0000       0.242858         6.6085 
  45   0.0000       0.248223         6.7545 
  46   0.0000       0.249563         6.7910 
  47   0.0000       0.262538         7.1440 
  48   0.0000       0.263511         7.1705 
  49   0.0000       0.267274         7.2729 
  50   0.0000       0.278835         7.5875 
  51   0.0000       0.285357         7.7649 
  52   0.0000       0.295928         8.0526 
  53   0.0000       0.300770         8.1844 
  54   0.0000       0.304496         8.2858 
  55   0.0000       0.310226         8.4417 
  56   0.0000       0.318950         8.6791 
  57   0.0000       0.324712         8.8359 
  58   0.0000       0.332352         9.0438 
  59   0.0000       0.336050         9.1444 
  60   0.0000       0.362982         9.8772 
  61   0.0000       0.369123        10.0443 
  62   0.0000       0.369817        10.0632 
  63   0.0000       0.375948        10.2301 
  64   0.0000       0.382561        10.4100 
  65   0.0000       0.388904        10.5826 
  66   0.0000       0.393070        10.6960 
  67   0.0000       0.393248        10.7008 
  68   0.0000       0.400799        10.9063 
  69   0.0000       0.412178        11.2159 
  70   0.0000       0.413737        11.2584 
  71   0.0000       0.422395        11.4940 
  72   0.0000       0.438356        11.9283 
  73   0.0000       0.452630        12.3167 
  74   0.0000       0.457861        12.4590 
  75   0.0000       0.460407        12.5283 
  76   0.0000       0.466199        12.6859 
  77   0.0000       0.477287        12.9876 
  78   0.0000       0.482625        13.1329 
  79   0.0000       0.482641        13.1333 
  80   0.0000       0.489280        13.3140 
  81   0.0000       0.492927        13.4132 
  82   0.0000       0.498801        13.5731 
  83   0.0000       0.507266        13.8034 
  84   0.0000       0.512680        13.9507 
  85   0.0000       0.519988        14.1496 
  86   0.0000       0.521490        14.1905 
  87   0.0000       0.529039        14.3959 
  88   0.0000       0.531966        14.4755 
  89   0.0000       0.537530        14.6269 
  90   0.0000       0.544273        14.8104 
  91   0.0000       0.551246        15.0002 
  92   0.0000       0.570629        15.5276 
  93   0.0000       0.573939        15.6177 
  94   0.0000       0.584669        15.9096 
  95   0.0000       0.600362        16.3367 
  96   0.0000       0.601763        16.3748 
  97   0.0000       0.627818        17.0838 
  98   0.0000       0.631293        17.1784 
  99   0.0000       0.636362        17.3163 
 100   0.0000       0.638702        17.3800 
 101   0.0000       0.643982        17.5236 
 102   0.0000       0.649657        17.6781 
 103   0.0000       0.656850        17.8738 
 104   0.0000       0.657230        17.8841 
 105   0.0000       0.670410        18.2428 
 106   0.0000       0.679004        18.4766 
 107   0.0000       0.706760        19.2319 
 108   0.0000       0.711295        19.3553 
 109   0.0000       0.719914        19.5898 
 110   0.0000       0.739830        20.1318 
 111   0.0000       0.742308        20.1992 
 112   0.0000       0.758916        20.6512 
 113   0.0000       0.766859        20.8673 
 114   0.0000       0.771638        20.9973 
 115   0.0000       0.781875        21.2759 
 116   0.0000       0.785801        21.3827 
 117   0.0000       0.787314        21.4239 
 118   0.0000       0.800038        21.7701 
 119   0.0000       0.800147        21.7731 
 120   0.0000       0.802093        21.8261 
 121   0.0000       0.808928        22.0121 
 122   0.0000       0.816342        22.2138 
 123   0.0000       0.819617        22.3029 
 124   0.0000       0.831553        22.6277 
 125   0.0000       0.834509        22.7081 
 126   0.0000       0.842031        22.9128 
 127   0.0000       0.845502        23.0073 
 128   0.0000       0.853841        23.2342 
 129   0.0000       0.869145        23.6506 
 130   0.0000       0.872766        23.7492 
 131   0.0000       0.879230        23.9251 
 132   0.0000       0.883313        24.0362 
 133   0.0000       0.894997        24.3541 
 134   0.0000       0.898783        24.4571 
 135   0.0000       0.920538        25.0491 
 136   0.0000       0.922543        25.1037 
 137   0.0000       0.931390        25.3444 
 138   0.0000       0.939354        25.5611 
 139   0.0000       0.961257        26.1571 
 140   0.0000       0.970207        26.4007 
 141   0.0000       1.013186        27.5702 
 142   0.0000       1.013771        27.5861 
 143   0.0000       1.039151        28.2767 
 144   0.0000       1.047753        28.5108 
 145   0.0000       1.063656        28.9435 
 146   0.0000       1.074756        29.2456 
 147   0.0000       1.092438        29.7267 
 148   0.0000       1.099476        29.9183 
 149   0.0000       1.111059        30.2335 
 150   0.0000       1.117685        30.4138 
 151   0.0000       1.127066        30.6690 
 152   0.0000       1.131931        30.8014 
 153   0.0000       1.154359        31.4117 
 154   0.0000       1.166002        31.7285 
 155   0.0000       1.174492        31.9596 
 156   0.0000       1.198992        32.6262 
 157   0.0000       1.204005        32.7627 
 158   0.0000       1.254788        34.1445 
 159   0.0000       1.284002        34.9395 
 160   0.0000       1.303352        35.4660 
 161   0.0000       1.316367        35.8202 
 162   0.0000       1.318457        35.8770 
 163   0.0000       1.331184        36.2234 
 164   0.0000       1.357149        36.9299 
 165   0.0000       1.360373        37.0176 
 166   0.0000       1.390205        37.8294 
 167   0.0000       1.415222        38.5101 
 168   0.0000       1.443639        39.2834 
 169   0.0000       1.452664        39.5290 
 170   0.0000       1.453906        39.5628 
 171   0.0000       1.463602        39.8266 
 172   0.0000       1.469709        39.9928 
 173   0.0000       1.502125        40.8749 
 174   0.0000       1.504960        40.9520 
 175   0.0000       1.532654        41.7056 
 176   0.0000       1.547064        42.0978 
 177   0.0000       1.551804        42.2267 
 178   0.0000       1.589774        43.2599 
 179   0.0000       1.606092        43.7040 
 180   0.0000       1.623643        44.1816 
 181   0.0000       1.657409        45.1004 
 182   0.0000       1.689835        45.9828 
 183   0.0000       1.694580        46.1119 
 184   0.0000       1.703145        46.3449 
 185   0.0000       1.735368        47.2218 
 186   0.0000       1.763233        47.9800 
 187   0.0000       1.794883        48.8413 
 188   0.0000       1.811649        49.2975 
 189   0.0000       1.829106        49.7725 
 190   0.0000       1.831402        49.8350 
 191   0.0000       1.953266        53.1511 
 192   0.0000       1.963727        53.4357 
 193   0.0000       2.045376        55.6575 
 194   0.0000       2.103731        57.2454 
 195   0.0000       2.121787        57.7367 
 196   0.0000       2.128195        57.9111 
 197   0.0000       2.144015        58.3416 
 198   0.0000       2.205532        60.0156 
 199   0.0000       2.218271        60.3622 
 200   0.0000       2.247709        61.1633 
 201   0.0000       2.282722        62.1160 
 202   0.0000       2.312786        62.9341 
 203   0.0000       2.324137        63.2430 
 204   0.0000       2.353185        64.0334 
 205   0.0000       2.411780        65.6279 
 206   0.0000       2.445889        66.5560 
 207   0.0000       2.474670        67.3392 
 208   0.0000       2.511967        68.3541 
 209   0.0000       2.522629        68.6442 
 210   0.0000       2.539244        69.0964 
 211   0.0000       2.622801        71.3700 
 212   0.0000       2.642711        71.9118 
 213   0.0000       2.662544        72.4515 
 214   0.0000       2.692330        73.2620 
 215   0.0000       2.740581        74.5750 
 216   0.0000       2.748674        74.7952 
 217   0.0000       2.834553        77.1321 
 218   0.0000       2.857643        77.7604 
 219   0.0000       2.940975        80.0280 
 220   0.0000       2.967579        80.7519 
 221   0.0000       3.025806        82.3364 
 222   0.0000       3.036860        82.6371 
 223   0.0000       3.244537        88.2883 
 224   0.0000       3.250972        88.4634 
 225   0.0000       3.314566        90.1939 
 226   0.0000       3.393840        92.3511 
 227   0.0000       3.406461        92.6945 
 228   0.0000       3.465998        94.3146 
 229   0.0000       3.476436        94.5986 
 230   0.0000       3.489094        94.9431 
 231   0.0000       3.566345        97.0452 
 232   0.0000       3.634037        98.8872 
 233   0.0000       3.658423        99.5507 
 234   0.0000       3.684989       100.2737 
 235   0.0000       3.690122       100.4133 
 236   0.0000       3.825999       104.1107 
 237   0.0000       3.829803       104.2143 
 238   0.0000       3.905264       106.2676 
 239   0.0000       3.908400       106.3530 
 240   0.0000       3.942395       107.2780 
 241   0.0000       3.969259       108.0090 
 242   0.0000       4.020593       109.4059 
 243   0.0000       4.093430       111.3879 
 244   0.0000       4.139520       112.6421 
 245   0.0000       4.208998       114.5326 
 246   0.0000       4.239667       115.3672 
 247   0.0000       4.428078       120.4941 
 248   0.0000       4.447816       121.0312 
 249   0.0000       4.532876       123.3458 
 250   0.0000       4.554481       123.9337 
 251   0.0000       4.570377       124.3663 
 252   0.0000       4.600823       125.1948 
 253   0.0000       4.707839       128.1068 
 254   0.0000       4.714406       128.2855 
 255   0.0000       4.722193       128.4974 
 256   0.0000       4.781147       130.1016 
 257   0.0000       4.877791       132.7314 
 258   0.0000       4.956424       134.8712 
 259   0.0000       4.982405       135.5781 
 260   0.0000       5.088219       138.4575 
 261   0.0000       5.111634       139.0946 
 262   0.0000       5.197821       141.4399 
 263   0.0000       5.235935       142.4770 
 264   0.0000       5.311530       144.5341 
 265   0.0000       5.350778       145.6021 
 266   0.0000       5.359641       145.8432 
 267   0.0000       5.376288       146.2962 
 268   0.0000       5.396708       146.8519 
 269   0.0000       5.429551       147.7456 
 270   0.0000       5.506363       149.8358 
 271   0.0000       5.562938       151.3752 
 272   0.0000       5.590271       152.1190 
 273   0.0000       5.646544       153.6503 
 274   0.0000       5.696903       155.0206 
 275   0.0000       5.831114       158.6727 
 276   0.0000       5.864993       159.5946 
 277   0.0000       5.883561       160.0998 
 278   0.0000       5.943752       161.7377 
 279   0.0000       6.021839       163.8626 
 280   0.0000       6.079005       165.4181 
 281   0.0000       6.112880       166.3399 
 282   0.0000       6.149920       167.3478 
 283   0.0000       6.187157       168.3611 
 284   0.0000       6.268243       170.5676 
 285   0.0000       6.374329       173.4543 
 286   0.0000       6.455534       175.6640 
 287   0.0000       6.621769       180.1875 
 288   0.0000       6.637300       180.6101 
 289   0.0000       6.697900       182.2591 
 290   0.0000       6.764315       184.0664 
 291   0.0000       6.766799       184.1339 
 292   0.0000       6.911850       188.0810 
 293   0.0000       7.034078       191.4070 
 294   0.0000       7.069887       192.3814 
 295   0.0000       7.135592       194.1693 
 296   0.0000       7.145959       194.4514 
 297   0.0000       7.165380       194.9799 
 298   0.0000       7.357342       200.2035 
 299   0.0000       7.484760       203.6707 
 300   0.0000       7.556208       205.6149 
 301   0.0000       7.629874       207.6194 
 302   0.0000       7.767079       211.3530 
 303   0.0000       8.062562       219.3935 
 304   0.0000       8.090042       220.1412 
 305   0.0000       8.210775       223.4265 
 306   0.0000       8.609728       234.2826 
 307   0.0000       8.610409       234.3011 
 308   0.0000       8.710770       237.0321 
 309   0.0000       8.927672       242.9343 
 310   0.0000       8.972902       244.1651 
 311   0.0000       9.042418       246.0567 
 312   0.0000       9.044722       246.1194 
 313   0.0000       9.059456       246.5203 
 314   0.0000       9.063873       246.6405 
 315   0.0000       9.167060       249.4484 
 316   0.0000       9.203851       250.4495 
 317   0.0000       9.277782       252.4613 
 318   0.0000       9.418932       256.3022 
 319   0.0000       9.587962       260.9017 
 320   0.0000       9.861114       268.3345 
 321   0.0000       9.887325       269.0478 
 322   0.0000      10.014229       272.5010 
 323   0.0000      10.420652       283.5604 
 324   0.0000      10.607841       288.6540 
 325   0.0000      10.646060       289.6940 
 326   0.0000      10.674711       290.4737 
 327   0.0000      10.679934       290.6158 
 328   0.0000      10.832595       294.7699 
 329   0.0000      10.847158       295.1662 
 330   0.0000      10.941045       297.7210 
 331   0.0000      10.962106       298.2941 
 332   0.0000      11.140121       303.1381 
 333   0.0000      11.153540       303.5033 
 334   0.0000      11.455084       311.7087 
 335   0.0000      11.455761       311.7271 
 336   0.0000      11.588488       315.3388 
 337   0.0000      11.622316       316.2593 
 338   0.0000      11.656852       317.1991 
 339   0.0000      11.739590       319.4505 
 340   0.0000      11.787417       320.7519 
 341   0.0000      11.846518       322.3602 
 342   0.0000      12.034697       327.4807 
 343   0.0000      12.052657       327.9695 
 344   0.0000      12.182860       331.5125 
 345   0.0000      12.240684       333.0860 
 346   0.0000      12.279874       334.1524 
 347   0.0000      12.318891       335.2141 
 348   0.0000      12.349546       336.0482 
 349   0.0000      12.398755       337.3873 
 350   0.0000      12.468048       339.2728 
 351   0.0000      12.470476       339.3389 
 352   0.0000      12.490988       339.8971 
 353   0.0000      12.524986       340.8222 
 354   0.0000      12.581006       342.3466 
 355   0.0000      12.604968       342.9986 
 356   0.0000      12.624101       343.5192 
 357   0.0000      12.665950       344.6580 
 358   0.0000      12.666232       344.6657 
 359   0.0000      12.716546       346.0348 
 360   0.0000      12.747306       346.8718 
 361   0.0000      12.784635       347.8876 
 362   0.0000      12.817787       348.7897 
 363   0.0000      12.901688       351.0728 
 364   0.0000      12.984644       353.3301 
 365   0.0000      12.995169       353.6165 
 366   0.0000      13.104902       356.6025 
 367   0.0000      13.137086       357.4783 
 368   0.0000      13.270501       361.1087 
 369   0.0000      13.303903       362.0176 
 370   0.0000      13.363858       363.6491 
 371   0.0000      13.438376       365.6768 
 372   0.0000      13.565454       369.1348 
 373   0.0000      13.637290       371.0895 
 374   0.0000      13.659822       371.7026 
 375   0.0000      13.890362       377.9760 
 376   0.0000      13.911237       378.5440 
 377   0.0000      13.998042       380.9061 
 378   0.0000      14.137543       384.7021 
 379   0.0000      14.168147       385.5349 
 380   0.0000      14.302802       389.1990 
 381   0.0000      14.309565       389.3831 
 382   0.0000      14.523650       395.2086 
 383   0.0000      14.647159       398.5695 
 384   0.0000      14.685920       399.6242 
 385   0.0000      15.016159       408.6104 
 386   0.0000      15.059818       409.7985 
 387   0.0000      15.133458       411.8023 
 388   0.0000      15.299956       416.3330 
 389   0.0000      15.310977       416.6329 
 390   0.0000      15.505307       421.9209 
 391   0.0000      15.572796       423.7573 
 392   0.0000      15.590219       424.2314 
 393   0.0000      15.642776       425.6616 
 394   0.0000      15.763837       428.9558 
 395   0.0000      16.253547       442.2815 
 396   0.0000      16.364286       445.2949 
 397   0.0000      16.715346       454.8477 
 398   0.0000      16.735758       455.4031 
 399   0.0000      16.737041       455.4381 
 400   0.0000      16.755495       455.9402 
 401   0.0000      16.803397       457.2437 
 402   0.0000      16.959834       461.5005 
 403   0.0000      17.119387       465.8422 
 404   0.0000      17.220273       468.5875 
 405   0.0000      17.293269       470.5738 
 406   0.0000      17.330954       471.5992 
 407   0.0000      17.470698       475.4018 
 408   0.0000      17.734498       482.5802 
 409   0.0000      18.446601       501.9575 
 410   0.0000      18.476676       502.7759 
 411   0.0000      18.867772       513.4182 
 412   0.0000      18.899327       514.2768 
 413   0.0000      19.075383       519.0676 
 414   0.0000      19.946373       542.7684 
 415   0.0000      20.101379       546.9863 
 416   0.0000      20.126435       547.6681 
 417   0.0000      20.262053       551.3585 
 418   0.0000      20.272325       551.6380 
 419   0.0000      20.367238       554.2207 
 420   0.0000      20.375171       554.4366 
 421   0.0000      20.427742       555.8671 
 422   0.0000      20.521978       558.4314 
 423   0.0000      20.839621       567.0749 
 424   0.0000      20.930634       569.5515 
 425   0.0000      21.236509       577.8748 
 426   0.0000      21.257338       578.4416 
 427   0.0000      21.312457       579.9414 
 428   0.0000      22.051996       600.0653 
 429   0.0000      22.265477       605.8744 
 430   0.0000      23.029632       626.6681 
 431   0.0000      23.529622       640.2736 
 432   0.0000      23.580824       641.6668 
 433   0.0000      23.797703       647.5684 
 434   0.0000      23.895022       650.2166 
 435   0.0000      25.498397       693.8467 
 436   0.0000      25.788664       701.7452 
 437   0.0000      30.400206       827.2317 
 438   0.0000      30.439390       828.2979 
 439   0.0000      30.678434       834.8026 
 440   0.0000      30.981512       843.0498 
 441   0.0000      31.410697       854.7285 
 442   0.0000      32.330802       879.7659 
 443   0.0000      32.388484       881.3355 
 444   0.0000      33.357570       907.7056 
 445   0.0000      33.795442       919.6207 
 446   0.0000      34.182474       930.1524 
 447   0.0000      41.137702      1119.4138 
 448   0.0000      41.169596      1120.2817 
 449   0.0000      41.708851      1134.9555 
 450   0.0000      41.835405      1138.3992 
 451   0.0000      42.155547      1147.1107 
 452   0.0000      44.112913      1200.3734 
 453   0.0000      76.036219      2069.0507 
 454   0.0000      91.070438      2478.1526 
 455   0.0000      91.101867      2479.0078 
 456   0.0000      91.238067      2482.7140 
 457   0.0000      91.306259      2484.5696 
 458   0.0000      91.309780      2484.6654 
 459   0.0000      91.335429      2485.3634 
 460   0.0000      91.508216      2490.0651 
 461   0.0000      91.709616      2495.5455 
 462   0.0000      92.311439      2511.9220 
 463   0.0000      92.405835      2514.4906 
 464   0.0000      92.528859      2517.8383 
 465   0.0000     202.618262      5513.5232 

                 SPIN DOWN ORBITALS
  NO   OCC          E(Eh)            E(eV) 
   0   1.0000     -24.278262      -660.6451 
   1   1.0000      -9.956931      -270.9419 
   2   1.0000      -1.131322       -30.7848 
   3   1.0000      -0.603719       -16.4280 
   4   1.0000      -0.459977       -12.5166 
   5   1.0000      -0.455189       -12.3863 
   6   1.0000      -0.395715       -10.7679 
   7   1.0000      -0.319834        -8.7031 
   8   0.0000      -0.101152        -2.7525 
   9   0.0000      -0.008163        -0.2221 
  10   0.0000       0.007544         0.2053 
  11   0.0000       0.014943         0.4066 
  12   0.0000       0.024512         0.6670 
  13   0.0000       0.039233         1.0676 
  14   0.0000       0.041093         1.1182 
  15   0.0000       0.052047         1.4163 
  16   0.0000       0.060518         1.6468 
  17   0.0000       0.063291         1.7222 
  18   0.0000       0.069474         1.8905 
  19   0.0000       0.071667         1.9502 
  20   0.0000       0.077658         2.1132 
  21   0.0000       0.091591         2.4923 
  22   0.0000       0.095944         2.6108 
  23   0.0000       0.117835         3.2065 
  24   0.0000       0.124833         3.3969 
  25   0.0000       0.130855         3.5607 
  26   0.0000       0.133030         3.6199 
  27   0.0000       0.136635         3.7180 
  28   0.0000       0.137103         3.7308 
  29   0.0000       0.140089         3.8120 
  30   0.0000       0.144390         3.9291 
  31   0.0000       0.149279         4.0621 
  32   0.0000       0.156039         4.2460 
  33   0.0000       0.166111         4.5201 
  34   0.0000       0.185977         5.0607 
  35   0.0000       0.194271         5.2864 
  36   0.0000       0.200486         5.4555 
  37   0.0000       0.212656         5.7867 
  38   0.0000       0.218858         5.9554 
  39   0.0000       0.230658         6.2765 
  40   0.0000       0.238956         6.5023 
  41   0.0000       0.239712         6.5229 
  42   0.0000       0.246404         6.7050 
  43   0.0000       0.247954         6.7472 
  44   0.0000       0.250834         6.8255 
  45   0.0000       0.257834         7.0160 
  46   0.0000       0.259157         7.0520 
  47   0.0000       0.267021         7.2660 
  48   0.0000       0.271603         7.3907 
  49   0.0000       0.277176         7.5423 
  50   0.0000       0.284812         7.7501 
  51   0.0000       0.295815         8.0495 
  52   0.0000       0.301335         8.1997 
  53   0.0000       0.310179         8.4404 
  54   0.0000       0.315470         8.5844 
  55   0.0000       0.319482         8.6935 
  56   0.0000       0.328433         8.9371 
  57   0.0000       0.333418         9.0728 
  58   0.0000       0.342383         9.3167 
  59   0.0000       0.345547         9.4028 
  60   0.0000       0.369828        10.0635 
  61   0.0000       0.373785        10.1712 
  62   0.0000       0.374652        10.1948 
  63   0.0000       0.381614        10.3842 
  64   0.0000       0.390337        10.6216 
  65   0.0000       0.398065        10.8319 
  66   0.0000       0.403448        10.9784 
  67   0.0000       0.403670        10.9844 
  68   0.0000       0.411528        11.1982 
  69   0.0000       0.420204        11.4343 
  70   0.0000       0.422987        11.5101 
  71   0.0000       0.433093        11.7851 
  72   0.0000       0.446498        12.1498 
  73   0.0000       0.460466        12.5299 
  74   0.0000       0.463602        12.6153 
  75   0.0000       0.467047        12.7090 
  76   0.0000       0.475938        12.9509 
  77   0.0000       0.480981        13.0882 
  78   0.0000       0.486986        13.2516 
  79   0.0000       0.488767        13.3000 
  80   0.0000       0.498591        13.5674 
  81   0.0000       0.499860        13.6019 
  82   0.0000       0.506499        13.7825 
  83   0.0000       0.518782        14.1168 
  84   0.0000       0.521603        14.1935 
  85   0.0000       0.526715        14.3326 
  86   0.0000       0.533218        14.5096 
  87   0.0000       0.538332        14.6488 
  88   0.0000       0.545565        14.8456 
  89   0.0000       0.546718        14.8770 
  90   0.0000       0.552655        15.0385 
  91   0.0000       0.559942        15.2368 
  92   0.0000       0.576396        15.6845 
  93   0.0000       0.584433        15.9032 
  94   0.0000       0.599415        16.3109 
  95   0.0000       0.611902        16.6507 
  96   0.0000       0.612139        16.6572 
  97   0.0000       0.635495        17.2927 
  98   0.0000       0.642188        17.4748 
  99   0.0000       0.648384        17.6434 
 100   0.0000       0.651104        17.7174 
 101   0.0000       0.656225        17.8568 
 102   0.0000       0.663336        18.0503 
 103   0.0000       0.668594        18.1934 
 104   0.0000       0.668840        18.2001 
 105   0.0000       0.682130        18.5617 
 106   0.0000       0.684407        18.6237 
 107   0.0000       0.718692        19.5566 
 108   0.0000       0.720755        19.6127 
 109   0.0000       0.730416        19.8756 
 110   0.0000       0.745491        20.2858 
 111   0.0000       0.748853        20.3773 
 112   0.0000       0.768463        20.9109 
 113   0.0000       0.772493        21.0206 
 114   0.0000       0.778525        21.1848 
 115   0.0000       0.791747        21.5445 
 116   0.0000       0.793521        21.5928 
 117   0.0000       0.794972        21.6323 
 118   0.0000       0.807520        21.9737 
 119   0.0000       0.807967        21.9859 
 120   0.0000       0.813125        22.1262 
 121   0.0000       0.819013        22.2865 
 122   0.0000       0.825956        22.4754 
 123   0.0000       0.828345        22.5404 
 124   0.0000       0.842186        22.9171 
 125   0.0000       0.844323        22.9752 
 126   0.0000       0.849081        23.1047 
 127   0.0000       0.854327        23.2474 
 128   0.0000       0.861593        23.4451 
 129   0.0000       0.875100        23.8127 
 130   0.0000       0.882241        24.0070 
 131   0.0000       0.887628        24.1536 
 132   0.0000       0.893793        24.3213 
 133   0.0000       0.900226        24.4964 
 134   0.0000       0.905475        24.6392 
 135   0.0000       0.926830        25.2203 
 136   0.0000       0.931816        25.3560 
 137   0.0000       0.937049        25.4984 
 138   0.0000       0.943910        25.6851 
 139   0.0000       0.968428        26.3523 
 140   0.0000       0.984244        26.7826 
 141   0.0000       1.020990        27.7826 
 142   0.0000       1.022212        27.8158 
 143   0.0000       1.053623        28.6705 
 144   0.0000       1.056191        28.7404 
 145   0.0000       1.074861        29.2485 
 146   0.0000       1.083048        29.4712 
 147   0.0000       1.097064        29.8526 
 148   0.0000       1.112106        30.2620 
 149   0.0000       1.122993        30.5582 
 150   0.0000       1.124240        30.5921 
 151   0.0000       1.132592        30.8194 
 152   0.0000       1.140268        31.0283 
 153   0.0000       1.166835        31.7512 
 154   0.0000       1.168622        31.7998 
 155   0.0000       1.182860        32.1873 
 156   0.0000       1.207477        32.8571 
 157   0.0000       1.224394        33.3174 
 158   0.0000       1.265364        34.4323 
 159   0.0000       1.293885        35.2084 
 160   0.0000       1.313042        35.7297 
 161   0.0000       1.322465        35.9861 
 162   0.0000       1.333041        36.2739 
 163   0.0000       1.343712        36.5643 
 164   0.0000       1.362676        37.0803 
 165   0.0000       1.362964        37.0881 
 166   0.0000       1.399370        38.0788 
 167   0.0000       1.424327        38.7579 
 168   0.0000       1.456725        39.6395 
 169   0.0000       1.458983        39.7009 
 170   0.0000       1.461228        39.7620 
 171   0.0000       1.474709        40.1289 
 172   0.0000       1.477835        40.2139 
 173   0.0000       1.508316        41.0434 
 174   0.0000       1.519083        41.3363 
 175   0.0000       1.547551        42.1110 
 176   0.0000       1.555940        42.3393 
 177   0.0000       1.558299        42.4035 
 178   0.0000       1.599941        43.5366 
 179   0.0000       1.617681        44.0193 
 180   0.0000       1.634067        44.4652 
 181   0.0000       1.668311        45.3971 
 182   0.0000       1.692158        46.0460 
 183   0.0000       1.706729        46.4424 
 184   0.0000       1.712823        46.6083 
 185   0.0000       1.741752        47.3955 
 186   0.0000       1.773478        48.2588 
 187   0.0000       1.807233        49.1773 
 188   0.0000       1.822540        49.5938 
 189   0.0000       1.842497        50.1369 
 190   0.0000       1.843816        50.1728 
 191   0.0000       1.960117        53.3375 
 192   0.0000       1.985480        54.0277 
 193   0.0000       2.071628        56.3719 
 194   0.0000       2.125728        57.8440 
 195   0.0000       2.137764        58.1715 
 196   0.0000       2.140228        58.2386 
 197   0.0000       2.163763        58.8790 
 198   0.0000       2.224039        60.5192 
 199   0.0000       2.227842        60.6226 
 200   0.0000       2.275581        61.9217 
 201   0.0000       2.310385        62.8688 
 202   0.0000       2.328936        63.3736 
 203   0.0000       2.346233        63.8442 
 204   0.0000       2.381779        64.8115 
 205   0.0000       2.425549        66.0026 
 206   0.0000       2.457510        66.8722 
 207   0.0000       2.482715        67.5581 
 208   0.0000       2.515688        68.4553 
 209   0.0000       2.547010        69.3077 
 210   0.0000       2.551096        69.4188 
 211   0.0000       2.647222        72.0346 
 212   0.0000       2.652606        72.1811 
 213   0.0000       2.671290        72.6895 
 214   0.0000       2.701309        73.5063 
 215   0.0000       2.763139        75.1888 
 216   0.0000       2.777345        75.5754 
 217   0.0000       2.844737        77.4092 
 218   0.0000       2.899811        78.9079 
 219   0.0000       2.954840        80.4053 
 220   0.0000       2.978837        81.0583 
 221   0.0000       3.044838        82.8543 
 222   0.0000       3.053148        83.0804 
 223   0.0000       3.249314        88.4183 
 224   0.0000       3.266305        88.8807 
 225   0.0000       3.332248        90.6751 
 226   0.0000       3.403791        92.6219 
 227   0.0000       3.416755        92.9746 
 228   0.0000       3.474818        94.5546 
 229   0.0000       3.496124        95.1344 
 230   0.0000       3.500149        95.2439 
 231   0.0000       3.582681        97.4897 
 232   0.0000       3.640683        99.0680 
 233   0.0000       3.671624        99.9100 
 234   0.0000       3.698033       100.6286 
 235   0.0000       3.705741       100.8384 
 236   0.0000       3.831485       104.2600 
 237   0.0000       3.847452       104.6945 
 238   0.0000       3.913387       106.4887 
 239   0.0000       3.916560       106.5750 
 240   0.0000       3.953281       107.5742 
 241   0.0000       3.980143       108.3052 
 242   0.0000       4.037249       109.8591 
 243   0.0000       4.105352       111.7123 
 244   0.0000       4.151778       112.9756 
 245   0.0000       4.226478       115.0083 
 246   0.0000       4.252528       115.7172 
 247   0.0000       4.466552       121.5411 
 248   0.0000       4.467876       121.5771 
 249   0.0000       4.565687       124.2387 
 250   0.0000       4.581369       124.6654 
 251   0.0000       4.585944       124.7899 
 252   0.0000       4.638311       126.2148 
 253   0.0000       4.733015       128.7919 
 254   0.0000       4.752063       129.3102 
 255   0.0000       4.761322       129.5622 
 256   0.0000       4.830462       131.4436 
 257   0.0000       4.910466       133.6206 
 258   0.0000       4.978414       135.4695 
 259   0.0000       4.997108       135.9782 
 260   0.0000       5.121357       139.3592 
 261   0.0000       5.126532       139.5000 
 262   0.0000       5.224509       142.1661 
 263   0.0000       5.257556       143.0654 
 264   0.0000       5.340106       145.3117 
 265   0.0000       5.369806       146.1199 
 266   0.0000       5.371981       146.1790 
 267   0.0000       5.419988       147.4854 
 268   0.0000       5.434909       147.8914 
 269   0.0000       5.444360       148.1486 
 270   0.0000       5.552590       151.0937 
 271   0.0000       5.580444       151.8516 
 272   0.0000       5.605468       152.5325 
 273   0.0000       5.663400       154.1090 
 274   0.0000       5.722414       155.7148 
 275   0.0000       5.848144       159.1361 
 276   0.0000       5.889487       160.2611 
 277   0.0000       5.892967       160.3558 
 278   0.0000       5.952532       161.9766 
 279   0.0000       6.043386       164.4489 
 280   0.0000       6.090686       165.7360 
 281   0.0000       6.155307       167.4944 
 282   0.0000       6.160379       167.6324 
 283   0.0000       6.217506       169.1869 
 284   0.0000       6.299523       171.4187 
 285   0.0000       6.389028       173.8543 
 286   0.0000       6.489426       176.5863 
 287   0.0000       6.634734       180.5403 
 288   0.0000       6.654589       181.0806 
 289   0.0000       6.722304       182.9232 
 290   0.0000       6.774309       184.3383 
 291   0.0000       6.797036       184.9567 
 292   0.0000       6.919150       188.2797 
 293   0.0000       7.048990       191.8128 
 294   0.0000       7.091032       192.9568 
 295   0.0000       7.150836       194.5841 
 296   0.0000       7.153083       194.6453 
 297   0.0000       7.174724       195.2342 
 298   0.0000       7.367308       200.4746 
 299   0.0000       7.503924       204.1922 
 300   0.0000       7.561645       205.7628 
 301   0.0000       7.642018       207.9499 
 302   0.0000       7.777803       211.6448 
 303   0.0000       8.072101       219.6530 
 304   0.0000       8.102030       220.4674 
 305   0.0000       8.226173       223.8455 
 306   0.0000       8.616138       234.4570 
 307   0.0000       8.618470       234.5205 
 308   0.0000       8.712946       237.0913 
 309   0.0000       8.939534       243.2571 
 310   0.0000       8.985551       244.5093 
 311   0.0000       9.042262       246.0524 
 312   0.0000       9.044819       246.1220 
 313   0.0000       9.066766       246.7193 
 314   0.0000       9.071631       246.8516 
 315   0.0000       9.178218       249.7520 
 316   0.0000       9.213147       250.7025 
 317   0.0000       9.285815       252.6799 
 318   0.0000       9.437077       256.7959 
 319   0.0000       9.606732       261.4125 
 320   0.0000       9.863754       268.4064 
 321   0.0000       9.904068       269.5034 
 322   0.0000      10.029796       272.9246 
 323   0.0000      10.480012       285.1756 
 324   0.0000      10.620400       288.9958 
 325   0.0000      10.679086       290.5927 
 326   0.0000      10.724186       291.8199 
 327   0.0000      10.743242       292.3385 
 328   0.0000      10.860332       295.5247 
 329   0.0000      10.905834       296.7628 
 330   0.0000      10.980600       298.7973 
 331   0.0000      10.983761       298.8833 
 332   0.0000      11.176366       304.1244 
 333   0.0000      11.187476       304.4267 
 334   0.0000      11.484431       312.5073 
 335   0.0000      11.498643       312.8940 
 336   0.0000      11.623137       316.2816 
 337   0.0000      11.662018       317.3397 
 338   0.0000      11.692194       318.1608 
 339   0.0000      11.797502       321.0263 
 340   0.0000      11.845458       322.3313 
 341   0.0000      11.895175       323.6842 
 342   0.0000      12.053666       327.9969 
 343   0.0000      12.096161       329.1533 
 344   0.0000      12.215495       332.4005 
 345   0.0000      12.253966       333.4474 
 346   0.0000      12.289255       334.4076 
 347   0.0000      12.346518       335.9658 
 348   0.0000      12.382529       336.9457 
 349   0.0000      12.418485       337.9242 
 350   0.0000      12.487161       339.7929 
 351   0.0000      12.492308       339.9330 
 352   0.0000      12.513681       340.5146 
 353   0.0000      12.542712       341.3045 
 354   0.0000      12.609646       343.1259 
 355   0.0000      12.620290       343.4155 
 356   0.0000      12.643219       344.0395 
 357   0.0000      12.674363       344.8870 
 358   0.0000      12.675012       344.9046 
 359   0.0000      12.729337       346.3829 
 360   0.0000      12.758627       347.1799 
 361   0.0000      12.810259       348.5849 
 362   0.0000      12.838142       349.3436 
 363   0.0000      12.908763       351.2653 
 364   0.0000      12.995681       353.6305 
 365   0.0000      13.013385       354.1122 
 366   0.0000      13.118268       356.9662 
 367   0.0000      13.144869       357.6901 
 368   0.0000      13.284019       361.4765 
 369   0.0000      13.363913       363.6506 
 370   0.0000      13.420875       365.2006 
 371   0.0000      13.497555       367.2871 
 372   0.0000      13.581025       369.5585 
 373   0.0000      13.643477       371.2579 
 374   0.0000      13.703040       372.8787 
 375   0.0000      13.915646       378.6640 
 376   0.0000      13.940086       379.3290 
 377   0.0000      14.021458       381.5433 
 378   0.0000      14.145900       384.9295 
 379   0.0000      14.190169       386.1341 
 380   0.0000      14.324471       389.7887 
 381   0.0000      14.333338       390.0300 
 382   0.0000      14.533783       395.4843 
 383   0.0000      14.667710       399.1287 
 384   0.0000      14.691444       399.7745 
 385   0.0000      15.031463       409.0269 
 386   0.0000      15.075686       410.2303 
 387   0.0000      15.157989       412.4699 
 388   0.0000      15.311965       416.6598 
 389   0.0000      15.325994       417.0415 
 390   0.0000      15.512614       422.1197 
 391   0.0000      15.593438       424.3190 
 392   0.0000      15.603098       424.5819 
 393   0.0000      15.645853       425.7453 
 394   0.0000      15.773043       429.2063 
 395   0.0000      16.257449       442.3877 
 396   0.0000      16.370494       445.4638 
 397   0.0000      16.713883       454.8079 
 398   0.0000      16.735391       455.3931 
 399   0.0000      16.741183       455.5507 
 400   0.0000      16.754543       455.9143 
 401   0.0000      16.824194       457.8096 
 402   0.0000      16.960247       461.5118 
 403   0.0000      17.131416       466.1695 
 404   0.0000      17.223141       468.6655 
 405   0.0000      17.295648       470.6385 
 406   0.0000      17.341469       471.8854 
 407   0.0000      17.472645       475.4548 
 408   0.0000      17.774254       483.6620 
 409   0.0000      18.452966       502.1307 
 410   0.0000      18.478563       502.8273 
 411   0.0000      18.897195       514.2188 
 412   0.0000      18.902422       514.3610 
 413   0.0000      19.089263       519.4453 
 414   0.0000      19.947978       542.8121 
 415   0.0000      20.116306       547.3925 
 416   0.0000      20.139452       548.0224 
 417   0.0000      20.275163       551.7152 
 418   0.0000      20.281007       551.8743 
 419   0.0000      20.379554       554.5559 
 420   0.0000      20.386342       554.7406 
 421   0.0000      20.435916       556.0896 
 422   0.0000      20.520714       558.3970 
 423   0.0000      20.846017       567.2490 
 424   0.0000      20.939103       569.7820 
 425   0.0000      21.246813       578.1552 
 426   0.0000      21.261116       578.5444 
 427   0.0000      21.325655       580.3006 
 428   0.0000      22.065992       600.4462 
 429   0.0000      22.266875       605.9125 
 430   0.0000      23.037780       626.8899 
 431   0.0000      23.526557       640.1902 
 432   0.0000      23.577400       641.5737 
 433   0.0000      23.791899       647.4105 
 434   0.0000      23.889018       650.0532 
 435   0.0000      25.496261       693.7885 
 436   0.0000      25.787394       701.7107 
 437   0.0000      30.417735       827.7087 
 438   0.0000      30.456195       828.7552 
 439   0.0000      30.695981       835.2801 
 440   0.0000      30.982764       843.0839 
 441   0.0000      31.423030       855.0641 
 442   0.0000      32.381692       881.1506 
 443   0.0000      32.435598       882.6175 
 444   0.0000      33.410658       909.1502 
 445   0.0000      33.810362       920.0267 
 446   0.0000      34.194607       930.4826 
 447   0.0000      41.133701      1119.3049 
 448   0.0000      41.165764      1120.1774 
 449   0.0000      41.725944      1135.4207 
 450   0.0000      41.838969      1138.4962 
 451   0.0000      42.160925      1147.2571 
 452   0.0000      44.119238      1200.5455 
 453   0.0000      76.055358      2069.5715 
 454   0.0000      91.064341      2477.9867 
 455   0.0000      91.095578      2478.8367 
 456   0.0000      91.231454      2482.5341 
 457   0.0000      91.299590      2484.3881 
 458   0.0000      91.320690      2484.9623 
 459   0.0000      91.346152      2485.6552 
 460   0.0000      91.518739      2490.3515 
 461   0.0000      91.710191      2495.5612 
 462   0.0000      92.313367      2511.9744 
 463   0.0000      92.401147      2514.3630 
 464   0.0000      92.522450      2517.6639 
 465   0.0000     202.622366      5513.6349 

                    ********************************
                    * MULLIKEN POPULATION ANALYSIS *
                    ********************************

--------------------------------------------
MULLIKEN ATOMIC CHARGES AND SPIN POPULATIONS
--------------------------------------------
   0 C :    0.215233    0.997743
   1 F :   -0.344964    0.121250
   2 H :    0.064880   -0.059475
   3 H :    0.064852   -0.059519
Sum of atomic charges         :   -0.0000000
Sum of atomic spin populations:    1.0000000

-----------------------------------------------------
MULLIKEN REDUCED ORBITAL CHARGES AND SPIN POPULATIONS
-----------------------------------------------------
CHARGE
  0 C s       :     3.064589  s :     3.064589
      pz      :     1.041142  p :     2.595082
      px      :     0.991715
      py      :     0.562226
      dz2     :     0.011713  d :     0.108299
      dxz     :     0.004715
      dyz     :     0.045638
      dx2y2   :     0.012898
      dxy     :     0.033335
      f0      :     0.001789  f :     0.013293
      f+1     :     0.000656
      f-1     :     0.001543
      f+2     :     0.002366
      f-2     :     0.000112
      f+3     :     0.004902
      f-3     :     0.001925
      g0      :     0.000217  g :     0.003394
      g+1     :     0.000015
      g-1     :     0.000950
      g+2     :     0.000382
      g-2     :     0.000269
      g+3     :     0.000024
      g-3     :     0.000362
      g+4     :     0.000256
      g-4     :     0.000919
      h0      :    -0.000013  h :     0.000109
      h+1     :     0.000007
      h-1     :     0.000019
      h+2     :    -0.000015
      h-2     :     0.000002
      h+3     :     0.000024
      h-3     :     0.000027
      h+4     :    -0.000007
      h-4     :     0.000000
      h+5     :     0.000031
      h-5     :     0.000034
  1 F s       :     3.979487  s :     3.979487
      pz      :     1.945433  p :     5.294069
      px      :     1.859527
      py      :     1.489110
      dz2     :     0.002630  d :     0.057823
      dxz     :    -0.000346
      dyz     :     0.023501
      dx2y2   :     0.006892
      dxy     :     0.025146
      f0      :     0.001992  f :     0.011420
      f+1     :     0.000385
      f-1     :     0.000543
      f+2     :     0.002781
      f-2     :    -0.000191
      f+3     :     0.005154
      f-3     :     0.000755
      g0      :     0.000028  g :     0.001884
      g+1     :    -0.000002
      g-1     :     0.000399
      g+2     :     0.000068
      g-2     :     0.000116
      g+3     :    -0.000073
      g-3     :     0.000112
      g+4     :     0.000149
      g-4     :     0.001086
      h0      :     0.000026  h :     0.000282
      h+1     :     0.000002
      h-1     :     0.000002
      h+2     :     0.000040
      h-2     :     0.000002
      h+3     :     0.000019
      h-3     :     0.000005
      h+4     :    -0.000019
      h-4     :    -0.000020
      h+5     :     0.000197
      h-5     :     0.000026
  2 H s       :     0.870767  s :     0.870767
      pz      :     0.026639  p :     0.062711
      px      :     0.024416
      py      :     0.011656
      dz2     :     0.001664  d :     0.001379
      dxz     :     0.000349
      dyz     :    -0.001071
      dx2y2   :     0.000983
      dxy     :    -0.000546
      f0      :     0.000263  f :    -0.000112
      f+1     :     0.000106
      f-1     :    -0.001190
      f+2     :     0.000115
      f-2     :    -0.000794
      f+3     :     0.001033
      f-3     :     0.000357
      g0      :     0.000086  g :     0.000375
      g+1     :    -0.000001
      g-1     :    -0.000054
      g+2     :     0.000135
      g-2     :    -0.000033
      g+3     :     0.000063
      g-3     :     0.000067
      g+4     :     0.000026
      g-4     :     0.000086
  3 H s       :     0.870795  s :     0.870795
      pz      :     0.026640  p :     0.062713
      px      :     0.024420
      py      :     0.011653
      dz2     :     0.001663  d :     0.001378
      dxz     :     0.000350
      dyz     :    -0.001073
      dx2y2   :     0.000983
      dxy     :    -0.000546
      f0      :     0.000263  f :    -0.000112
      f+1     :     0.000106
      f-1     :    -0.001191
      f+2     :     0.000115
      f-2     :    -0.000794
      f+3     :     0.001033
      f-3     :     0.000357
      g0      :     0.000086  g :     0.000375
      g+1     :    -0.000001
      g-1     :    -0.000054
      g+2     :     0.000135
      g-2     :    -0.000033
      g+3     :     0.000063
      g-3     :     0.000067
      g+4     :     0.000026
      g-4     :     0.000086

SPIN
  0 C s       :     0.042509  s :     0.042509
      pz      :     0.088181  p :     0.927864
      px      :     0.796569
      py      :     0.043114
      dz2     :    -0.000617  d :     0.028088
      dxz     :    -0.000509
      dyz     :     0.016877
      dx2y2   :    -0.000185
      dxy     :     0.012522
      f0      :    -0.000154  f :    -0.000561
      f+1     :     0.000067
      f-1     :    -0.000099
      f+2     :    -0.000273
      f-2     :    -0.000023
      f+3     :     0.000478
      f-3     :    -0.000557
      g0      :    -0.000038  g :    -0.000212
      g+1     :     0.000002
      g-1     :    -0.000015
      g+2     :    -0.000035
      g-2     :     0.000017
      g+3     :    -0.000005
      g-3     :    -0.000024
      g+4     :    -0.000042
      g-4     :    -0.000071
      h0      :     0.000000  h :     0.000054
      h+1     :     0.000002
      h-1     :     0.000014
      h+2     :    -0.000002
      h-2     :    -0.000001
      h+3     :     0.000027
      h-3     :     0.000008
      h+4     :    -0.000014
      h-4     :    -0.000000
      h+5     :     0.000003
      h-5     :     0.000015
  1 F s       :     0.009402  s :     0.009402
      pz      :    -0.000035  p :     0.080563
      px      :     0.072727
      py      :     0.007872
      dz2     :     0.000195  d :     0.024148
      dxz     :     0.000098
      dyz     :     0.006770
      dx2y2   :     0.001533
      dxy     :     0.015552
      f0      :     0.000425  f :     0.005539
      f+1     :     0.000289
      f-1     :    -0.000209
      f+2     :     0.001415
      f-2     :     0.000060
      f+3     :     0.003678
      f-3     :    -0.000119
      g0      :    -0.000002  g :     0.001343
      g+1     :     0.000003
      g-1     :     0.000027
      g+2     :    -0.000023
      g-2     :     0.000091
      g+3     :     0.000029
      g-3     :     0.000331
      g+4     :    -0.000058
      g-4     :     0.000946
      h0      :    -0.000006  h :     0.000255
      h+1     :     0.000002
      h-1     :     0.000004
      h+2     :    -0.000004
      h-2     :     0.000001
      h+3     :     0.000019
      h-3     :    -0.000000
      h+4     :     0.000063
      h-4     :     0.000011
      h+5     :     0.000177
      h-5     :    -0.000011
  2 H s       :    -0.082518  s :    -0.082518
      pz      :     0.001333  p :     0.020539
      px      :     0.020484
      py      :    -0.001278
      dz2     :     0.000046  d :     0.001529
      dxz     :     0.001489
      dyz     :     0.000067
      dx2y2   :    -0.000676
      dxy     :     0.000604
      f0      :    -0.000072  f :     0.000820
      f+1     :     0.000019
      f-1     :     0.000177
      f+2     :    -0.000089
      f-2     :     0.000250
      f+3     :     0.000594
      f-3     :    -0.000058
      g0      :    -0.000012  g :     0.000155
      g+1     :    -0.000034
      g-1     :     0.000006
      g+2     :     0.000015
      g-2     :     0.000016
      g+3     :     0.000092
      g-3     :    -0.000000
      g+4     :     0.000027
      g-4     :     0.000044
  3 H s       :    -0.082559  s :    -0.082559
      pz      :     0.001328  p :     0.020536
      px      :     0.020487
      py      :    -0.001280
      dz2     :     0.000047  d :     0.001529
      dxz     :     0.001490
      dyz     :     0.000066
      dx2y2   :    -0.000677
      dxy     :     0.000604
      f0      :    -0.000072  f :     0.000820
      f+1     :     0.000019
      f-1     :     0.000177
      f+2     :    -0.000089
      f-2     :     0.000250
      f+3     :     0.000594
      f-3     :    -0.000058
      g0      :    -0.000012  g :     0.000155
      g+1     :    -0.000034
      g-1     :     0.000006
      g+2     :     0.000015
      g-2     :     0.000016
      g+3     :     0.000092
      g-3     :    -0.000000
      g+4     :     0.000027
      g-4     :     0.000044


                     *******************************
                     * LOEWDIN POPULATION ANALYSIS *
                     *******************************

-------------------------------------------
LOEWDIN ATOMIC CHARGES AND SPIN POPULATIONS
-------------------------------------------
   0 C :    0.555949    0.495442
   1 F :    0.303653    0.242239
   2 H :   -0.429801    0.131160
   3 H :   -0.429801    0.131160

----------------------------------------------------
LOEWDIN REDUCED ORBITAL CHARGES AND SPIN POPULATIONS
----------------------------------------------------
CHARGE
  0 C s       :     2.551261  s :     2.551261
      pz      :     0.831312  p :     2.063292
      px      :     0.610791
      py      :     0.621189
      dz2     :     0.082835  d :     0.537046
      dxz     :     0.011124
      dyz     :     0.188255
      dx2y2   :     0.142426
      dxy     :     0.112407
      f0      :     0.034884  f :     0.230761
      f+1     :     0.006942
      f-1     :     0.035405
      f+2     :     0.041252
      f-2     :     0.002532
      f+3     :     0.060823
      f-3     :     0.048923
      g0      :     0.002219  g :     0.052113
      g+1     :     0.000309
      g-1     :     0.009340
      g+2     :     0.005748
      g-2     :     0.002344
      g+3     :     0.000134
      g-3     :     0.008182
      g+4     :     0.009539
      g-4     :     0.014298
      h0      :     0.000428  h :     0.009577
      h+1     :     0.000037
      h-1     :     0.000509
      h+2     :     0.000950
      h-2     :     0.000053
      h+3     :     0.000374
      h-3     :     0.000984
      h+4     :     0.000871
      h-4     :     0.000020
      h+5     :     0.002950
      h-5     :     0.002400
  1 F s       :     3.342462  s :     3.342462
      pz      :     1.673198  p :     4.798666
      px      :     1.609590
      py      :     1.515878
      dz2     :     0.020801  d :     0.295536
      dxz     :     0.000460
      dyz     :     0.113955
      dx2y2   :     0.078131
      dxy     :     0.082190
      f0      :     0.028955  f :     0.158066
      f+1     :     0.002325
      f-1     :     0.007460
      f+2     :     0.053141
      f-2     :     0.001139
      f+3     :     0.037717
      f-3     :     0.027330
      g0      :     0.000559  g :     0.071994
      g+1     :     0.000093
      g-1     :     0.021038
      g+2     :     0.001190
      g-2     :     0.001656
      g+3     :     0.001556
      g-3     :     0.022832
      g+4     :     0.009115
      g-4     :     0.013958
      h0      :     0.002404  h :     0.029622
      h+1     :     0.000067
      h-1     :     0.000912
      h+2     :     0.005833
      h-2     :     0.000078
      h+3     :     0.000680
      h-3     :     0.000639
      h+4     :     0.009154
      h-4     :     0.001292
      h+5     :     0.005438
      h-5     :     0.003125
  2 H s       :     0.689212  s :     0.689212
      pz      :     0.151416  p :     0.311071
      px      :     0.095399
      py      :     0.064257
      dz2     :     0.078400  d :     0.228954
      dxz     :     0.052119
      dyz     :     0.050882
      dx2y2   :     0.028205
      dxy     :     0.019349
      f0      :     0.031787  f :     0.119964
      f+1     :     0.009440
      f-1     :     0.023428
      f+2     :     0.020775
      f-2     :     0.013415
      f+3     :     0.010002
      f-3     :     0.011117
      g0      :     0.016137  g :     0.080600
      g+1     :     0.001697
      g-1     :     0.011656
      g+2     :     0.011170
      g-2     :     0.002398
      g+3     :     0.009901
      g-3     :     0.011644
      g+4     :     0.007897
      g-4     :     0.008100
  3 H s       :     0.689212  s :     0.689212
      pz      :     0.151416  p :     0.311071
      px      :     0.095399
      py      :     0.064257
      dz2     :     0.078400  d :     0.228954
      dxz     :     0.052119
      dyz     :     0.050882
      dx2y2   :     0.028205
      dxy     :     0.019349
      f0      :     0.031787  f :     0.119964
      f+1     :     0.009440
      f-1     :     0.023428
      f+2     :     0.020775
      f-2     :     0.013415
      f+3     :     0.010002
      f-3     :     0.011117
      g0      :     0.016137  g :     0.080600
      g+1     :     0.001697
      g-1     :     0.011656
      g+2     :     0.011170
      g-2     :     0.002398
      g+3     :     0.009901
      g-3     :     0.011644
      g+4     :     0.007897
      g-4     :     0.008100

SPIN
  0 C s       :     0.019446  s :     0.019446
      pz      :     0.008101  p :     0.449287
      px      :     0.432267
      py      :     0.008919
      dz2     :    -0.002479  d :     0.016349
      dxz     :    -0.000853
      dyz     :    -0.001450
      dx2y2   :     0.001337
      dxy     :     0.019795
      f0      :    -0.000590  f :     0.007920
      f+1     :     0.000806
      f-1     :     0.000413
      f+2     :    -0.000147
      f-2     :    -0.000155
      f+3     :     0.008202
      f-3     :    -0.000609
      g0      :     0.000013  g :     0.002003
      g+1     :    -0.000007
      g-1     :    -0.000010
      g+2     :    -0.000011
      g-2     :     0.000280
      g+3     :    -0.000004
      g-3     :    -0.000094
      g+4     :     0.000036
      g-4     :     0.001801
      h0      :    -0.000000  h :     0.000437
      h+1     :     0.000008
      h-1     :     0.000005
      h+2     :    -0.000004
      h-2     :    -0.000000
      h+3     :     0.000054
      h-3     :     0.000020
      h+4     :     0.000003
      h-4     :    -0.000000
      h+5     :     0.000349
      h-5     :     0.000002
  1 F s       :     0.002613  s :     0.002613
      pz      :     0.001265  p :     0.108275
      px      :     0.112409
      py      :    -0.005399
      dz2     :     0.001557  d :     0.077588
      dxz     :    -0.000026
      dyz     :     0.000407
      dx2y2   :     0.002008
      dxy     :     0.073643
      f0      :     0.000387  f :     0.036379
      f+1     :     0.002096
      f-1     :     0.001177
      f+2     :     0.000012
      f-2     :    -0.000065
      f+3     :     0.032853
      f-3     :    -0.000081
      g0      :     0.000226  g :     0.012773
      g+1     :    -0.000007
      g-1     :     0.000425
      g+2     :     0.000331
      g-2     :     0.001392
      g+3     :    -0.000086
      g-3     :    -0.000296
      g+4     :    -0.000400
      g-4     :     0.011188
      h0      :     0.000113  h :     0.004610
      h+1     :     0.000044
      h-1     :     0.000107
      h+2     :     0.000124
      h-2     :    -0.000008
      h+3     :     0.000508
      h-3     :     0.000037
      h+4     :    -0.000258
      h-4     :    -0.000069
      h+5     :     0.004241
      h-5     :    -0.000230
  2 H s       :    -0.008313  s :    -0.008313
      pz      :     0.004109  p :     0.075847
      px      :     0.070461
      py      :     0.001277
      dz2     :     0.002188  d :     0.047574
      dxz     :     0.037006
      dyz     :     0.001419
      dx2y2   :     0.003477
      dxy     :     0.003485
      f0      :     0.000783  f :     0.012586
      f+1     :     0.006530
      f-1     :     0.000590
      f+2     :     0.001942
      f-2     :     0.001564
      f+3     :     0.000927
      f-3     :     0.000250
      g0      :    -0.000067  g :     0.003466
      g+1     :     0.001059
      g-1     :     0.000064
      g+2     :     0.000269
      g-2     :     0.000287
      g+3     :     0.000710
      g-3     :     0.000041
      g+4     :     0.000110
      g-4     :     0.000991
  3 H s       :    -0.008313  s :    -0.008313
      pz      :     0.004109  p :     0.075847
      px      :     0.070461
      py      :     0.001277
      dz2     :     0.002188  d :     0.047574
      dxz     :     0.037006
      dyz     :     0.001419
      dx2y2   :     0.003477
      dxy     :     0.003485
      f0      :     0.000783  f :     0.012586
      f+1     :     0.006530
      f-1     :     0.000590
      f+2     :     0.001942
      f-2     :     0.001564
      f+3     :     0.000927
      f-3     :     0.000250
      g0      :    -0.000067  g :     0.003466
      g+1     :     0.001059
      g-1     :     0.000064
      g+2     :     0.000269
      g-2     :     0.000287
      g+3     :     0.000710
      g-3     :     0.000041
      g+4     :     0.000110
      g-4     :     0.000991


                      *****************************
                      * MAYER POPULATION ANALYSIS *
                      *****************************

  NA   - Mulliken gross atomic population
  ZA   - Total nuclear charge
  QA   - Mulliken gross atomic charge
  VA   - Mayer's total valence
  BVA  - Mayer's bonded valence
  FA   - Mayer's free valence

  ATOM       NA         ZA         QA         VA         BVA        FA
  0 C      5.7848     6.0000     0.2152     3.7773     3.0516     0.7257
  1 F      9.3450     9.0000    -0.3450     1.1289     1.0927     0.0362
  2 H      0.9351     1.0000     0.0649     1.1148     1.1065     0.0083
  3 H      0.9351     1.0000     0.0649     1.1149     1.1065     0.0083

  Mayer bond orders larger than 0.1
B(  0-C ,  1-F ) :   1.0334 B(  0-C ,  2-H ) :   1.0091 B(  0-C ,  3-H ) :   1.0091 


-------
TIMINGS
-------

Total SCF time: 0 days 1 hours 54 min 8 sec 

Total time                  ....    6848.539 sec
Sum of individual times     ....    6847.457 sec  (100.0%)

Fock matrix formation       ....    6831.861 sec  ( 99.8%)
  XC integration            ....     235.590 sec  (  3.4% of F)
    Basis function eval.    ....      14.331 sec  (  6.1% of XC)
    Density eval.           ....      56.038 sec  ( 23.8% of XC)
    XC-Functional eval.     ....       1.538 sec  (  0.7% of XC)
    XC-Potential eval.      ....     162.539 sec  ( 69.0% of XC)
Diagonalization             ....       2.582 sec  (  0.0%)
Density matrix formation    ....       0.044 sec  (  0.0%)
Population analysis         ....       0.223 sec  (  0.0%)
Initial guess               ....       8.563 sec  (  0.1%)
Orbital Transformation      ....       0.000 sec  (  0.0%)
Orbital Orthonormalization  ....       0.000 sec  (  0.0%)
DIIS solution               ....       1.122 sec  (  0.0%)
Grid generation             ....       3.063 sec  (  0.0%)

-------------------------   --------------------
FINAL SINGLE POINT ENERGY      -138.993206144082
-------------------------   --------------------


                            ***************************************
                            *     ORCA property calculations      *
                            ***************************************

                                    ---------------------
                                    Active property flags
                                    ---------------------
   (+) Dipole Moment
   (+) Polarizability


------------------------------------------------------------------------------
                       ORCA ELECTRIC PROPERTIES CALCULATION
------------------------------------------------------------------------------

Dipole Moment Calculation                       ... on
Quadrupole Moment Calculation                   ... off
Polarizability Calculation                      ... Analytic (CP-SCF)
GBWName                                         ... ch2f_pbe.gbw
Electron density file                           ... ch2f_pbe.scfp.tmp
The origin for moment calculation is the CENTER OF MASS  = (-0.026122, -0.163805  0.000000)

-------------
DIPOLE MOMENT
-------------
                                X             Y             Z
Electronic contribution:     -0.27309      -2.36418      -0.00000
Nuclear contribution   :      0.44314       2.78488       0.00000
                        -----------------------------------------
Total Dipole Moment    :      0.17005       0.42070      -0.00000
                        -----------------------------------------
Magnitude (a.u.)       :      0.45376
Magnitude (Debye)      :      1.15338



--------------------
Rotational spectrum 
--------------------
 
Rotational constants in cm-1:     8.869277     1.033800     0.935247 
Rotational constants in MHz : 265894.235339 30992.545247 28038.014202 

 Dipole components along the rotational axes: 
x,y,z [a.u.] :    -0.426590    -0.000000    -0.154672 
x,y,z [Debye]:    -1.084306    -0.000000    -0.393144 

 
Transforming and storing MO dipole integrals   ... done

                ... starting polarizability calculation

Opening the Dipole integral file               ... (ch2f_pbe.dmo.tmp) done
Reading Dipole-MO integrals                    ... done
Solving CP-SCF equations                       ... 
------------------------------------------------------------------------------
                           ORCA CP-SCF CALCULATION
------------------------------------------------------------------------------

Input orbitals are from        ... ch2f_pbe.gbw
Input Perturbation             ... ch2f_pbe.cpv.tmp
Wavefunction output            ... ch2f_pbe.cpu.tmp
Perturbation mode              ... Real perturbation (singlet)
Solver                         ... POPLE
Max. number of iterations      ... 200
Convergence tolerance          ... 1.000e-06
Integral handling              ... Direct
Number of perturbations        ... 3
Number of operators            ... 2
Orbital ranges used for CP-SCF:
 Operator 0:  Orbitals   0...  8  to   9...465
 Operator 1:  Orbitals   0...  7  to   8...465
DFT calculation                         ... on
Exchange functional (SCF)               ... PBE
Exchange functional (CP-SCF)            ... PBE
   PBE kappa parameter  XKappa (SCF)    ...  0.804000
   PBE kappa parameter  XKappa (CP-SCF) ...  0.804000
   PBE mue parameter   XMuePBE (SCF)    ...  0.219520
   PBE mue parameter   XMuePBE (CP-SCF) ...  0.219520
Correlation functional (SCF)            ... PBE
Correlation functional (CP-SCF)         ... PBE
   PBE beta parameter CBetaPBE (SCF)    ...  0.066725
   PBE beta parameter CBetaPBE (CP-SCF) ...  0.066725
 LDA part of GGA corr.  LDAOpt (SCF)    ... PW91-LDA
 LDA part of GGA corr.  LDAOpt (CP-SCF) ... PW91-LDA
Variables per vector in CP-SCF ... 7777
Number of vectors sought       ... 3
Recalculating density on grid  ... done
Calculating the xc-kernel      ... done
     CP-SCF ITERATION   0: 
     CP-SCF ITERATION   1:      0.156486778649
     CP-SCF ITERATION   2:      0.017152967394
     CP-SCF ITERATION   3:      0.001699831132
     CP-SCF ITERATION   4:      0.000042172283
     CP-SCF ITERATION   5:      0.000002191602
     CP-SCF ITERATION   6:      0.000000162301
done
Reading CP-SCF coefficients                    ... done
Doing the polarizability tensor   ... done
Cleaning up                                    ... done

-------------------------
THE POLARIZABILITY TENSOR
-------------------------

The raw cartesian tensor (atomic units):
   17.45591      0.17013     -0.00000  
    0.17013     18.89576     -0.00000  
   -0.00000     -0.00000     17.14141  
diagonalized tensor: 
   17.14141     17.43608     18.91559  

    0.00000      0.99328      0.11577  
   -0.00000     -0.11577      0.99328  
    1.00000     -0.00000     -0.00000  

Isotropic polarizability :  17.83103


Timings for individual modules:

Sum of individual times         ...    12255.299 sec (= 204.255 min)
GTO integral calculation        ...        1.572 sec (=   0.026 min)   0.0 %
SCF iterations                  ...     6848.561 sec (= 114.143 min)  55.9 %
Solution of CP-SCF eqns.        ...     5405.167 sec (=  90.086 min)  44.1 %
                             ****ORCA TERMINATED NORMALLY****
TOTAL RUN TIME: 0 days 3 hours 24 minutes 15 seconds 888 msec
