
                                 *****************
                                 * O   R   C   A *
                                 *****************

           --- An Ab Initio, DFT and Semiempirical electronic structure package ---

                  #######################################################
                  #                        -***-                        #
                  #          Department of theory and spectroscopy      #
                  #               Directorship: Frank Neese             #
                  #        Max Planck Institute fuer Kohlenforschung    #
                  #                Kaiser Wilhelm Platz 1               #
                  #                 D-45470 Muelheim/Ruhr               #
                  #                      Germany                        #
                  #                                                     #
                  #                  All rights reserved                #
                  #                        -***-                        #
                  #######################################################


                         Program Version 4.1.2  - RELEASE  -


 With contributions from (in alphabetic order):
   Daniel Aravena         : Magnetic Properties
   Michael Atanasov       : Ab Initio Ligand Field Theory
   Alexander A. Auer      : GIAO ZORA
   Ute Becker             : Parallelization
   Giovanni Bistoni       : ED, Open-shell LED
   Martin Brehm           : Molecular dynamics
   Dmytro Bykov           : SCF Hessian
   Vijay G. Chilkuri      : MRCI spin determinant printing
   Dipayan Datta          : RHF DLPNO-CCSD density
   Achintya Kumar Dutta   : EOM-CC, STEOM-CC
   Dmitry Ganyushin       : Spin-Orbit,Spin-Spin,Magnetic field MRCI
   Miquel Garcia          : C-PCM Hessian
   Yang Guo               : DLPNO-NEVPT2, CIM, IAO-localization
   Andreas Hansen         : Spin unrestricted coupled pair/coupled cluster methods
   Benjamin Helmich-Paris : CASSCF linear response (MC-RPA)
   Lee Huntington         : MR-EOM, pCC
   Robert Izsak           : Overlap fitted RIJCOSX, COSX-SCS-MP3, EOM
   Christian Kollmar      : KDIIS, OOCD, Brueckner-CCSD(T), CCSD density
   Simone Kossmann        : Meta GGA functionals, TD-DFT gradient, OOMP2, MP2 Hessian
   Martin Krupicka        : AUTO-CI
   Lucas Lang             : DCDCAS
   Dagmar Lenk            : GEPOL surface, SMD
   Dimitrios Liakos       : Extrapolation schemes; parallel MDCI
   Dimitrios Manganas     : ROCIS; embedding schemes
   Dimitrios Pantazis     : SARC Basis sets
   Taras Petrenko         : DFT Hessian,TD-DFT gradient, ASA, ECA, R-Raman, ABS, FL, XAS/XES, NRVS
   Peter Pinski           : DLPNO-MP2, DLPNO-MP2 Gradient
   Christoph Reimann      : Effective Core Potentials
   Marius Retegan         : Local ZFS, SOC
   Christoph Riplinger    : Optimizer, TS searches, QM/MM, DLPNO-CCSD(T), (RO)-DLPNO pert. Triples
   Tobias Risthaus        : Range-separated hybrids, TD-DFT gradient, RPA, STAB
   Michael Roemelt        : Restricted open shell CIS
   Masaaki Saitow         : Open-shell DLPNO
   Barbara Sandhoefer     : DKH picture change effects
   Avijit Sen             : IP-ROCIS
   Kantharuban Sivalingam : CASSCF convergence, NEVPT2, FIC-MRCI
   Bernardo de Souza      : ESD, SOC TD-DFT
   Georgi Stoychev        : AutoAux, RI-MP2 NMR
   Willem Van den Heuvel  : Paramagnetic NMR
   Boris Wezisla          : Elementary symmetry handling
   Frank Wennmohs         : Technical directorship


 We gratefully acknowledge several colleagues who have allowed us to
 interface, adapt or use parts of their codes:
   Stefan Grimme, W. Hujo, H. Kruse,             : VdW corrections, initial TS optimization,
                  C. Bannwarth                     DFT functionals, gCP, sTDA/sTD-DF
   Ed Valeev                                     : LibInt (2-el integral package), F12 methods
   Garnet Chan, S. Sharma, J. Yang, R. Olivares  : DMRG
   Ulf Ekstrom                                   : XCFun DFT Library
   Mihaly Kallay                                 : mrcc  (arbitrary order and MRCC methods)
   Andreas Klamt, Michael Diedenhofen            : otool_cosmo (COSMO solvation model)
   Jiri Pittner, Ondrej Demel                    : Mk-CCSD
   Frank Weinhold                                : gennbo (NPA and NBO analysis)
   Christopher J. Cramer and Donald G. Truhlar   : smd solvation model
   Lars Goerigk                                  : TD-DFT with DH, B97 family of functionals
   V. Asgeirsson, H. Jonsson                     : NEB implementation
   FAccTs GmbH                                   : IRC, NEB, NEB-TS, Multilevel


 Your calculation uses the libint2 library for the computation of 2-el integrals
 For citations please refer to: http://libint.valeyev.net

 This ORCA versions uses:
   CBLAS   interface :  Fast vector & matrix operations
   LAPACKE interface :  Fast linear algebra routines
   SCALAPACK package :  Parallel linear algebra routines


----- Orbital basis set information -----
Your calculation utilizes the basis: aug-pc-4
   H, C-F              : F. Jensen, J. Chem. Phys. 115, 9113 (2001).
                         F. Jensen, J. Chem. Phys. 116, 7372 (2002).
                         F. Jensen, J. Chem. Phys. 117, 9234 (2002).
   Si-Cl               : F. Jensen, T. Helgaker, J. Chem. Phys. 121, 3463 (2004).
   He-B, Ne-Mg, Al, Ar : F. Jensen, J. Phys. Chem. A 111, 11198 (2007).
   K, Ca, Ga-Kr        : F. Jensen, J. Chem. Phys. 136, 094110 (2012).
   Sc-Zn               : F. Jensen, J. Chem. Phys. 138, 014107 (2013).

================================================================================
                                        WARNINGS
                       Please study these warnings very carefully!
================================================================================


INFO   : the flag for use of LIBINT has been found!

================================================================================
                                       INPUT FILE
================================================================================
NAME = ch2nh_pbe.inp
|  1> !uks pbe nori aug-pc-4 grid7 nofinalgrid verytightscf
|  2> 
|  3> %maxcore 1500
|  4> 
|  5> %pal nprocs 4 end
|  6> 
|  7> %scf
|  8> 	maxiter 200
|  9> end
| 10> %elprop
| 11> 	dipole true
| 12> 	 polar 1
| 13> 	 maxiter 200
| 14> end
| 15> 
| 16> * xyz 0 1
| 17> C 0.0588 0 0.5875
| 18> N 0.0588 0 -0.6855
| 19> H -0.8621 0 1.1946
| 20> H 0.9977 0 1.1231
| 21> H -0.8995 0 -1.0438
| 22> *
| 23> 
| 24>                          ****END OF INPUT****
================================================================================

                       ****************************
                       * Single Point Calculation *
                       ****************************

---------------------------------
CARTESIAN COORDINATES (ANGSTROEM)
---------------------------------
  C      0.058800    0.000000    0.587500
  N      0.058800    0.000000   -0.685500
  H     -0.862100    0.000000    1.194600
  H      0.997700    0.000000    1.123100
  H     -0.899500    0.000000   -1.043800

----------------------------
CARTESIAN COORDINATES (A.U.)
----------------------------
  NO LB      ZA    FRAG     MASS         X           Y           Z
   0 C     6.0000    0    12.011    0.111116    0.000000    1.110214
   1 N     7.0000    0    14.007    0.111116    0.000000   -1.295407
   2 H     1.0000    0     1.008   -1.629133    0.000000    2.257467
   3 H     1.0000    0     1.008    1.885380    0.000000    2.122351
   4 H     1.0000    0     1.008   -1.699809    0.000000   -1.972496

--------------------------------
INTERNAL COORDINATES (ANGSTROEM)
--------------------------------
 C      0   0   0     0.000000000000     0.00000000     0.00000000
 N      1   0   0     1.273000000000     0.00000000     0.00000000
 H      1   2   0     1.103008259262   123.39472365     0.00000000
 H      1   2   3     1.080925793013   119.70280378   180.00000085
 H      2   1   3     1.023092263679   110.50033108     0.00000000

---------------------------
INTERNAL COORDINATES (A.U.)
---------------------------
 C      0   0   0     0.000000000000     0.00000000     0.00000000
 N      1   0   0     2.405621368482     0.00000000     0.00000000
 H      1   2   0     2.084383533458   123.39472365     0.00000000
 H      1   2   3     2.042653719886   119.70280378   180.00000085
 H      2   1   3     1.933364188087   110.50033108     0.00000000

---------------------
BASIS SET INFORMATION
---------------------
There are 3 groups of distinct atoms

 Group   1 Type C   : 28s12p7d4f3g2h contracted to 9s8p7d4f3g2h pattern {11101111111/51111111/1111111/1111/111/11}
 Group   2 Type N   : 27s12p7d4f3g2h contracted to 9s8p7d4f3g2h pattern {1191111111/51111111/1111111/1111/111/11}
 Group   3 Type H   : 12s7p4d3f2g contracted to 8s7p4d3f2g pattern {51111111/1111111/1111/111/11}

Atom   0C    basis set group =>   1
Atom   1N    basis set group =>   2
Atom   2H    basis set group =>   3
Atom   3H    basis set group =>   3
Atom   4H    basis set group =>   3


           ************************************************************
           *        Program running with 4 parallel MPI-processes     *
           *              working on a common directory               *
           ************************************************************
------------------------------------------------------------------------------
                           ORCA GTO INTEGRAL CALCULATION
------------------------------------------------------------------------------

                         BASIS SET STATISTICS AND STARTUP INFO

 # of primitive gaussian shells          ...  195
 # of primitive gaussian functions       ...  627
 # of contracted shells                  ...  138
 # of contracted basis functions         ...  554
 Highest angular momentum                ...    5
 Maximum contraction depth               ...   11
 Integral package used                   ... LIBINT
 Integral threshhold            Thresh   ...  1.000e-12
 Primitive cut-off              TCut     ...  1.000e-14


------------------------------ INTEGRAL EVALUATION ----------------------------


 * One electron integrals 
 Pre-screening matrix                    ... done
 Shell pair data                         ... done (   0.003 sec)



           ************************************************************
           *        Program running with 4 parallel MPI-processes     *
           *              working on a common directory               *
           ************************************************************
-------------------------------------------------------------------------------
                                 ORCA SCF
-------------------------------------------------------------------------------

------------
SCF SETTINGS
------------
Hamiltonian:
 Density Functional     Method          .... DFT(GTOs)
 Exchange Functional    Exchange        .... PBE
   PBE kappa parameter   XKappa         ....  0.804000
   PBE mue parameter    XMuePBE         ....  0.219520
 Correlation Functional Correlation     .... PBE
   PBE beta parameter  CBetaPBE         ....  0.066725
 LDA part of GGA corr.  LDAOpt          .... PW91-LDA
 Gradients option       PostSCFGGA      .... off
   Density functional embedding theory  .... OFF
   NL short-range parameter             ....  6.400000


General Settings:
 Integral files         IntName         .... ch2nh_pbe
 Hartree-Fock type      HFTyp           .... UHF
 Total Charge           Charge          ....    0
 Multiplicity           Mult            ....    1
 Number of Electrons    NEL             ....   16
 Basis Dimension        Dim             ....  554
 Nuclear Repulsion      ENuc            ....     32.8654361262 Eh

Convergence Acceleration:
 DIIS                   CNVDIIS         .... on
   Start iteration      DIISMaxIt       ....    12
   Startup error        DIISStart       ....  0.200000
   # of expansion vecs  DIISMaxEq       ....     5
   Bias factor          DIISBfac        ....   1.050
   Max. coefficient     DIISMaxC        ....  10.000
 Newton-Raphson         CNVNR           .... off
 SOSCF                  CNVSOSCF        .... off
 Level Shifting         CNVShift        .... on
   Level shift para.    LevelShift      ....    0.2500
   Turn off err/grad.   ShiftErr        ....    0.0010
 Zerner damping         CNVZerner       .... off
 Static damping         CNVDamp         .... on
   Fraction old density DampFac         ....    0.7000
   Max. Damping (<1)    DampMax         ....    0.9800
   Min. Damping (>=0)   DampMin         ....    0.0000
   Turn off err/grad.   DampErr         ....    0.1000
 Fernandez-Rico         CNVRico         .... off

SCF Procedure:
 Maximum # iterations   MaxIter         ....   200
 SCF integral mode      SCFMode         .... Direct
   Integral package                     .... LIBINT
 Reset frequency        DirectResetFreq ....    20
 Integral Threshold     Thresh          ....  1.000e-12 Eh
 Primitive CutOff       TCut            ....  1.000e-14 Eh

Convergence Tolerance:
 Convergence Check Mode ConvCheckMode   .... Total+1el-Energy
 Convergence forced     ConvForced      .... 0
 Energy Change          TolE            ....  1.000e-09 Eh
 1-El. energy change                    ....  1.000e-06 Eh
 DIIS Error             TolErr          ....  1.000e-08


Diagonalization of the overlap matrix:
Smallest eigenvalue                        ... 5.382e-08
Time for diagonalization                   ...    0.066 sec
Threshold for overlap eigenvalues          ... 1.000e-08
Number of eigenvalues below threshold      ... 0
Time for construction of square roots      ...    0.047 sec
Total time needed                          ...    0.114 sec

-------------------
DFT GRID GENERATION
-------------------

General Integration Accuracy     IntAcc      ...  5.670
Radial Grid Type                 RadialGrid  ... Gauss-Chebyshev
Angular Grid (max. acc.)         AngularGrid ... Lebedev-770
Angular grid pruning method      GridPruning ... 3 (G Style)
Weight generation scheme         WeightScheme... Becke
Basis function cutoff            BFCut       ...    1.0000e-12
Integration weight cutoff        WCut        ...    1.0000e-14
Grids for H and He will be reduced by one unit

# of grid points (after initial pruning)     ... 103576 (   0.0 sec)
# of grid points (after weights+screening)   ... 100737 (   0.0 sec)
nearest neighbour list constructed           ...    0.0 sec
Grid point re-assignment to atoms done       ...    0.0 sec
Grid point division into batches done        ...    1.8 sec
Reduced shell lists constructed in    2.2 sec

Total number of grid points                  ...   100737
Total number of batches                      ...     1575
Average number of points per batch           ...       63
Average number of grid points per atom       ...    20147
Average number of shells per batch           ...   109.01 (78.99%)
Average number of basis functions per batch  ...   450.98 (81.41%)
Average number of large shells per batch     ...    98.41 (90.27%)
Average number of large basis fcns per batch ...   409.98 (90.91%)
Maximum spatial batch extension              ...  12.30, 16.44, 13.51 au
Average spatial batch extension              ...   0.38,  0.42,  0.38 au

Time for grid setup =    2.281 sec

------------------------------
INITIAL GUESS: MODEL POTENTIAL
------------------------------
Loading Hartree-Fock densities                     ... done
Calculating cut-offs                               ... done
Setting up the integral package                    ... done
Initializing the effective Hamiltonian             ... done
Starting the Coulomb interaction                   ... done (   0.1 sec)
Reading the grid                                   ... done
Mapping shells                                     ... done
Starting the XC term evaluation                    ... done (   3.0 sec)
  promolecular density results
     # of electrons  =     15.998531638
     EX              =    -12.477060921
     EC              =     -0.499768286
     EX+EC           =    -12.976829206
Transforming the Hamiltonian                       ... done (   0.0 sec)
Diagonalizing the Hamiltonian                      ... done (   0.1 sec)
Back transforming the eigenvectors                 ... done (   0.0 sec)
Now organizing SCF variables                       ... done
                      ------------------
                      INITIAL GUESS DONE (   5.6 sec)
                      ------------------
--------------
SCF ITERATIONS
--------------
ITER       Energy         Delta-E        Max-DP      RMS-DP      [F,P]     Damp
               ***  Starting incremental Fock matrix formation  ***
  0    -94.4638205809   0.000000000000 0.01476605  0.00015752  0.2506036 0.7000
  1    -94.5126183885  -0.048797807573 0.01372242  0.00010876  0.0842858 0.7000
                               ***Turning on DIIS***
  2    -94.5247496971  -0.012131308670 0.01422655  0.00015096  0.0311167 0.0000
  3    -94.5493371928  -0.024587495635 0.01359706  0.00008877  0.0522976 0.0000
  4    -94.5539683753  -0.004631182585 0.00285988  0.00002858  0.0290738 0.0000
  5    -94.5551960742  -0.001227698850 0.00118553  0.00001148  0.0051863 0.0000
  6    -94.5552375662  -0.000041492015 0.00093324  0.00000859  0.0013833 0.0000
  7    -94.5552402248  -0.000002658591 0.00092094  0.00000801  0.0003177 0.0000
  8    -94.5552405214  -0.000000296566 0.00005272  0.00000044  0.0000618 0.0000
  9    -94.5552405256  -0.000000004244 0.00004618  0.00000036  0.0000239 0.0000
 10    -94.5552405268  -0.000000001200 0.00017333  0.00000084  0.0000065 0.0000
 11    -94.5552405269  -0.000000000067 0.00019571  0.00000135  0.0000022 0.0000
 12    -94.5552405269  -0.000000000003 0.00051094  0.00000228  0.0000006 0.0000
                 **** Energy Check signals convergence ****

               *****************************************************
               *                     SUCCESS                       *
               *           SCF CONVERGED AFTER  13 CYCLES          *
               *****************************************************


----------------
TOTAL SCF ENERGY
----------------

Total Energy       :          -94.55524053 Eh           -2572.97890 eV

Components:
Nuclear Repulsion  :           32.86543613 Eh             894.31398 eV
Electronic Energy  :         -127.42067665 Eh           -3467.29289 eV
One Electron Energy:         -191.95467808 Eh           -5223.35234 eV
Two Electron Energy:           64.53400142 Eh            1756.05946 eV

Virial components:
Potential Energy   :         -188.73334835 Eh           -5135.69550 eV
Kinetic Energy     :           94.17810783 Eh            2562.71660 eV
Virial Ratio       :            2.00400446


DFT components:
N(Alpha)           :        8.000000126511 electrons
N(Beta)            :        8.000000126511 electrons
N(Total)           :       16.000000253022 electrons
E(X)               :      -12.769388394052 Eh       
E(C)               :       -0.505578755974 Eh       
E(XC)              :      -13.274967150027 Eh       
DFET-embed. en.    :        0.000000000000 Eh       

---------------
SCF CONVERGENCE
---------------

  Last Energy change         ...   -2.3448e-12  Tolerance :   1.0000e-09
  Last MAX-Density change    ...    5.9322e-04  Tolerance :   1.0000e-08
  Last RMS-Density change    ...    4.5356e-06  Tolerance :   1.0000e-09
  Last DIIS Error            ...    1.4251e-07  Tolerance :   1.0000e-08

             **** THE GBW FILE WAS UPDATED (ch2nh_pbe.gbw) ****
             **** DENSITY FILE WAS UPDATED (ch2nh_pbe.scfp.tmp) ****
             **** ENERGY FILE WAS UPDATED (ch2nh_pbe.en.tmp) ****
----------------------
UHF SPIN CONTAMINATION
----------------------

Warning: in a DFT calculation there is little theoretical justification to 
         calculate <S**2> as in Hartree-Fock theory. We will do it anyways
         but you should keep in mind that the values have only limited relevance

Expectation value of <S**2>     :    -0.000000
Ideal value S*(S+1) for S=0.0   :     0.000000
Deviation                       :    -0.000000

----------------
ORBITAL ENERGIES
----------------
                 SPIN UP ORBITALS
  NO   OCC          E(Eh)            E(eV) 
   0   1.0000     -13.986653      -380.5962 
   1   1.0000      -9.933550      -270.3056 
   2   1.0000      -0.829710       -22.5776 
   3   1.0000      -0.566040       -15.4027 
   4   1.0000      -0.453574       -12.3424 
   5   1.0000      -0.386825       -10.5260 
   6   1.0000      -0.306280        -8.3343 
   7   1.0000      -0.232651        -6.3308 
   8   0.0000      -0.067696        -1.8421 
   9   0.0000      -0.018842        -0.5127 
  10   0.0000       0.000977         0.0266 
  11   0.0000       0.012634         0.3438 
  12   0.0000       0.017501         0.4762 
  13   0.0000       0.030799         0.8381 
  14   0.0000       0.035428         0.9640 
  15   0.0000       0.039317         1.0699 
  16   0.0000       0.045446         1.2367 
  17   0.0000       0.050934         1.3860 
  18   0.0000       0.054713         1.4888 
  19   0.0000       0.058240         1.5848 
  20   0.0000       0.066848         1.8190 
  21   0.0000       0.069197         1.8829 
  22   0.0000       0.081673         2.2224 
  23   0.0000       0.086577         2.3559 
  24   0.0000       0.095785         2.6064 
  25   0.0000       0.100703         2.7403 
  26   0.0000       0.115899         3.1538 
  27   0.0000       0.117921         3.2088 
  28   0.0000       0.118656         3.2288 
  29   0.0000       0.125731         3.4213 
  30   0.0000       0.125933         3.4268 
  31   0.0000       0.128322         3.4918 
  32   0.0000       0.134004         3.6464 
  33   0.0000       0.135068         3.6754 
  34   0.0000       0.146155         3.9771 
  35   0.0000       0.148079         4.0294 
  36   0.0000       0.160173         4.3585 
  37   0.0000       0.165102         4.4926 
  38   0.0000       0.166620         4.5340 
  39   0.0000       0.180372         4.9082 
  40   0.0000       0.183913         5.0045 
  41   0.0000       0.190613         5.1868 
  42   0.0000       0.196838         5.3562 
  43   0.0000       0.199630         5.4322 
  44   0.0000       0.207058         5.6343 
  45   0.0000       0.217019         5.9054 
  46   0.0000       0.218233         5.9384 
  47   0.0000       0.223606         6.0846 
  48   0.0000       0.225969         6.1489 
  49   0.0000       0.236536         6.4365 
  50   0.0000       0.242516         6.5992 
  51   0.0000       0.249202         6.7811 
  52   0.0000       0.252150         6.8613 
  53   0.0000       0.252916         6.8822 
  54   0.0000       0.259232         7.0541 
  55   0.0000       0.265928         7.2363 
  56   0.0000       0.276211         7.5161 
  57   0.0000       0.279192         7.5972 
  58   0.0000       0.280110         7.6222 
  59   0.0000       0.284051         7.7294 
  60   0.0000       0.284739         7.7482 
  61   0.0000       0.290376         7.9015 
  62   0.0000       0.294638         8.0175 
  63   0.0000       0.303885         8.2691 
  64   0.0000       0.305379         8.3098 
  65   0.0000       0.313889         8.5414 
  66   0.0000       0.315899         8.5960 
  67   0.0000       0.322361         8.7719 
  68   0.0000       0.324962         8.8427 
  69   0.0000       0.330593         8.9959 
  70   0.0000       0.333354         9.0710 
  71   0.0000       0.345858         9.4113 
  72   0.0000       0.355531         9.6745 
  73   0.0000       0.358786         9.7631 
  74   0.0000       0.372700        10.1417 
  75   0.0000       0.378137        10.2896 
  76   0.0000       0.384778        10.4703 
  77   0.0000       0.396715        10.7952 
  78   0.0000       0.400266        10.8918 
  79   0.0000       0.406813        11.0700 
  80   0.0000       0.415099        11.2954 
  81   0.0000       0.419931        11.4269 
  82   0.0000       0.424835        11.5604 
  83   0.0000       0.439028        11.9466 
  84   0.0000       0.441211        12.0060 
  85   0.0000       0.448964        12.2169 
  86   0.0000       0.452843        12.3225 
  87   0.0000       0.455396        12.3920 
  88   0.0000       0.459795        12.5117 
  89   0.0000       0.461632        12.5616 
  90   0.0000       0.467038        12.7088 
  91   0.0000       0.472109        12.8467 
  92   0.0000       0.477633        12.9970 
  93   0.0000       0.487522        13.2662 
  94   0.0000       0.488704        13.2983 
  95   0.0000       0.493092        13.4177 
  96   0.0000       0.495397        13.4804 
  97   0.0000       0.501824        13.6553 
  98   0.0000       0.503106        13.6902 
  99   0.0000       0.505838        13.7645 
 100   0.0000       0.508154        13.8276 
 101   0.0000       0.512570        13.9477 
 102   0.0000       0.513395        13.9702 
 103   0.0000       0.516064        14.0428 
 104   0.0000       0.530979        14.4487 
 105   0.0000       0.534164        14.5354 
 106   0.0000       0.537943        14.6382 
 107   0.0000       0.540945        14.7199 
 108   0.0000       0.543516        14.7898 
 109   0.0000       0.554748        15.0955 
 110   0.0000       0.555879        15.1262 
 111   0.0000       0.563936        15.3455 
 112   0.0000       0.578339        15.7374 
 113   0.0000       0.584176        15.8962 
 114   0.0000       0.584827        15.9139 
 115   0.0000       0.588270        16.0076 
 116   0.0000       0.588636        16.0176 
 117   0.0000       0.598746        16.2927 
 118   0.0000       0.601756        16.3746 
 119   0.0000       0.606251        16.4969 
 120   0.0000       0.620958        16.8971 
 121   0.0000       0.636285        17.3142 
 122   0.0000       0.639690        17.4069 
 123   0.0000       0.640791        17.4368 
 124   0.0000       0.646939        17.6041 
 125   0.0000       0.658360        17.9149 
 126   0.0000       0.678211        18.4551 
 127   0.0000       0.685567        18.6552 
 128   0.0000       0.694811        18.9068 
 129   0.0000       0.708140        19.2695 
 130   0.0000       0.709368        19.3029 
 131   0.0000       0.724992        19.7280 
 132   0.0000       0.736274        20.0350 
 133   0.0000       0.740454        20.1488 
 134   0.0000       0.746604        20.3161 
 135   0.0000       0.747550        20.3419 
 136   0.0000       0.760618        20.6975 
 137   0.0000       0.769935        20.9510 
 138   0.0000       0.774033        21.0625 
 139   0.0000       0.783918        21.3315 
 140   0.0000       0.786521        21.4023 
 141   0.0000       0.789771        21.4908 
 142   0.0000       0.797524        21.7017 
 143   0.0000       0.810058        22.0428 
 144   0.0000       0.811799        22.0902 
 145   0.0000       0.815291        22.1852 
 146   0.0000       0.815878        22.2012 
 147   0.0000       0.822714        22.3872 
 148   0.0000       0.826893        22.5009 
 149   0.0000       0.830149        22.5895 
 150   0.0000       0.840695        22.8765 
 151   0.0000       0.844302        22.9746 
 152   0.0000       0.857337        23.3293 
 153   0.0000       0.859948        23.4004 
 154   0.0000       0.862649        23.4739 
 155   0.0000       0.864210        23.5164 
 156   0.0000       0.865715        23.5573 
 157   0.0000       0.871385        23.7116 
 158   0.0000       0.880947        23.9718 
 159   0.0000       0.884524        24.0691 
 160   0.0000       0.889168        24.1955 
 161   0.0000       0.894100        24.3297 
 162   0.0000       0.895346        24.3636 
 163   0.0000       0.901738        24.5375 
 164   0.0000       0.910273        24.7698 
 165   0.0000       0.912992        24.8438 
 166   0.0000       0.920220        25.0404 
 167   0.0000       0.921486        25.0749 
 168   0.0000       0.930901        25.3311 
 169   0.0000       0.936836        25.4926 
 170   0.0000       0.941615        25.6227 
 171   0.0000       0.947726        25.7889 
 172   0.0000       0.947772        25.7902 
 173   0.0000       0.952632        25.9224 
 174   0.0000       0.962530        26.1918 
 175   0.0000       0.962641        26.1948 
 176   0.0000       0.975283        26.5388 
 177   0.0000       0.988817        26.9071 
 178   0.0000       0.996855        27.1258 
 179   0.0000       1.006470        27.3874 
 180   0.0000       1.012025        27.5386 
 181   0.0000       1.016754        27.6673 
 182   0.0000       1.025973        27.9181 
 183   0.0000       1.037040        28.2193 
 184   0.0000       1.046941        28.4887 
 185   0.0000       1.050025        28.5726 
 186   0.0000       1.058458        28.8021 
 187   0.0000       1.062940        28.9241 
 188   0.0000       1.072699        29.1896 
 189   0.0000       1.087813        29.6009 
 190   0.0000       1.095600        29.8128 
 191   0.0000       1.107837        30.1458 
 192   0.0000       1.111174        30.2366 
 193   0.0000       1.120572        30.4923 
 194   0.0000       1.158843        31.5337 
 195   0.0000       1.192650        32.4536 
 196   0.0000       1.198914        32.6241 
 197   0.0000       1.229407        33.4539 
 198   0.0000       1.231763        33.5180 
 199   0.0000       1.240750        33.7625 
 200   0.0000       1.240785        33.7635 
 201   0.0000       1.255887        34.1744 
 202   0.0000       1.293005        35.1844 
 203   0.0000       1.337795        36.4032 
 204   0.0000       1.355601        36.8878 
 205   0.0000       1.393651        37.9232 
 206   0.0000       1.411679        38.4137 
 207   0.0000       1.450561        39.4718 
 208   0.0000       1.476348        40.1735 
 209   0.0000       1.480361        40.2827 
 210   0.0000       1.504483        40.9391 
 211   0.0000       1.527981        41.5785 
 212   0.0000       1.546126        42.0722 
 213   0.0000       1.548594        42.1394 
 214   0.0000       1.576169        42.8897 
 215   0.0000       1.585659        43.1480 
 216   0.0000       1.596896        43.4537 
 217   0.0000       1.608429        43.7676 
 218   0.0000       1.630980        44.3812 
 219   0.0000       1.636072        44.5198 
 220   0.0000       1.677947        45.6593 
 221   0.0000       1.681547        45.7572 
 222   0.0000       1.701714        46.3060 
 223   0.0000       1.705949        46.4212 
 224   0.0000       1.741325        47.3839 
 225   0.0000       1.745187        47.4889 
 226   0.0000       1.753534        47.7161 
 227   0.0000       1.772234        48.2249 
 228   0.0000       1.788239        48.6605 
 229   0.0000       1.823897        49.6308 
 230   0.0000       1.827047        49.7165 
 231   0.0000       1.843660        50.1685 
 232   0.0000       1.898567        51.6626 
 233   0.0000       1.914304        52.0909 
 234   0.0000       1.935369        52.6641 
 235   0.0000       1.935798        52.6758 
 236   0.0000       1.985363        54.0245 
 237   0.0000       2.033225        55.3269 
 238   0.0000       2.105568        57.2954 
 239   0.0000       2.162961        58.8572 
 240   0.0000       2.172017        59.1036 
 241   0.0000       2.174962        59.1837 
 242   0.0000       2.203245        59.9533 
 243   0.0000       2.227439        60.6117 
 244   0.0000       2.252690        61.2988 
 245   0.0000       2.279243        62.0214 
 246   0.0000       2.313825        62.9624 
 247   0.0000       2.329947        63.4011 
 248   0.0000       2.360390        64.2295 
 249   0.0000       2.392949        65.1155 
 250   0.0000       2.423536        65.9478 
 251   0.0000       2.447036        66.5872 
 252   0.0000       2.533084        68.9287 
 253   0.0000       2.544548        69.2407 
 254   0.0000       2.600529        70.7640 
 255   0.0000       2.603691        70.8500 
 256   0.0000       2.693009        73.2805 
 257   0.0000       2.709390        73.7262 
 258   0.0000       2.715733        73.8989 
 259   0.0000       2.827590        76.9426 
 260   0.0000       2.874294        78.2135 
 261   0.0000       2.932980        79.8105 
 262   0.0000       2.934155        79.8424 
 263   0.0000       3.026601        82.3580 
 264   0.0000       3.044093        82.8340 
 265   0.0000       3.102904        84.4343 
 266   0.0000       3.129362        85.1543 
 267   0.0000       3.154284        85.8324 
 268   0.0000       3.169940        86.2585 
 269   0.0000       3.194519        86.9273 
 270   0.0000       3.291980        89.5793 
 271   0.0000       3.297685        89.7346 
 272   0.0000       3.322674        90.4146 
 273   0.0000       3.367877        91.6446 
 274   0.0000       3.393768        92.3491 
 275   0.0000       3.445985        93.7700 
 276   0.0000       3.487494        94.8995 
 277   0.0000       3.494702        95.0957 
 278   0.0000       3.524070        95.8948 
 279   0.0000       3.559141        96.8492 
 280   0.0000       3.606918        98.1492 
 281   0.0000       3.620455        98.5176 
 282   0.0000       3.645398        99.1963 
 283   0.0000       3.685503       100.2876 
 284   0.0000       3.689426       100.3944 
 285   0.0000       3.711501       100.9951 
 286   0.0000       3.751263       102.0771 
 287   0.0000       3.776750       102.7706 
 288   0.0000       3.823593       104.0453 
 289   0.0000       3.878971       105.5522 
 290   0.0000       3.916460       106.5723 
 291   0.0000       3.937425       107.1428 
 292   0.0000       3.983933       108.4083 
 293   0.0000       4.000453       108.8579 
 294   0.0000       4.020232       109.3961 
 295   0.0000       4.027223       109.5863 
 296   0.0000       4.046792       110.1188 
 297   0.0000       4.061141       110.5093 
 298   0.0000       4.092657       111.3669 
 299   0.0000       4.148149       112.8769 
 300   0.0000       4.252993       115.7298 
 301   0.0000       4.291162       116.7684 
 302   0.0000       4.306536       117.1868 
 303   0.0000       4.346898       118.2851 
 304   0.0000       4.410790       120.0237 
 305   0.0000       4.439047       120.7926 
 306   0.0000       4.442557       120.8881 
 307   0.0000       4.488274       122.1321 
 308   0.0000       4.517417       122.9252 
 309   0.0000       4.550418       123.8232 
 310   0.0000       4.572790       124.4320 
 311   0.0000       4.618957       125.6882 
 312   0.0000       4.642308       126.3236 
 313   0.0000       4.689841       127.6171 
 314   0.0000       4.693608       127.7196 
 315   0.0000       4.745105       129.1209 
 316   0.0000       4.775269       129.9417 
 317   0.0000       4.817884       131.1013 
 318   0.0000       4.922440       133.9464 
 319   0.0000       4.943116       134.5090 
 320   0.0000       4.966552       135.1468 
 321   0.0000       5.013343       136.4200 
 322   0.0000       5.022730       136.6754 
 323   0.0000       5.185394       141.1017 
 324   0.0000       5.216899       141.9590 
 325   0.0000       5.238609       142.5498 
 326   0.0000       5.309667       144.4834 
 327   0.0000       5.313939       144.5996 
 328   0.0000       5.349289       145.5616 
 329   0.0000       5.396321       146.8414 
 330   0.0000       5.409601       147.2027 
 331   0.0000       5.427487       147.6894 
 332   0.0000       5.503193       149.7495 
 333   0.0000       5.523929       150.3137 
 334   0.0000       5.670975       154.3151 
 335   0.0000       5.803908       157.9324 
 336   0.0000       5.859164       159.4360 
 337   0.0000       5.988038       162.9428 
 338   0.0000       6.003061       163.3516 
 339   0.0000       6.030927       164.1099 
 340   0.0000       6.104071       166.1002 
 341   0.0000       6.104421       166.1097 
 342   0.0000       6.215485       169.1319 
 343   0.0000       6.256456       170.2468 
 344   0.0000       6.269050       170.5895 
 345   0.0000       6.325626       172.1290 
 346   0.0000       6.407094       174.3459 
 347   0.0000       6.463704       175.8863 
 348   0.0000       6.550139       178.2383 
 349   0.0000       6.576425       178.9536 
 350   0.0000       6.604116       179.7071 
 351   0.0000       6.677941       181.7160 
 352   0.0000       6.691134       182.0750 
 353   0.0000       6.753608       183.7750 
 354   0.0000       6.793957       184.8730 
 355   0.0000       6.897850       187.7000 
 356   0.0000       6.970489       189.6766 
 357   0.0000       7.002041       190.5352 
 358   0.0000       7.077093       192.5775 
 359   0.0000       7.110862       193.4964 
 360   0.0000       7.381193       200.8525 
 361   0.0000       7.595649       206.6881 
 362   0.0000       7.601952       206.8596 
 363   0.0000       7.731825       210.3936 
 364   0.0000       7.799465       212.2342 
 365   0.0000       7.964707       216.7307 
 366   0.0000       7.973104       216.9592 
 367   0.0000       8.069691       219.5875 
 368   0.0000       8.400794       228.5972 
 369   0.0000       8.465924       230.3695 
 370   0.0000       8.564710       233.0576 
 371   0.0000       8.586730       233.6568 
 372   0.0000       8.601594       234.0613 
 373   0.0000       8.825875       240.1643 
 374   0.0000       8.932219       243.0580 
 375   0.0000       8.938026       243.2160 
 376   0.0000       9.004432       245.0231 
 377   0.0000       9.032693       245.7921 
 378   0.0000       9.037912       245.9341 
 379   0.0000       9.046702       246.1733 
 380   0.0000       9.088209       247.3027 
 381   0.0000       9.101358       247.6606 
 382   0.0000       9.247621       251.6406 
 383   0.0000       9.287862       252.7356 
 384   0.0000       9.340720       254.1739 
 385   0.0000       9.350892       254.4507 
 386   0.0000       9.521665       259.0977 
 387   0.0000       9.616992       261.6917 
 388   0.0000       9.678345       263.3612 
 389   0.0000       9.702950       264.0307 
 390   0.0000       9.945014       270.6176 
 391   0.0000      10.016600       272.5656 
 392   0.0000      10.115259       275.2502 
 393   0.0000      10.183351       277.1031 
 394   0.0000      10.189687       277.2755 
 395   0.0000      10.514500       286.1141 
 396   0.0000      10.567296       287.5508 
 397   0.0000      10.664497       290.1957 
 398   0.0000      10.670387       290.3560 
 399   0.0000      10.686576       290.7965 
 400   0.0000      10.732791       292.0541 
 401   0.0000      10.871601       295.8313 
 402   0.0000      10.910380       296.8865 
 403   0.0000      10.963375       298.3286 
 404   0.0000      11.043786       300.5167 
 405   0.0000      11.110313       302.3270 
 406   0.0000      11.396546       310.1158 
 407   0.0000      11.397230       310.1344 
 408   0.0000      11.457002       311.7609 
 409   0.0000      11.529062       313.7217 
 410   0.0000      11.536358       313.9203 
 411   0.0000      11.550175       314.2962 
 412   0.0000      11.578666       315.0715 
 413   0.0000      11.605911       315.8129 
 414   0.0000      11.623076       316.2800 
 415   0.0000      11.646469       316.9165 
 416   0.0000      11.675850       317.7160 
 417   0.0000      11.734726       319.3181 
 418   0.0000      11.758026       319.9522 
 419   0.0000      11.783562       320.6470 
 420   0.0000      11.814474       321.4882 
 421   0.0000      11.867724       322.9372 
 422   0.0000      11.910000       324.0876 
 423   0.0000      11.956106       325.3422 
 424   0.0000      12.150725       330.6380 
 425   0.0000      12.167950       331.1068 
 426   0.0000      12.272950       333.9640 
 427   0.0000      12.392450       337.2157 
 428   0.0000      12.399100       337.3967 
 429   0.0000      12.433014       338.3195 
 430   0.0000      12.445468       338.6584 
 431   0.0000      12.508697       340.3790 
 432   0.0000      12.543966       341.3387 
 433   0.0000      12.596824       342.7770 
 434   0.0000      12.616361       343.3086 
 435   0.0000      12.677823       344.9811 
 436   0.0000      12.731743       346.4483 
 437   0.0000      12.794002       348.1425 
 438   0.0000      12.794546       348.1573 
 439   0.0000      12.850946       349.6920 
 440   0.0000      12.917622       351.5064 
 441   0.0000      12.964762       352.7891 
 442   0.0000      12.986034       353.3679 
 443   0.0000      13.171462       358.4137 
 444   0.0000      13.183993       358.7547 
 445   0.0000      13.266311       360.9947 
 446   0.0000      13.310334       362.1926 
 447   0.0000      13.386061       364.2532 
 448   0.0000      13.427292       365.3752 
 449   0.0000      13.483974       366.9176 
 450   0.0000      13.556589       368.8936 
 451   0.0000      13.706206       372.9648 
 452   0.0000      13.778921       374.9435 
 453   0.0000      13.924686       378.9100 
 454   0.0000      14.048559       382.2807 
 455   0.0000      14.185147       385.9975 
 456   0.0000      14.213145       386.7593 
 457   0.0000      14.269657       388.2971 
 458   0.0000      14.317303       389.5936 
 459   0.0000      14.500534       394.5796 
 460   0.0000      14.905702       405.6048 
 461   0.0000      14.912058       405.7777 
 462   0.0000      14.986864       407.8133 
 463   0.0000      15.110452       411.1763 
 464   0.0000      15.321131       416.9092 
 465   0.0000      15.332266       417.2122 
 466   0.0000      15.368055       418.1860 
 467   0.0000      15.468907       420.9303 
 468   0.0000      15.515724       422.2043 
 469   0.0000      15.613177       424.8562 
 470   0.0000      15.688544       426.9070 
 471   0.0000      15.805450       430.0881 
 472   0.0000      15.845090       431.1668 
 473   0.0000      16.150152       439.4680 
 474   0.0000      16.210633       441.1137 
 475   0.0000      16.331970       444.4155 
 476   0.0000      16.349066       444.8807 
 477   0.0000      16.534633       449.9302 
 478   0.0000      16.657356       453.2697 
 479   0.0000      16.733434       455.3399 
 480   0.0000      16.747145       455.7130 
 481   0.0000      16.753090       455.8747 
 482   0.0000      16.762267       456.1245 
 483   0.0000      16.782980       456.6881 
 484   0.0000      16.810653       457.4411 
 485   0.0000      17.056757       464.1380 
 486   0.0000      17.077601       464.7052 
 487   0.0000      17.189199       467.7419 
 488   0.0000      17.214514       468.4307 
 489   0.0000      17.232410       468.9177 
 490   0.0000      17.382460       473.0008 
 491   0.0000      17.388560       473.1668 
 492   0.0000      17.487728       475.8653 
 493   0.0000      17.527249       476.9407 
 494   0.0000      17.556123       477.7264 
 495   0.0000      18.007696       490.0143 
 496   0.0000      18.138118       493.5633 
 497   0.0000      18.426407       501.4080 
 498   0.0000      18.491008       503.1659 
 499   0.0000      18.540264       504.5062 
 500   0.0000      18.667753       507.9754 
 501   0.0000      18.740393       509.9520 
 502   0.0000      19.007140       517.2106 
 503   0.0000      19.195303       522.3308 
 504   0.0000      19.275639       524.5168 
 505   0.0000      19.516567       531.0728 
 506   0.0000      19.921405       542.0890 
 507   0.0000      20.114153       547.3339 
 508   0.0000      20.333591       553.3051 
 509   0.0000      20.363295       554.1134 
 510   0.0000      20.549043       559.1679 
 511   0.0000      20.565748       559.6225 
 512   0.0000      20.964827       570.4819 
 513   0.0000      21.042566       572.5973 
 514   0.0000      21.200708       576.9006 
 515   0.0000      21.648074       589.0740 
 516   0.0000      22.535807       613.2305 
 517   0.0000      23.477472       638.8545 
 518   0.0000      23.540713       640.5754 
 519   0.0000      23.584431       641.7650 
 520   0.0000      23.746729       646.1813 
 521   0.0000      23.773983       646.9230 
 522   0.0000      24.040810       654.1837 
 523   0.0000      24.425489       664.6514 
 524   0.0000      25.418448       691.6711 
 525   0.0000      25.793853       701.8864 
 526   0.0000      25.833131       702.9552 
 527   0.0000      26.367443       717.4946 
 528   0.0000      27.746291       755.0150 
 529   0.0000      28.678187       780.3731 
 530   0.0000      32.316602       879.3794 
 531   0.0000      32.636145       888.0747 
 532   0.0000      33.459549       910.4806 
 533   0.0000      34.286333       932.9786 
 534   0.0000      34.607670       941.7226 
 535   0.0000      41.113390      1118.7522 
 536   0.0000      41.351104      1125.2208 
 537   0.0000      41.497759      1129.2114 
 538   0.0000      47.943118      1304.5986 
 539   0.0000      48.104458      1308.9889 
 540   0.0000      48.170948      1310.7981 
 541   0.0000      48.771232      1327.1327 
 542   0.0000      49.251530      1340.2023 
 543   0.0000      76.728422      2087.8865 
 544   0.0000      91.012656      2476.5803 
 545   0.0000      91.073953      2478.2483 
 546   0.0000      91.109428      2479.2136 
 547   0.0000      91.188547      2481.3665 
 548   0.0000      91.229990      2482.4942 
 549   0.0000      91.403914      2487.2269 
 550   0.0000      92.357981      2513.1884 
 551   0.0000      92.593174      2519.5883 
 552   0.0000      92.857204      2526.7730 
 553   0.0000     105.172637      2861.8929 

                 SPIN DOWN ORBITALS
  NO   OCC          E(Eh)            E(eV) 
   0   1.0000     -13.986653      -380.5962 
   1   1.0000      -9.933550      -270.3056 
   2   1.0000      -0.829710       -22.5776 
   3   1.0000      -0.566040       -15.4027 
   4   1.0000      -0.453574       -12.3424 
   5   1.0000      -0.386825       -10.5260 
   6   1.0000      -0.306280        -8.3343 
   7   1.0000      -0.232651        -6.3308 
   8   0.0000      -0.067696        -1.8421 
   9   0.0000      -0.018842        -0.5127 
  10   0.0000       0.000977         0.0266 
  11   0.0000       0.012634         0.3438 
  12   0.0000       0.017501         0.4762 
  13   0.0000       0.030799         0.8381 
  14   0.0000       0.035428         0.9640 
  15   0.0000       0.039317         1.0699 
  16   0.0000       0.045446         1.2367 
  17   0.0000       0.050934         1.3860 
  18   0.0000       0.054713         1.4888 
  19   0.0000       0.058240         1.5848 
  20   0.0000       0.066848         1.8190 
  21   0.0000       0.069197         1.8829 
  22   0.0000       0.081673         2.2224 
  23   0.0000       0.086577         2.3559 
  24   0.0000       0.095785         2.6064 
  25   0.0000       0.100703         2.7403 
  26   0.0000       0.115899         3.1538 
  27   0.0000       0.117921         3.2088 
  28   0.0000       0.118656         3.2288 
  29   0.0000       0.125731         3.4213 
  30   0.0000       0.125933         3.4268 
  31   0.0000       0.128322         3.4918 
  32   0.0000       0.134004         3.6464 
  33   0.0000       0.135068         3.6754 
  34   0.0000       0.146155         3.9771 
  35   0.0000       0.148079         4.0294 
  36   0.0000       0.160173         4.3585 
  37   0.0000       0.165102         4.4926 
  38   0.0000       0.166620         4.5340 
  39   0.0000       0.180372         4.9082 
  40   0.0000       0.183913         5.0045 
  41   0.0000       0.190613         5.1868 
  42   0.0000       0.196838         5.3562 
  43   0.0000       0.199630         5.4322 
  44   0.0000       0.207058         5.6343 
  45   0.0000       0.217019         5.9054 
  46   0.0000       0.218233         5.9384 
  47   0.0000       0.223606         6.0846 
  48   0.0000       0.225969         6.1489 
  49   0.0000       0.236536         6.4365 
  50   0.0000       0.242516         6.5992 
  51   0.0000       0.249202         6.7811 
  52   0.0000       0.252150         6.8613 
  53   0.0000       0.252916         6.8822 
  54   0.0000       0.259232         7.0541 
  55   0.0000       0.265928         7.2363 
  56   0.0000       0.276211         7.5161 
  57   0.0000       0.279192         7.5972 
  58   0.0000       0.280110         7.6222 
  59   0.0000       0.284051         7.7294 
  60   0.0000       0.284739         7.7482 
  61   0.0000       0.290376         7.9015 
  62   0.0000       0.294638         8.0175 
  63   0.0000       0.303885         8.2691 
  64   0.0000       0.305379         8.3098 
  65   0.0000       0.313889         8.5414 
  66   0.0000       0.315899         8.5960 
  67   0.0000       0.322361         8.7719 
  68   0.0000       0.324962         8.8427 
  69   0.0000       0.330593         8.9959 
  70   0.0000       0.333354         9.0710 
  71   0.0000       0.345858         9.4113 
  72   0.0000       0.355531         9.6745 
  73   0.0000       0.358786         9.7631 
  74   0.0000       0.372700        10.1417 
  75   0.0000       0.378137        10.2896 
  76   0.0000       0.384778        10.4703 
  77   0.0000       0.396715        10.7952 
  78   0.0000       0.400266        10.8918 
  79   0.0000       0.406813        11.0700 
  80   0.0000       0.415099        11.2954 
  81   0.0000       0.419931        11.4269 
  82   0.0000       0.424835        11.5604 
  83   0.0000       0.439028        11.9466 
  84   0.0000       0.441211        12.0060 
  85   0.0000       0.448964        12.2169 
  86   0.0000       0.452843        12.3225 
  87   0.0000       0.455396        12.3920 
  88   0.0000       0.459795        12.5117 
  89   0.0000       0.461632        12.5616 
  90   0.0000       0.467038        12.7088 
  91   0.0000       0.472109        12.8467 
  92   0.0000       0.477633        12.9970 
  93   0.0000       0.487522        13.2662 
  94   0.0000       0.488704        13.2983 
  95   0.0000       0.493092        13.4177 
  96   0.0000       0.495397        13.4804 
  97   0.0000       0.501824        13.6553 
  98   0.0000       0.503106        13.6902 
  99   0.0000       0.505838        13.7645 
 100   0.0000       0.508154        13.8276 
 101   0.0000       0.512570        13.9477 
 102   0.0000       0.513395        13.9702 
 103   0.0000       0.516064        14.0428 
 104   0.0000       0.530979        14.4487 
 105   0.0000       0.534164        14.5354 
 106   0.0000       0.537943        14.6382 
 107   0.0000       0.540945        14.7199 
 108   0.0000       0.543516        14.7898 
 109   0.0000       0.554748        15.0955 
 110   0.0000       0.555879        15.1262 
 111   0.0000       0.563936        15.3455 
 112   0.0000       0.578339        15.7374 
 113   0.0000       0.584176        15.8962 
 114   0.0000       0.584827        15.9139 
 115   0.0000       0.588270        16.0076 
 116   0.0000       0.588636        16.0176 
 117   0.0000       0.598746        16.2927 
 118   0.0000       0.601756        16.3746 
 119   0.0000       0.606251        16.4969 
 120   0.0000       0.620958        16.8971 
 121   0.0000       0.636285        17.3142 
 122   0.0000       0.639690        17.4069 
 123   0.0000       0.640791        17.4368 
 124   0.0000       0.646939        17.6041 
 125   0.0000       0.658360        17.9149 
 126   0.0000       0.678211        18.4551 
 127   0.0000       0.685567        18.6552 
 128   0.0000       0.694811        18.9068 
 129   0.0000       0.708140        19.2695 
 130   0.0000       0.709368        19.3029 
 131   0.0000       0.724992        19.7280 
 132   0.0000       0.736274        20.0350 
 133   0.0000       0.740454        20.1488 
 134   0.0000       0.746604        20.3161 
 135   0.0000       0.747550        20.3419 
 136   0.0000       0.760618        20.6975 
 137   0.0000       0.769935        20.9510 
 138   0.0000       0.774033        21.0625 
 139   0.0000       0.783918        21.3315 
 140   0.0000       0.786521        21.4023 
 141   0.0000       0.789771        21.4908 
 142   0.0000       0.797524        21.7017 
 143   0.0000       0.810058        22.0428 
 144   0.0000       0.811799        22.0902 
 145   0.0000       0.815291        22.1852 
 146   0.0000       0.815878        22.2012 
 147   0.0000       0.822714        22.3872 
 148   0.0000       0.826893        22.5009 
 149   0.0000       0.830149        22.5895 
 150   0.0000       0.840695        22.8765 
 151   0.0000       0.844302        22.9746 
 152   0.0000       0.857337        23.3293 
 153   0.0000       0.859948        23.4004 
 154   0.0000       0.862649        23.4739 
 155   0.0000       0.864210        23.5164 
 156   0.0000       0.865715        23.5573 
 157   0.0000       0.871385        23.7116 
 158   0.0000       0.880947        23.9718 
 159   0.0000       0.884524        24.0691 
 160   0.0000       0.889168        24.1955 
 161   0.0000       0.894100        24.3297 
 162   0.0000       0.895346        24.3636 
 163   0.0000       0.901738        24.5375 
 164   0.0000       0.910273        24.7698 
 165   0.0000       0.912992        24.8438 
 166   0.0000       0.920220        25.0404 
 167   0.0000       0.921486        25.0749 
 168   0.0000       0.930901        25.3311 
 169   0.0000       0.936836        25.4926 
 170   0.0000       0.941615        25.6227 
 171   0.0000       0.947726        25.7889 
 172   0.0000       0.947772        25.7902 
 173   0.0000       0.952632        25.9224 
 174   0.0000       0.962530        26.1918 
 175   0.0000       0.962641        26.1948 
 176   0.0000       0.975283        26.5388 
 177   0.0000       0.988817        26.9071 
 178   0.0000       0.996855        27.1258 
 179   0.0000       1.006470        27.3874 
 180   0.0000       1.012025        27.5386 
 181   0.0000       1.016754        27.6673 
 182   0.0000       1.025973        27.9181 
 183   0.0000       1.037040        28.2193 
 184   0.0000       1.046941        28.4887 
 185   0.0000       1.050025        28.5726 
 186   0.0000       1.058458        28.8021 
 187   0.0000       1.062940        28.9241 
 188   0.0000       1.072699        29.1896 
 189   0.0000       1.087813        29.6009 
 190   0.0000       1.095600        29.8128 
 191   0.0000       1.107837        30.1458 
 192   0.0000       1.111174        30.2366 
 193   0.0000       1.120572        30.4923 
 194   0.0000       1.158843        31.5337 
 195   0.0000       1.192650        32.4536 
 196   0.0000       1.198914        32.6241 
 197   0.0000       1.229407        33.4539 
 198   0.0000       1.231763        33.5180 
 199   0.0000       1.240750        33.7625 
 200   0.0000       1.240785        33.7635 
 201   0.0000       1.255887        34.1744 
 202   0.0000       1.293005        35.1844 
 203   0.0000       1.337795        36.4032 
 204   0.0000       1.355601        36.8878 
 205   0.0000       1.393651        37.9232 
 206   0.0000       1.411679        38.4137 
 207   0.0000       1.450561        39.4718 
 208   0.0000       1.476348        40.1735 
 209   0.0000       1.480361        40.2827 
 210   0.0000       1.504483        40.9391 
 211   0.0000       1.527981        41.5785 
 212   0.0000       1.546126        42.0722 
 213   0.0000       1.548594        42.1394 
 214   0.0000       1.576169        42.8897 
 215   0.0000       1.585659        43.1480 
 216   0.0000       1.596896        43.4537 
 217   0.0000       1.608429        43.7676 
 218   0.0000       1.630980        44.3812 
 219   0.0000       1.636072        44.5198 
 220   0.0000       1.677947        45.6593 
 221   0.0000       1.681547        45.7572 
 222   0.0000       1.701714        46.3060 
 223   0.0000       1.705949        46.4212 
 224   0.0000       1.741325        47.3839 
 225   0.0000       1.745187        47.4889 
 226   0.0000       1.753534        47.7161 
 227   0.0000       1.772234        48.2249 
 228   0.0000       1.788239        48.6605 
 229   0.0000       1.823897        49.6308 
 230   0.0000       1.827047        49.7165 
 231   0.0000       1.843660        50.1685 
 232   0.0000       1.898567        51.6626 
 233   0.0000       1.914304        52.0909 
 234   0.0000       1.935369        52.6641 
 235   0.0000       1.935798        52.6758 
 236   0.0000       1.985363        54.0245 
 237   0.0000       2.033225        55.3269 
 238   0.0000       2.105568        57.2954 
 239   0.0000       2.162961        58.8572 
 240   0.0000       2.172017        59.1036 
 241   0.0000       2.174962        59.1837 
 242   0.0000       2.203245        59.9533 
 243   0.0000       2.227439        60.6117 
 244   0.0000       2.252690        61.2988 
 245   0.0000       2.279243        62.0214 
 246   0.0000       2.313825        62.9624 
 247   0.0000       2.329947        63.4011 
 248   0.0000       2.360390        64.2295 
 249   0.0000       2.392949        65.1155 
 250   0.0000       2.423536        65.9478 
 251   0.0000       2.447036        66.5872 
 252   0.0000       2.533084        68.9287 
 253   0.0000       2.544548        69.2407 
 254   0.0000       2.600529        70.7640 
 255   0.0000       2.603691        70.8500 
 256   0.0000       2.693009        73.2805 
 257   0.0000       2.709390        73.7262 
 258   0.0000       2.715733        73.8989 
 259   0.0000       2.827590        76.9426 
 260   0.0000       2.874294        78.2135 
 261   0.0000       2.932980        79.8105 
 262   0.0000       2.934155        79.8424 
 263   0.0000       3.026601        82.3580 
 264   0.0000       3.044093        82.8340 
 265   0.0000       3.102904        84.4343 
 266   0.0000       3.129362        85.1543 
 267   0.0000       3.154284        85.8324 
 268   0.0000       3.169940        86.2585 
 269   0.0000       3.194519        86.9273 
 270   0.0000       3.291980        89.5793 
 271   0.0000       3.297685        89.7346 
 272   0.0000       3.322674        90.4146 
 273   0.0000       3.367877        91.6446 
 274   0.0000       3.393768        92.3491 
 275   0.0000       3.445985        93.7700 
 276   0.0000       3.487494        94.8995 
 277   0.0000       3.494702        95.0957 
 278   0.0000       3.524070        95.8948 
 279   0.0000       3.559141        96.8492 
 280   0.0000       3.606918        98.1492 
 281   0.0000       3.620455        98.5176 
 282   0.0000       3.645398        99.1963 
 283   0.0000       3.685503       100.2876 
 284   0.0000       3.689426       100.3944 
 285   0.0000       3.711501       100.9951 
 286   0.0000       3.751263       102.0771 
 287   0.0000       3.776750       102.7706 
 288   0.0000       3.823593       104.0453 
 289   0.0000       3.878971       105.5522 
 290   0.0000       3.916460       106.5723 
 291   0.0000       3.937425       107.1428 
 292   0.0000       3.983933       108.4083 
 293   0.0000       4.000453       108.8579 
 294   0.0000       4.020232       109.3961 
 295   0.0000       4.027223       109.5863 
 296   0.0000       4.046792       110.1188 
 297   0.0000       4.061141       110.5093 
 298   0.0000       4.092657       111.3669 
 299   0.0000       4.148149       112.8769 
 300   0.0000       4.252993       115.7298 
 301   0.0000       4.291162       116.7684 
 302   0.0000       4.306536       117.1868 
 303   0.0000       4.346898       118.2851 
 304   0.0000       4.410790       120.0237 
 305   0.0000       4.439047       120.7926 
 306   0.0000       4.442557       120.8881 
 307   0.0000       4.488274       122.1321 
 308   0.0000       4.517417       122.9252 
 309   0.0000       4.550418       123.8232 
 310   0.0000       4.572790       124.4320 
 311   0.0000       4.618957       125.6882 
 312   0.0000       4.642308       126.3236 
 313   0.0000       4.689841       127.6171 
 314   0.0000       4.693608       127.7196 
 315   0.0000       4.745105       129.1209 
 316   0.0000       4.775269       129.9417 
 317   0.0000       4.817884       131.1013 
 318   0.0000       4.922440       133.9464 
 319   0.0000       4.943116       134.5090 
 320   0.0000       4.966552       135.1468 
 321   0.0000       5.013343       136.4200 
 322   0.0000       5.022730       136.6754 
 323   0.0000       5.185394       141.1017 
 324   0.0000       5.216899       141.9590 
 325   0.0000       5.238609       142.5498 
 326   0.0000       5.309667       144.4834 
 327   0.0000       5.313939       144.5996 
 328   0.0000       5.349289       145.5616 
 329   0.0000       5.396321       146.8414 
 330   0.0000       5.409601       147.2027 
 331   0.0000       5.427487       147.6894 
 332   0.0000       5.503193       149.7495 
 333   0.0000       5.523929       150.3137 
 334   0.0000       5.670975       154.3151 
 335   0.0000       5.803908       157.9324 
 336   0.0000       5.859164       159.4360 
 337   0.0000       5.988038       162.9428 
 338   0.0000       6.003061       163.3516 
 339   0.0000       6.030927       164.1099 
 340   0.0000       6.104071       166.1002 
 341   0.0000       6.104421       166.1097 
 342   0.0000       6.215485       169.1319 
 343   0.0000       6.256456       170.2468 
 344   0.0000       6.269050       170.5895 
 345   0.0000       6.325626       172.1290 
 346   0.0000       6.407094       174.3459 
 347   0.0000       6.463704       175.8863 
 348   0.0000       6.550139       178.2383 
 349   0.0000       6.576425       178.9536 
 350   0.0000       6.604116       179.7071 
 351   0.0000       6.677941       181.7160 
 352   0.0000       6.691134       182.0750 
 353   0.0000       6.753608       183.7750 
 354   0.0000       6.793957       184.8730 
 355   0.0000       6.897850       187.7000 
 356   0.0000       6.970489       189.6766 
 357   0.0000       7.002041       190.5352 
 358   0.0000       7.077093       192.5775 
 359   0.0000       7.110862       193.4964 
 360   0.0000       7.381193       200.8525 
 361   0.0000       7.595649       206.6881 
 362   0.0000       7.601952       206.8596 
 363   0.0000       7.731825       210.3936 
 364   0.0000       7.799465       212.2342 
 365   0.0000       7.964707       216.7307 
 366   0.0000       7.973104       216.9592 
 367   0.0000       8.069691       219.5875 
 368   0.0000       8.400794       228.5972 
 369   0.0000       8.465924       230.3695 
 370   0.0000       8.564710       233.0576 
 371   0.0000       8.586730       233.6568 
 372   0.0000       8.601594       234.0613 
 373   0.0000       8.825875       240.1643 
 374   0.0000       8.932219       243.0580 
 375   0.0000       8.938026       243.2160 
 376   0.0000       9.004432       245.0231 
 377   0.0000       9.032693       245.7921 
 378   0.0000       9.037912       245.9341 
 379   0.0000       9.046702       246.1733 
 380   0.0000       9.088209       247.3027 
 381   0.0000       9.101358       247.6606 
 382   0.0000       9.247621       251.6406 
 383   0.0000       9.287862       252.7356 
 384   0.0000       9.340720       254.1739 
 385   0.0000       9.350892       254.4507 
 386   0.0000       9.521665       259.0977 
 387   0.0000       9.616992       261.6917 
 388   0.0000       9.678345       263.3612 
 389   0.0000       9.702950       264.0307 
 390   0.0000       9.945014       270.6176 
 391   0.0000      10.016600       272.5656 
 392   0.0000      10.115259       275.2502 
 393   0.0000      10.183351       277.1031 
 394   0.0000      10.189687       277.2755 
 395   0.0000      10.514500       286.1141 
 396   0.0000      10.567296       287.5508 
 397   0.0000      10.664497       290.1957 
 398   0.0000      10.670387       290.3560 
 399   0.0000      10.686576       290.7965 
 400   0.0000      10.732791       292.0541 
 401   0.0000      10.871601       295.8313 
 402   0.0000      10.910380       296.8865 
 403   0.0000      10.963375       298.3286 
 404   0.0000      11.043786       300.5167 
 405   0.0000      11.110313       302.3270 
 406   0.0000      11.396546       310.1158 
 407   0.0000      11.397230       310.1344 
 408   0.0000      11.457002       311.7609 
 409   0.0000      11.529062       313.7217 
 410   0.0000      11.536358       313.9203 
 411   0.0000      11.550175       314.2962 
 412   0.0000      11.578666       315.0715 
 413   0.0000      11.605911       315.8129 
 414   0.0000      11.623076       316.2800 
 415   0.0000      11.646469       316.9165 
 416   0.0000      11.675850       317.7160 
 417   0.0000      11.734726       319.3181 
 418   0.0000      11.758026       319.9522 
 419   0.0000      11.783562       320.6470 
 420   0.0000      11.814474       321.4882 
 421   0.0000      11.867724       322.9372 
 422   0.0000      11.910000       324.0876 
 423   0.0000      11.956106       325.3422 
 424   0.0000      12.150725       330.6380 
 425   0.0000      12.167950       331.1068 
 426   0.0000      12.272950       333.9640 
 427   0.0000      12.392450       337.2157 
 428   0.0000      12.399100       337.3967 
 429   0.0000      12.433014       338.3195 
 430   0.0000      12.445468       338.6584 
 431   0.0000      12.508697       340.3790 
 432   0.0000      12.543966       341.3387 
 433   0.0000      12.596824       342.7770 
 434   0.0000      12.616361       343.3086 
 435   0.0000      12.677823       344.9811 
 436   0.0000      12.731743       346.4483 
 437   0.0000      12.794002       348.1425 
 438   0.0000      12.794546       348.1573 
 439   0.0000      12.850946       349.6920 
 440   0.0000      12.917622       351.5064 
 441   0.0000      12.964762       352.7891 
 442   0.0000      12.986034       353.3679 
 443   0.0000      13.171462       358.4137 
 444   0.0000      13.183993       358.7547 
 445   0.0000      13.266311       360.9947 
 446   0.0000      13.310334       362.1926 
 447   0.0000      13.386061       364.2532 
 448   0.0000      13.427292       365.3752 
 449   0.0000      13.483974       366.9176 
 450   0.0000      13.556589       368.8936 
 451   0.0000      13.706206       372.9648 
 452   0.0000      13.778921       374.9435 
 453   0.0000      13.924686       378.9100 
 454   0.0000      14.048559       382.2807 
 455   0.0000      14.185147       385.9975 
 456   0.0000      14.213145       386.7593 
 457   0.0000      14.269657       388.2971 
 458   0.0000      14.317303       389.5936 
 459   0.0000      14.500534       394.5796 
 460   0.0000      14.905702       405.6048 
 461   0.0000      14.912058       405.7777 
 462   0.0000      14.986864       407.8133 
 463   0.0000      15.110452       411.1763 
 464   0.0000      15.321131       416.9092 
 465   0.0000      15.332266       417.2122 
 466   0.0000      15.368055       418.1860 
 467   0.0000      15.468907       420.9303 
 468   0.0000      15.515724       422.2043 
 469   0.0000      15.613177       424.8562 
 470   0.0000      15.688544       426.9070 
 471   0.0000      15.805450       430.0881 
 472   0.0000      15.845090       431.1668 
 473   0.0000      16.150152       439.4680 
 474   0.0000      16.210633       441.1137 
 475   0.0000      16.331970       444.4155 
 476   0.0000      16.349066       444.8807 
 477   0.0000      16.534633       449.9302 
 478   0.0000      16.657356       453.2697 
 479   0.0000      16.733434       455.3399 
 480   0.0000      16.747145       455.7130 
 481   0.0000      16.753090       455.8747 
 482   0.0000      16.762267       456.1245 
 483   0.0000      16.782980       456.6881 
 484   0.0000      16.810653       457.4411 
 485   0.0000      17.056757       464.1380 
 486   0.0000      17.077601       464.7052 
 487   0.0000      17.189199       467.7419 
 488   0.0000      17.214514       468.4307 
 489   0.0000      17.232410       468.9177 
 490   0.0000      17.382460       473.0008 
 491   0.0000      17.388560       473.1668 
 492   0.0000      17.487728       475.8653 
 493   0.0000      17.527249       476.9407 
 494   0.0000      17.556123       477.7264 
 495   0.0000      18.007696       490.0143 
 496   0.0000      18.138118       493.5633 
 497   0.0000      18.426407       501.4080 
 498   0.0000      18.491008       503.1659 
 499   0.0000      18.540264       504.5062 
 500   0.0000      18.667753       507.9754 
 501   0.0000      18.740393       509.9520 
 502   0.0000      19.007140       517.2106 
 503   0.0000      19.195303       522.3308 
 504   0.0000      19.275639       524.5168 
 505   0.0000      19.516567       531.0728 
 506   0.0000      19.921405       542.0890 
 507   0.0000      20.114153       547.3339 
 508   0.0000      20.333591       553.3051 
 509   0.0000      20.363295       554.1134 
 510   0.0000      20.549043       559.1679 
 511   0.0000      20.565748       559.6225 
 512   0.0000      20.964827       570.4819 
 513   0.0000      21.042566       572.5973 
 514   0.0000      21.200708       576.9006 
 515   0.0000      21.648074       589.0740 
 516   0.0000      22.535807       613.2305 
 517   0.0000      23.477472       638.8545 
 518   0.0000      23.540713       640.5754 
 519   0.0000      23.584431       641.7650 
 520   0.0000      23.746729       646.1813 
 521   0.0000      23.773983       646.9230 
 522   0.0000      24.040810       654.1837 
 523   0.0000      24.425489       664.6514 
 524   0.0000      25.418448       691.6711 
 525   0.0000      25.793853       701.8864 
 526   0.0000      25.833131       702.9552 
 527   0.0000      26.367443       717.4946 
 528   0.0000      27.746291       755.0150 
 529   0.0000      28.678187       780.3731 
 530   0.0000      32.316602       879.3794 
 531   0.0000      32.636145       888.0747 
 532   0.0000      33.459549       910.4806 
 533   0.0000      34.286333       932.9786 
 534   0.0000      34.607670       941.7226 
 535   0.0000      41.113390      1118.7522 
 536   0.0000      41.351104      1125.2208 
 537   0.0000      41.497759      1129.2114 
 538   0.0000      47.943118      1304.5986 
 539   0.0000      48.104458      1308.9889 
 540   0.0000      48.170948      1310.7981 
 541   0.0000      48.771232      1327.1327 
 542   0.0000      49.251530      1340.2023 
 543   0.0000      76.728422      2087.8865 
 544   0.0000      91.012656      2476.5803 
 545   0.0000      91.073953      2478.2483 
 546   0.0000      91.109428      2479.2136 
 547   0.0000      91.188547      2481.3665 
 548   0.0000      91.229990      2482.4942 
 549   0.0000      91.403914      2487.2269 
 550   0.0000      92.357981      2513.1884 
 551   0.0000      92.593174      2519.5883 
 552   0.0000      92.857204      2526.7730 
 553   0.0000     105.172637      2861.8929 

                    ********************************
                    * MULLIKEN POPULATION ANALYSIS *
                    ********************************

--------------------------------------------
MULLIKEN ATOMIC CHARGES AND SPIN POPULATIONS
--------------------------------------------
   0 C :    0.159853   -0.000000
   1 N :   -0.349330    0.000000
   2 H :    0.003120    0.000000
   3 H :    0.010064   -0.000000
   4 H :    0.176293    0.000000
Sum of atomic charges         :   -0.0000000
Sum of atomic spin populations:   -0.0000000

-----------------------------------------------------
MULLIKEN REDUCED ORBITAL CHARGES AND SPIN POPULATIONS
-----------------------------------------------------
CHARGE
  0 C s       :     3.096627  s :     3.096627
      pz      :     0.870279  p :     2.601073
      px      :     0.922862
      py      :     0.807933
      dz2     :     0.018045  d :     0.122710
      dxz     :     0.081352
      dyz     :     0.019038
      dx2y2   :     0.004405
      dxy     :    -0.000130
      f0      :     0.001320  f :     0.016771
      f+1     :     0.011764
      f-1     :     0.002553
      f+2     :     0.001213
      f-2     :     0.000197
      f+3     :    -0.000259
      f-3     :    -0.000018
      g0      :     0.000233  g :     0.002578
      g+1     :     0.001794
      g-1     :     0.000437
      g+2     :    -0.000032
      g-2     :     0.000041
      g+3     :     0.000059
      g-3     :     0.000012
      g+4     :     0.000032
      g-4     :     0.000002
      h0      :     0.000123  h :     0.000388
      h+1     :     0.000273
      h-1     :    -0.000007
      h+2     :     0.000006
      h-2     :     0.000008
      h+3     :    -0.000027
      h-3     :     0.000003
      h+4     :     0.000005
      h-4     :    -0.000001
      h+5     :     0.000005
      h-5     :     0.000000
  1 N s       :     3.685446  s :     3.685446
      pz      :     1.198163  p :     3.587757
      px      :     1.287642
      py      :     1.101952
      dz2     :     0.016059  d :     0.055282
      dxz     :     0.008592
      dyz     :     0.022566
      dx2y2   :     0.006876
      dxy     :     0.001188
      f0      :     0.004012  f :     0.017324
      f+1     :     0.011041
      f-1     :     0.002324
      f+2     :    -0.000024
      f-2     :    -0.000014
      f+3     :     0.000118
      f-3     :    -0.000132
      g0      :     0.000740  g :     0.003332
      g+1     :     0.002652
      g-1     :     0.000310
      g+2     :    -0.000283
      g-2     :     0.000000
      g+3     :    -0.000103
      g-3     :    -0.000010
      g+4     :     0.000023
      g-4     :     0.000001
      h0      :     0.000067  h :     0.000189
      h+1     :     0.000196
      h-1     :     0.000055
      h+2     :    -0.000061
      h-2     :    -0.000001
      h+3     :    -0.000067
      h-3     :    -0.000004
      h+4     :     0.000004
      h-4     :    -0.000000
      h+5     :     0.000001
      h-5     :    -0.000000
  2 H s       :     0.962895  s :     0.962895
      pz      :     0.015156  p :     0.044213
      px      :     0.017633
      py      :     0.011423
      dz2     :    -0.000302  d :    -0.006173
      dxz     :     0.002469
      dyz     :    -0.002459
      dx2y2   :    -0.002674
      dxy     :    -0.003206
      f0      :    -0.001499  f :    -0.003314
      f+1     :    -0.000310
      f-1     :    -0.000139
      f+2     :     0.000371
      f-2     :     0.000317
      f+3     :    -0.000950
      f-3     :    -0.001104
      g0      :    -0.000425  g :    -0.000740
      g+1     :    -0.000205
      g-1     :    -0.000069
      g+2     :    -0.000064
      g-2     :     0.000235
      g+3     :    -0.000022
      g-3     :    -0.000052
      g+4     :    -0.000063
      g-4     :    -0.000076
  3 H s       :     0.964898  s :     0.964898
      pz      :     0.004168  p :     0.036028
      px      :     0.015541
      py      :     0.016319
      dz2     :    -0.006371  d :    -0.007607
      dxz     :     0.002454
      dyz     :     0.002234
      dx2y2   :    -0.004387
      dxy     :    -0.001537
      f0      :    -0.002856  f :    -0.002753
      f+1     :     0.000344
      f-1     :     0.001594
      f+2     :    -0.000115
      f-2     :    -0.000645
      f+3     :    -0.001046
      f-3     :    -0.000028
      g0      :    -0.000497  g :    -0.000631
      g+1     :    -0.000289
      g-1     :     0.000202
      g+2     :     0.000008
      g-2     :     0.000172
      g+3     :    -0.000081
      g-3     :    -0.000107
      g+4     :    -0.000055
      g-4     :     0.000018
  4 H s       :     0.744526  s :     0.744526
      pz      :     0.026419  p :     0.072409
      px      :     0.025804
      py      :     0.020187
      dz2     :    -0.000331  d :     0.002685
      dxz     :     0.004598
      dyz     :    -0.001799
      dx2y2   :     0.000266
      dxy     :    -0.000048
      f0      :     0.000052  f :     0.003336
      f+1     :     0.003818
      f-1     :     0.000464
      f+2     :    -0.000793
      f-2     :    -0.000556
      f+3     :     0.000136
      f-3     :     0.000216
      g0      :     0.000656  g :     0.000750
      g+1     :     0.000014
      g-1     :     0.000118
      g+2     :    -0.000008
      g-2     :    -0.000077
      g+3     :    -0.000069
      g-3     :     0.000072
      g+4     :     0.000015
      g-4     :     0.000028

SPIN
  0 C s       :     0.000000  s :     0.000000
      pz      :     0.000000  p :    -0.000000
      px      :    -0.000000
      py      :     0.000000
      dz2     :     0.000000  d :    -0.000000
      dxz     :    -0.000000
      dyz     :     0.000000
      dx2y2   :    -0.000000
      dxy     :     0.000000
      f0      :    -0.000000  f :    -0.000000
      f+1     :    -0.000000
      f-1     :     0.000000
      f+2     :    -0.000000
      f-2     :     0.000000
      f+3     :    -0.000000
      f-3     :    -0.000000
      g0      :     0.000000  g :     0.000000
      g+1     :     0.000000
      g-1     :    -0.000000
      g+2     :    -0.000000
      g-2     :     0.000000
      g+3     :    -0.000000
      g-3     :    -0.000000
      g+4     :    -0.000000
      g-4     :    -0.000000
      h0      :     0.000000  h :     0.000000
      h+1     :     0.000000
      h-1     :     0.000000
      h+2     :    -0.000000
      h-2     :    -0.000000
      h+3     :     0.000000
      h-3     :    -0.000000
      h+4     :     0.000000
      h-4     :    -0.000000
      h+5     :     0.000000
      h-5     :     0.000000
  1 N s       :     0.000000  s :     0.000000
      pz      :    -0.000000  p :    -0.000000
      px      :     0.000000
      py      :    -0.000000
      dz2     :    -0.000000  d :    -0.000000
      dxz     :    -0.000000
      dyz     :     0.000000
      dx2y2   :     0.000000
      dxy     :    -0.000000
      f0      :     0.000000  f :     0.000000
      f+1     :     0.000000
      f-1     :    -0.000000
      f+2     :    -0.000000
      f-2     :     0.000000
      f+3     :    -0.000000
      f-3     :     0.000000
      g0      :     0.000000  g :     0.000000
      g+1     :     0.000000
      g-1     :    -0.000000
      g+2     :    -0.000000
      g-2     :    -0.000000
      g+3     :    -0.000000
      g-3     :    -0.000000
      g+4     :    -0.000000
      g-4     :     0.000000
      h0      :     0.000000  h :     0.000000
      h+1     :     0.000000
      h-1     :    -0.000000
      h+2     :    -0.000000
      h-2     :    -0.000000
      h+3     :     0.000000
      h-3     :    -0.000000
      h+4     :    -0.000000
      h-4     :    -0.000000
      h+5     :     0.000000
      h-5     :     0.000000
  2 H s       :     0.000000  s :     0.000000
      pz      :     0.000000  p :     0.000000
      px      :    -0.000000
      py      :    -0.000000
      dz2     :    -0.000000  d :    -0.000000
      dxz     :    -0.000000
      dyz     :    -0.000000
      dx2y2   :     0.000000
      dxy     :    -0.000000
      f0      :    -0.000000  f :    -0.000000
      f+1     :    -0.000000
      f-1     :    -0.000000
      f+2     :    -0.000000
      f-2     :    -0.000000
      f+3     :    -0.000000
      f-3     :    -0.000000
      g0      :     0.000000  g :    -0.000000
      g+1     :    -0.000000
      g-1     :     0.000000
      g+2     :    -0.000000
      g-2     :    -0.000000
      g+3     :    -0.000000
      g-3     :    -0.000000
      g+4     :    -0.000000
      g-4     :    -0.000000
  3 H s       :    -0.000000  s :    -0.000000
      pz      :    -0.000000  p :    -0.000000
      px      :    -0.000000
      py      :     0.000000
      dz2     :     0.000000  d :    -0.000000
      dxz     :    -0.000000
      dyz     :     0.000000
      dx2y2   :    -0.000000
      dxy     :     0.000000
      f0      :    -0.000000  f :    -0.000000
      f+1     :     0.000000
      f-1     :     0.000000
      f+2     :    -0.000000
      f-2     :     0.000000
      f+3     :    -0.000000
      f-3     :     0.000000
      g0      :    -0.000000  g :    -0.000000
      g+1     :    -0.000000
      g-1     :    -0.000000
      g+2     :    -0.000000
      g-2     :     0.000000
      g+3     :    -0.000000
      g-3     :     0.000000
      g+4     :    -0.000000
      g-4     :     0.000000
  4 H s       :     0.000000  s :     0.000000
      pz      :     0.000000  p :    -0.000000
      px      :    -0.000000
      py      :    -0.000000
      dz2     :    -0.000000  d :     0.000000
      dxz     :     0.000000
      dyz     :    -0.000000
      dx2y2   :    -0.000000
      dxy     :    -0.000000
      f0      :    -0.000000  f :    -0.000000
      f+1     :     0.000000
      f-1     :    -0.000000
      f+2     :    -0.000000
      f-2     :    -0.000000
      f+3     :    -0.000000
      f-3     :    -0.000000
      g0      :     0.000000  g :     0.000000
      g+1     :    -0.000000
      g-1     :    -0.000000
      g+2     :     0.000000
      g-2     :    -0.000000
      g+3     :    -0.000000
      g-3     :    -0.000000
      g+4     :    -0.000000
      g-4     :     0.000000


                     *******************************
                     * LOEWDIN POPULATION ANALYSIS *
                     *******************************

-------------------------------------------
LOEWDIN ATOMIC CHARGES AND SPIN POPULATIONS
-------------------------------------------
   0 C :    0.646359    0.000000
   1 N :    0.792315   -0.000000
   2 H :   -0.386076    0.000000
   3 H :   -0.411287    0.000000
   4 H :   -0.641311   -0.000000

----------------------------------------------------
LOEWDIN REDUCED ORBITAL CHARGES AND SPIN POPULATIONS
----------------------------------------------------
CHARGE
  0 C s       :     2.507575  s :     2.507575
      pz      :     0.834980  p :     2.131567
      px      :     0.779728
      py      :     0.516859
      dz2     :     0.163047  d :     0.531989
      dxz     :     0.283960
      dyz     :     0.064939
      dx2y2   :     0.019899
      dxy     :     0.000144
      f0      :     0.038527  f :     0.141665
      f+1     :     0.062677
      f-1     :     0.028233
      f+2     :     0.007495
      f-2     :     0.000045
      f+3     :     0.004172
      f-3     :     0.000516
      g0      :     0.008287  g :     0.032958
      g+1     :     0.014780
      g-1     :     0.006938
      g+2     :     0.001293
      g-2     :     0.000014
      g+3     :     0.001360
      g-3     :     0.000024
      g+4     :     0.000261
      g-4     :     0.000000
      h0      :     0.002172  h :     0.007887
      h+1     :     0.002223
      h-1     :     0.001461
      h+2     :     0.001270
      h-2     :     0.000005
      h+3     :     0.000310
      h-3     :     0.000196
      h+4     :     0.000106
      h-4     :     0.000003
      h+5     :     0.000114
      h-5     :     0.000025
  1 N s       :     2.765921  s :     2.765921
      pz      :     1.096358  p :     2.901682
      px      :     1.051861
      py      :     0.753462
      dz2     :     0.121024  d :     0.338975
      dxz     :     0.150986
      dyz     :     0.044568
      dx2y2   :     0.021678
      dxy     :     0.000720
      f0      :     0.032569  f :     0.130965
      f+1     :     0.072641
      f-1     :     0.018969
      f+2     :     0.003485
      f-2     :     0.000092
      f+3     :     0.002953
      f-3     :     0.000256
      g0      :     0.007779  g :     0.051317
      g+1     :     0.034092
      g-1     :     0.005446
      g+2     :     0.002559
      g-2     :     0.000007
      g+3     :     0.000986
      g-3     :     0.000016
      g+4     :     0.000366
      g-4     :     0.000067
      h0      :     0.001405  h :     0.018825
      h+1     :     0.011557
      h-1     :     0.001356
      h+2     :     0.002788
      h-2     :     0.000002
      h+3     :     0.001391
      h-3     :     0.000030
      h+4     :     0.000131
      h-4     :     0.000061
      h+5     :     0.000063
      h-5     :     0.000041
  2 H s       :     0.649215  s :     0.649215
      pz      :     0.091450  p :     0.280427
      px      :     0.130712
      py      :     0.058265
      dz2     :     0.069197  d :     0.238302
      dxz     :     0.061329
      dyz     :     0.030351
      dx2y2   :     0.046311
      dxy     :     0.031113
      f0      :     0.032550  f :     0.136016
      f+1     :     0.049611
      f-1     :     0.007957
      f+2     :     0.014087
      f-2     :     0.014334
      f+3     :     0.011855
      f-3     :     0.005623
      g0      :     0.027658  g :     0.082115
      g+1     :     0.018421
      g-1     :     0.003676
      g+2     :     0.015334
      g-2     :     0.006304
      g+3     :     0.002726
      g-3     :     0.003695
      g+4     :     0.003526
      g-4     :     0.000776
  3 H s       :     0.662582  s :     0.662582
      pz      :     0.089007  p :     0.290438
      px      :     0.141668
      py      :     0.059763
      dz2     :     0.064943  d :     0.242192
      dxz     :     0.063831
      dyz     :     0.025961
      dx2y2   :     0.049260
      dxy     :     0.038198
      f0      :     0.030906  f :     0.133621
      f+1     :     0.041727
      f-1     :     0.005683
      f+2     :     0.018929
      f-2     :     0.016128
      f+3     :     0.012754
      f-3     :     0.007493
      g0      :     0.020746  g :     0.082453
      g+1     :     0.019381
      g-1     :     0.002467
      g+2     :     0.018013
      g-2     :     0.006706
      g+3     :     0.005904
      g-3     :     0.004679
      g+4     :     0.003493
      g-4     :     0.001064
  4 H s       :     0.632673  s :     0.632673
      pz      :     0.131344  p :     0.438139
      px      :     0.215887
      py      :     0.090907
      dz2     :     0.089306  d :     0.355736
      dxz     :     0.102973
      dyz     :     0.026265
      dx2y2   :     0.071199
      dxy     :     0.065993
      f0      :     0.034476  f :     0.146557
      f+1     :     0.047146
      f-1     :     0.004010
      f+2     :     0.022134
      f-2     :     0.013821
      f+3     :     0.010700
      f-3     :     0.014270
      g0      :     0.024852  g :     0.068207
      g+1     :     0.012153
      g-1     :     0.001148
      g+2     :     0.015405
      g-2     :     0.003977
      g+3     :     0.004534
      g-3     :     0.003401
      g+4     :     0.001264
      g-4     :     0.001473

SPIN
  0 C s       :     0.000000  s :     0.000000
      pz      :     0.000000  p :     0.000000
      px      :    -0.000000
      py      :     0.000000
      dz2     :    -0.000000  d :    -0.000000
      dxz     :    -0.000000
      dyz     :    -0.000000
      dx2y2   :     0.000000
      dxy     :     0.000000
      f0      :    -0.000000  f :    -0.000000
      f+1     :    -0.000000
      f-1     :    -0.000000
      f+2     :     0.000000
      f-2     :    -0.000000
      f+3     :    -0.000000
      f-3     :    -0.000000
      g0      :     0.000000  g :     0.000000
      g+1     :     0.000000
      g-1     :    -0.000000
      g+2     :    -0.000000
      g-2     :     0.000000
      g+3     :    -0.000000
      g-3     :     0.000000
      g+4     :     0.000000
      g-4     :    -0.000000
      h0      :     0.000000  h :    -0.000000
      h+1     :    -0.000000
      h-1     :    -0.000000
      h+2     :     0.000000
      h-2     :     0.000000
      h+3     :    -0.000000
      h-3     :    -0.000000
      h+4     :     0.000000
      h-4     :    -0.000000
      h+5     :    -0.000000
      h-5     :    -0.000000
  1 N s       :    -0.000000  s :    -0.000000
      pz      :     0.000000  p :    -0.000000
      px      :    -0.000000
      py      :    -0.000000
      dz2     :     0.000000  d :     0.000000
      dxz     :     0.000000
      dyz     :     0.000000
      dx2y2   :    -0.000000
      dxy     :    -0.000000
      f0      :    -0.000000  f :    -0.000000
      f+1     :    -0.000000
      f-1     :     0.000000
      f+2     :     0.000000
      f-2     :     0.000000
      f+3     :    -0.000000
      f-3     :    -0.000000
      g0      :    -0.000000  g :     0.000000
      g+1     :     0.000000
      g-1     :     0.000000
      g+2     :     0.000000
      g-2     :     0.000000
      g+3     :     0.000000
      g-3     :    -0.000000
      g+4     :    -0.000000
      g-4     :    -0.000000
      h0      :    -0.000000  h :    -0.000000
      h+1     :    -0.000000
      h-1     :     0.000000
      h+2     :    -0.000000
      h-2     :    -0.000000
      h+3     :     0.000000
      h-3     :     0.000000
      h+4     :    -0.000000
      h-4     :    -0.000000
      h+5     :     0.000000
      h-5     :    -0.000000
  2 H s       :     0.000000  s :     0.000000
      pz      :     0.000000  p :     0.000000
      px      :     0.000000
      py      :     0.000000
      dz2     :    -0.000000  d :    -0.000000
      dxz     :    -0.000000
      dyz     :    -0.000000
      dx2y2   :     0.000000
      dxy     :     0.000000
      f0      :     0.000000  f :     0.000000
      f+1     :     0.000000
      f-1     :     0.000000
      f+2     :     0.000000
      f-2     :     0.000000
      f+3     :    -0.000000
      f-3     :     0.000000
      g0      :     0.000000  g :     0.000000
      g+1     :    -0.000000
      g-1     :     0.000000
      g+2     :     0.000000
      g-2     :    -0.000000
      g+3     :     0.000000
      g-3     :     0.000000
      g+4     :     0.000000
      g-4     :     0.000000
  3 H s       :     0.000000  s :     0.000000
      pz      :     0.000000  p :    -0.000000
      px      :    -0.000000
      py      :     0.000000
      dz2     :     0.000000  d :     0.000000
      dxz     :    -0.000000
      dyz     :     0.000000
      dx2y2   :     0.000000
      dxy     :     0.000000
      f0      :     0.000000  f :     0.000000
      f+1     :     0.000000
      f-1     :    -0.000000
      f+2     :     0.000000
      f-2     :     0.000000
      f+3     :     0.000000
      f-3     :     0.000000
      g0      :    -0.000000  g :    -0.000000
      g+1     :    -0.000000
      g-1     :    -0.000000
      g+2     :    -0.000000
      g-2     :    -0.000000
      g+3     :     0.000000
      g-3     :    -0.000000
      g+4     :    -0.000000
      g-4     :     0.000000
  4 H s       :    -0.000000  s :    -0.000000
      pz      :    -0.000000  p :    -0.000000
      px      :    -0.000000
      py      :    -0.000000
      dz2     :    -0.000000  d :     0.000000
      dxz     :    -0.000000
      dyz     :    -0.000000
      dx2y2   :     0.000000
      dxy     :    -0.000000
      f0      :     0.000000  f :    -0.000000
      f+1     :    -0.000000
      f-1     :     0.000000
      f+2     :    -0.000000
      f-2     :    -0.000000
      f+3     :    -0.000000
      f-3     :    -0.000000
      g0      :    -0.000000  g :    -0.000000
      g+1     :    -0.000000
      g-1     :     0.000000
      g+2     :     0.000000
      g-2     :     0.000000
      g+3     :     0.000000
      g-3     :     0.000000
      g+4     :    -0.000000
      g-4     :     0.000000


                      *****************************
                      * MAYER POPULATION ANALYSIS *
                      *****************************

  NA   - Mulliken gross atomic population
  ZA   - Total nuclear charge
  QA   - Mulliken gross atomic charge
  VA   - Mayer's total valence
  BVA  - Mayer's bonded valence
  FA   - Mayer's free valence

  ATOM       NA         ZA         QA         VA         BVA        FA
  0 C      5.8401     6.0000     0.1599     4.0839     4.0839    -0.0000
  1 N      7.3493     7.0000    -0.3493     3.0817     3.0817    -0.0000
  2 H      0.9969     1.0000     0.0031     1.0537     1.0537    -0.0000
  3 H      0.9899     1.0000     0.0101     0.9852     0.9852    -0.0000
  4 H      0.8237     1.0000     0.1763     0.9875     0.9875     0.0000

  Mayer bond orders larger than 0.1
B(  0-C ,  1-N ) :   2.0751 B(  0-C ,  2-H ) :   0.9866 B(  0-C ,  3-H ) :   0.9791 
B(  1-N ,  4-H ) :   0.9466 

-------
TIMINGS
-------

Total SCF time: 0 days 0 hours 45 min 53 sec 

Total time                  ....    2753.113 sec
Sum of individual times     ....    2751.871 sec  (100.0%)

Fock matrix formation       ....    2740.571 sec  ( 99.5%)
  XC integration            ....      90.875 sec  (  3.3% of F)
    Basis function eval.    ....       4.775 sec  (  5.3% of XC)
    Density eval.           ....      27.590 sec  ( 30.4% of XC)
    XC-Functional eval.     ....       0.396 sec  (  0.4% of XC)
    XC-Potential eval.      ....      56.366 sec  ( 62.0% of XC)
Diagonalization             ....       3.586 sec  (  0.1%)
Density matrix formation    ....       0.050 sec  (  0.0%)
Population analysis         ....       0.247 sec  (  0.0%)
Initial guess               ....       3.323 sec  (  0.1%)
Orbital Transformation      ....       0.000 sec  (  0.0%)
Orbital Orthonormalization  ....       0.000 sec  (  0.0%)
DIIS solution               ....       1.813 sec  (  0.1%)
Grid generation             ....       2.281 sec  (  0.1%)

-------------------------   --------------------
FINAL SINGLE POINT ENERGY       -94.555240526885
-------------------------   --------------------


                            ***************************************
                            *     ORCA property calculations      *
                            ***************************************

                                    ---------------------
                                    Active property flags
                                    ---------------------
   (+) Dipole Moment
   (+) Polarizability


------------------------------------------------------------------------------
                       ORCA ELECTRIC PROPERTIES CALCULATION
------------------------------------------------------------------------------

Dipole Moment Calculation                       ... on
Quadrupole Moment Calculation                   ... off
Polarizability Calculation                      ... Analytic (CP-SCF)
GBWName                                         ... ch2nh_pbe.gbw
Electron density file                           ... ch2nh_pbe.scfp.tmp
The origin for moment calculation is the CENTER OF MASS  = ( 0.049442,  0.000000 -0.082068)

-------------
DIPOLE MOMENT
-------------
                                X             Y             Z
Electronic contribution:      0.27293      -0.00000      -0.74990
Nuclear contribution   :     -0.79013       0.00000       1.31384
                        -----------------------------------------
Total Dipole Moment    :     -0.51720      -0.00000       0.56394
                        -----------------------------------------
Magnitude (a.u.)       :      0.76519
Magnitude (Debye)      :      1.94497



--------------------
Rotational spectrum 
--------------------
 
Rotational constants in cm-1:     6.567152     1.158417     0.984717 
Rotational constants in MHz : 196878.271853 34728.470441 29521.080331 

 Dipole components along the rotational axes: 
x,y,z [a.u.] :     0.522396    -0.559128    -0.000000 
x,y,z [Debye]:     1.327826    -1.421191    -0.000000 

 
Transforming and storing MO dipole integrals   ... done

                ... starting polarizability calculation

Opening the Dipole integral file               ... (ch2nh_pbe.dmo.tmp) done
Reading Dipole-MO integrals                    ... done
Solving CP-SCF equations                       ... 

           ************************************************************
           *        Program running with 4 parallel MPI-processes     *
           *              working on a common directory               *
           ************************************************************

------------------------------------------------------------------------------
                           ORCA CP-SCF CALCULATION
------------------------------------------------------------------------------

Input orbitals are from        ... ch2nh_pbe.gbw
Input Perturbation             ... ch2nh_pbe.cpv.tmp
Wavefunction output            ... ch2nh_pbe.cpu.tmp
Perturbation mode              ... Real perturbation (singlet)
Solver                         ... POPLE
Max. number of iterations      ... 200
Convergence tolerance          ... 1.000e-06
Integral handling              ... Direct
Number of perturbations        ... 3
Number of operators            ... 2
Orbital ranges used for CP-SCF:
 Operator 0:  Orbitals   0...  7  to   8...553
 Operator 1:  Orbitals   0...  7  to   8...553
DFT calculation                         ... on
Exchange functional (SCF)               ... PBE
Exchange functional (CP-SCF)            ... PBE
   PBE kappa parameter  XKappa (SCF)    ...  0.804000
   PBE kappa parameter  XKappa (CP-SCF) ...  0.804000
   PBE mue parameter   XMuePBE (SCF)    ...  0.219520
   PBE mue parameter   XMuePBE (CP-SCF) ...  0.219520
Correlation functional (SCF)            ... PBE
Correlation functional (CP-SCF)         ... PBE
   PBE beta parameter CBetaPBE (SCF)    ...  0.066725
   PBE beta parameter CBetaPBE (CP-SCF) ...  0.066725
 LDA part of GGA corr.  LDAOpt (SCF)    ... PW91-LDA
 LDA part of GGA corr.  LDAOpt (CP-SCF) ... PW91-LDA
Variables per vector in CP-SCF ... 8736
Number of vectors sought       ... 3
Recalculating density on grid  ... done
Calculating the xc-kernel      ... done
     CP-SCF ITERATION   0: 
     CP-SCF ITERATION   1:      0.620519460325
     CP-SCF ITERATION   2:      0.044785314383
     CP-SCF ITERATION   3:      0.001679888804
     CP-SCF ITERATION   4:      0.000052853510
     CP-SCF ITERATION   5:      0.000000670990
done
Reading CP-SCF coefficients                    ... done
Doing the polarizability tensor   ... done
Cleaning up                                    ... done

-------------------------
THE POLARIZABILITY TENSOR
-------------------------

The raw cartesian tensor (atomic units):
   23.18861      0.00000      0.33420  
    0.00000     17.85965      0.00000  
    0.33420      0.00000     30.37760  
diagonalized tensor: 
   17.85965     23.17310     30.39311  

    0.00000      0.99893      0.04634  
   -1.00000      0.00000      0.00000  
    0.00000     -0.04634      0.99893  

Isotropic polarizability :  23.80862


Timings for individual modules:

Sum of individual times         ...     4710.765 sec (=  78.513 min)
GTO integral calculation        ...        2.224 sec (=   0.037 min)   0.0 %
SCF iterations                  ...     2753.432 sec (=  45.891 min)  58.4 %
Solution of CP-SCF eqns.        ...     1955.109 sec (=  32.585 min)  41.5 %
                             ****ORCA TERMINATED NORMALLY****
TOTAL RUN TIME: 0 days 1 hours 18 minutes 31 seconds 852 msec
