
                                 *****************
                                 * O   R   C   A *
                                 *****************

           --- An Ab Initio, DFT and Semiempirical electronic structure package ---

                  #######################################################
                  #                        -***-                        #
                  #          Department of theory and spectroscopy      #
                  #               Directorship: Frank Neese             #
                  #        Max Planck Institute fuer Kohlenforschung    #
                  #                Kaiser Wilhelm Platz 1               #
                  #                 D-45470 Muelheim/Ruhr               #
                  #                      Germany                        #
                  #                                                     #
                  #                  All rights reserved                #
                  #                        -***-                        #
                  #######################################################


                         Program Version 4.1.2  - RELEASE  -


 With contributions from (in alphabetic order):
   Daniel Aravena         : Magnetic Properties
   Michael Atanasov       : Ab Initio Ligand Field Theory
   Alexander A. Auer      : GIAO ZORA
   Ute Becker             : Parallelization
   Giovanni Bistoni       : ED, Open-shell LED
   Martin Brehm           : Molecular dynamics
   Dmytro Bykov           : SCF Hessian
   Vijay G. Chilkuri      : MRCI spin determinant printing
   Dipayan Datta          : RHF DLPNO-CCSD density
   Achintya Kumar Dutta   : EOM-CC, STEOM-CC
   Dmitry Ganyushin       : Spin-Orbit,Spin-Spin,Magnetic field MRCI
   Miquel Garcia          : C-PCM Hessian
   Yang Guo               : DLPNO-NEVPT2, CIM, IAO-localization
   Andreas Hansen         : Spin unrestricted coupled pair/coupled cluster methods
   Benjamin Helmich-Paris : CASSCF linear response (MC-RPA)
   Lee Huntington         : MR-EOM, pCC
   Robert Izsak           : Overlap fitted RIJCOSX, COSX-SCS-MP3, EOM
   Christian Kollmar      : KDIIS, OOCD, Brueckner-CCSD(T), CCSD density
   Simone Kossmann        : Meta GGA functionals, TD-DFT gradient, OOMP2, MP2 Hessian
   Martin Krupicka        : AUTO-CI
   Lucas Lang             : DCDCAS
   Dagmar Lenk            : GEPOL surface, SMD
   Dimitrios Liakos       : Extrapolation schemes; parallel MDCI
   Dimitrios Manganas     : ROCIS; embedding schemes
   Dimitrios Pantazis     : SARC Basis sets
   Taras Petrenko         : DFT Hessian,TD-DFT gradient, ASA, ECA, R-Raman, ABS, FL, XAS/XES, NRVS
   Peter Pinski           : DLPNO-MP2, DLPNO-MP2 Gradient
   Christoph Reimann      : Effective Core Potentials
   Marius Retegan         : Local ZFS, SOC
   Christoph Riplinger    : Optimizer, TS searches, QM/MM, DLPNO-CCSD(T), (RO)-DLPNO pert. Triples
   Tobias Risthaus        : Range-separated hybrids, TD-DFT gradient, RPA, STAB
   Michael Roemelt        : Restricted open shell CIS
   Masaaki Saitow         : Open-shell DLPNO
   Barbara Sandhoefer     : DKH picture change effects
   Avijit Sen             : IP-ROCIS
   Kantharuban Sivalingam : CASSCF convergence, NEVPT2, FIC-MRCI
   Bernardo de Souza      : ESD, SOC TD-DFT
   Georgi Stoychev        : AutoAux, RI-MP2 NMR
   Willem Van den Heuvel  : Paramagnetic NMR
   Boris Wezisla          : Elementary symmetry handling
   Frank Wennmohs         : Technical directorship


 We gratefully acknowledge several colleagues who have allowed us to
 interface, adapt or use parts of their codes:
   Stefan Grimme, W. Hujo, H. Kruse,             : VdW corrections, initial TS optimization,
                  C. Bannwarth                     DFT functionals, gCP, sTDA/sTD-DF
   Ed Valeev                                     : LibInt (2-el integral package), F12 methods
   Garnet Chan, S. Sharma, J. Yang, R. Olivares  : DMRG
   Ulf Ekstrom                                   : XCFun DFT Library
   Mihaly Kallay                                 : mrcc  (arbitrary order and MRCC methods)
   Andreas Klamt, Michael Diedenhofen            : otool_cosmo (COSMO solvation model)
   Jiri Pittner, Ondrej Demel                    : Mk-CCSD
   Frank Weinhold                                : gennbo (NPA and NBO analysis)
   Christopher J. Cramer and Donald G. Truhlar   : smd solvation model
   Lars Goerigk                                  : TD-DFT with DH, B97 family of functionals
   V. Asgeirsson, H. Jonsson                     : NEB implementation
   FAccTs GmbH                                   : IRC, NEB, NEB-TS, Multilevel


 Your calculation uses the libint2 library for the computation of 2-el integrals
 For citations please refer to: http://libint.valeyev.net

 This ORCA versions uses:
   CBLAS   interface :  Fast vector & matrix operations
   LAPACKE interface :  Fast linear algebra routines
   SCALAPACK package :  Parallel linear algebra routines


----- Orbital basis set information -----
Your calculation utilizes the basis: aug-pc-4
   H, C-F              : F. Jensen, J. Chem. Phys. 115, 9113 (2001).
                         F. Jensen, J. Chem. Phys. 116, 7372 (2002).
                         F. Jensen, J. Chem. Phys. 117, 9234 (2002).
   Si-Cl               : F. Jensen, T. Helgaker, J. Chem. Phys. 121, 3463 (2004).
   He-B, Ne-Mg, Al, Ar : F. Jensen, J. Phys. Chem. A 111, 11198 (2007).
   K, Ca, Ga-Kr        : F. Jensen, J. Chem. Phys. 136, 094110 (2012).
   Sc-Zn               : F. Jensen, J. Chem. Phys. 138, 014107 (2013).

================================================================================
                                        WARNINGS
                       Please study these warnings very carefully!
================================================================================


INFO   : the flag for use of LIBINT has been found!

================================================================================
                                       INPUT FILE
================================================================================
NAME = ch2ph_pbe.inp
|  1> !uks pbe nori aug-pc-4 grid7 nofinalgrid verytightscf
|  2> 
|  3> %maxcore 1500
|  4> 
|  5> %pal nprocs 4 end
|  6> 
|  7> %scf
|  8> 	maxiter 200
|  9> end
| 10> %elprop
| 11> 	dipole true
| 12> 	 polar 1
| 13> 	 maxiter 200
| 14> end
| 15> 
| 16> * xyz 0 1
| 17> P 0.0000000000 0.0000000000 0.0000000000
| 18> H 0.0000000000 0.0000000000 1.4183490000
| 19> C 1.6600864825 0.0000000000 -0.2063414550
| 20> H 2.3794407562 0.0000000000 0.6006795204
| 21> H 2.0634774886 0.0000000000 -1.2113161293
| 22> *
| 23> 
| 24>                          ****END OF INPUT****
================================================================================

                       ****************************
                       * Single Point Calculation *
                       ****************************

---------------------------------
CARTESIAN COORDINATES (ANGSTROEM)
---------------------------------
  P      0.000000    0.000000    0.000000
  H      0.000000    0.000000    1.418349
  C      1.660086    0.000000   -0.206341
  H      2.379441    0.000000    0.600680
  H      2.063477    0.000000   -1.211316

----------------------------
CARTESIAN COORDINATES (A.U.)
----------------------------
  NO LB      ZA    FRAG     MASS         X           Y           Z
   0 P    15.0000    0    30.974    0.000000    0.000000    0.000000
   1 H     1.0000    0     1.008    0.000000    0.000000    2.680291
   2 C     6.0000    0    12.011    3.137109    0.000000   -0.389929
   3 H     1.0000    0     1.008    4.496491    0.000000    1.135120
   4 H     1.0000    0     1.008    3.899407    0.000000   -2.289056

--------------------------------
INTERNAL COORDINATES (ANGSTROEM)
--------------------------------
 P      0   0   0     0.000000000000     0.00000000     0.00000000
 H      1   0   0     1.418349000000     0.00000000     0.00000000
 C      1   2   0     1.672861000033    97.08527500     0.00000000
 H      3   1   2     1.081088999956   124.62757800     0.00000000
 H      3   1   2     1.082912000020   118.95551500   180.00000000

---------------------------
INTERNAL COORDINATES (A.U.)
---------------------------
 P      0   0   0     0.000000000000     0.00000000     0.00000000
 H      1   0   0     2.680291172321     0.00000000     0.00000000
 C      1   2   0     3.161249150180    97.08527500     0.00000000
 H      3   1   2     2.042962136312   124.62757800     0.00000000
 H      3   1   2     2.046407107174   118.95551500   180.00000000

---------------------
BASIS SET INFORMATION
---------------------
There are 3 groups of distinct atoms

 Group   1 Type P   : 44s27p7d4f3g2h contracted to 8s7p7d4f3g2h pattern {15121211111/111111111/1111111/1111/111/11}
 Group   2 Type H   : 12s7p4d3f2g contracted to 8s7p4d3f2g pattern {51111111/1111111/1111/111/11}
 Group   3 Type C   : 28s12p7d4f3g2h contracted to 9s8p7d4f3g2h pattern {11101111111/51111111/1111111/1111/111/11}

Atom   0P    basis set group =>   1
Atom   1H    basis set group =>   2
Atom   2C    basis set group =>   3
Atom   3H    basis set group =>   2
Atom   4H    basis set group =>   2


           ************************************************************
           *        Program running with 4 parallel MPI-processes     *
           *              working on a common directory               *
           ************************************************************
------------------------------------------------------------------------------
                           ORCA GTO INTEGRAL CALCULATION
------------------------------------------------------------------------------

                         BASIS SET STATISTICS AND STARTUP INFO

 # of primitive gaussian shells          ...  227
 # of primitive gaussian functions       ...  689
 # of contracted shells                  ...  136
 # of contracted basis functions         ...  550
 Highest angular momentum                ...    5
 Maximum contraction depth               ...   15
 Integral package used                   ... LIBINT
 Integral threshhold            Thresh   ...  1.000e-12
 Primitive cut-off              TCut     ...  1.000e-14


------------------------------ INTEGRAL EVALUATION ----------------------------


 * One electron integrals 
 Pre-screening matrix                    ... done
 Shell pair data                         ... done (   0.005 sec)



           ************************************************************
           *        Program running with 4 parallel MPI-processes     *
           *              working on a common directory               *
           ************************************************************
-------------------------------------------------------------------------------
                                 ORCA SCF
-------------------------------------------------------------------------------

------------
SCF SETTINGS
------------
Hamiltonian:
 Density Functional     Method          .... DFT(GTOs)
 Exchange Functional    Exchange        .... PBE
   PBE kappa parameter   XKappa         ....  0.804000
   PBE mue parameter    XMuePBE         ....  0.219520
 Correlation Functional Correlation     .... PBE
   PBE beta parameter  CBetaPBE         ....  0.066725
 LDA part of GGA corr.  LDAOpt          .... PW91-LDA
 Gradients option       PostSCFGGA      .... off
   Density functional embedding theory  .... OFF
   NL short-range parameter             ....  6.400000


General Settings:
 Integral files         IntName         .... ch2ph_pbe
 Hartree-Fock type      HFTyp           .... UHF
 Total Charge           Charge          ....    0
 Multiplicity           Mult            ....    1
 Number of Electrons    NEL             ....   24
 Basis Dimension        Dim             ....  550
 Nuclear Repulsion      ENuc            ....     48.5101282000 Eh

Convergence Acceleration:
 DIIS                   CNVDIIS         .... on
   Start iteration      DIISMaxIt       ....    12
   Startup error        DIISStart       ....  0.200000
   # of expansion vecs  DIISMaxEq       ....     5
   Bias factor          DIISBfac        ....   1.050
   Max. coefficient     DIISMaxC        ....  10.000
 Newton-Raphson         CNVNR           .... off
 SOSCF                  CNVSOSCF        .... off
 Level Shifting         CNVShift        .... on
   Level shift para.    LevelShift      ....    0.2500
   Turn off err/grad.   ShiftErr        ....    0.0010
 Zerner damping         CNVZerner       .... off
 Static damping         CNVDamp         .... on
   Fraction old density DampFac         ....    0.7000
   Max. Damping (<1)    DampMax         ....    0.9800
   Min. Damping (>=0)   DampMin         ....    0.0000
   Turn off err/grad.   DampErr         ....    0.1000
 Fernandez-Rico         CNVRico         .... off

SCF Procedure:
 Maximum # iterations   MaxIter         ....   200
 SCF integral mode      SCFMode         .... Direct
   Integral package                     .... LIBINT
 Reset frequency        DirectResetFreq ....    20
 Integral Threshold     Thresh          ....  1.000e-12 Eh
 Primitive CutOff       TCut            ....  1.000e-14 Eh

Convergence Tolerance:
 Convergence Check Mode ConvCheckMode   .... Total+1el-Energy
 Convergence forced     ConvForced      .... 0
 Energy Change          TolE            ....  1.000e-09 Eh
 1-El. energy change                    ....  1.000e-06 Eh
 DIIS Error             TolErr          ....  1.000e-08


Diagonalization of the overlap matrix:
Smallest eigenvalue                        ... 5.083e-08
Time for diagonalization                   ...    0.144 sec
Threshold for overlap eigenvalues          ... 1.000e-08
Number of eigenvalues below threshold      ... 0
Time for construction of square roots      ...    0.058 sec
Total time needed                          ...    0.203 sec

-------------------
DFT GRID GENERATION
-------------------

General Integration Accuracy     IntAcc      ...  5.670
Radial Grid Type                 RadialGrid  ... Gauss-Chebyshev
Angular Grid (max. acc.)         AngularGrid ... Lebedev-770
Angular grid pruning method      GridPruning ... 3 (G Style)
Weight generation scheme         WeightScheme... Becke
Basis function cutoff            BFCut       ...    1.0000e-12
Integration weight cutoff        WCut        ...    1.0000e-14
Grids for H and He will be reduced by one unit

# of grid points (after initial pruning)     ... 105734 (   0.0 sec)
# of grid points (after weights+screening)   ... 103050 (   0.0 sec)
nearest neighbour list constructed           ...    0.0 sec
Grid point re-assignment to atoms done       ...    0.0 sec
Grid point division into batches done        ...    1.9 sec
Reduced shell lists constructed in    2.3 sec

Total number of grid points                  ...   103050
Total number of batches                      ...     1612
Average number of points per batch           ...       63
Average number of grid points per atom       ...    20610
Average number of shells per batch           ...    91.14 (67.01%)
Average number of basis functions per batch  ...   378.51 (68.82%)
Average number of large shells per batch     ...    79.81 (87.57%)
Average number of large basis fcns per batch ...   333.87 (88.20%)
Maximum spatial batch extension              ...  16.94, 20.90, 15.45 au
Average spatial batch extension              ...   0.67,  0.69,  0.65 au

Time for grid setup =    2.422 sec

------------------------------
INITIAL GUESS: MODEL POTENTIAL
------------------------------
Loading Hartree-Fock densities                     ... done
Calculating cut-offs                               ... done
Setting up the integral package                    ... done
Initializing the effective Hamiltonian             ... done
Starting the Coulomb interaction                   ... done (   0.1 sec)
Reading the grid                                   ... done
Mapping shells                                     ... done
Starting the XC term evaluation                    ... done (   3.1 sec)
  promolecular density results
     # of electrons  =     23.998531472
     EX              =    -28.464015370
     EC              =     -0.837706426
     EX+EC           =    -29.301721796
Transforming the Hamiltonian                       ... done (   0.0 sec)
Diagonalizing the Hamiltonian                      ... done (   0.1 sec)
Back transforming the eigenvectors                 ... done (   0.0 sec)
Now organizing SCF variables                       ... done
                      ------------------
                      INITIAL GUESS DONE (   5.9 sec)
                      ------------------
--------------
SCF ITERATIONS
--------------
ITER       Energy         Delta-E        Max-DP      RMS-DP      [F,P]     Damp
               ***  Starting incremental Fock matrix formation  ***
  0   -380.9442876708   0.000000000000 0.02523686  0.00022144  0.2664503 0.7000
  1   -381.0037650604  -0.059477389660 0.01284322  0.00014261  0.0964880 0.7000
                               ***Turning on DIIS***
  2   -381.0149502202  -0.011185159727 0.04676493  0.00030812  0.0206176 0.0000
  3   -381.0343340429  -0.019383822716 0.00968081  0.00007172  0.0919886 0.0000
  4   -381.0449609744  -0.010626931519 0.01675485  0.00011128  0.0193586 0.0000
  5   -381.0459668891  -0.001005914683 0.00939720  0.00006078  0.0110954 0.0000
  6   -381.0461329254  -0.000166036313 0.00355218  0.00002005  0.0046566 0.0000
  7   -381.0461651715  -0.000032246072 0.00056911  0.00000569  0.0026071 0.0000
  8   -381.0461731999  -0.000008028447 0.00024919  0.00000233  0.0015650 0.0000
  9   -381.0461759286  -0.000002728708 0.00031957  0.00000210  0.0008862 0.0000
 10   -381.0461769755  -0.000001046880 0.00070434  0.00000262  0.0003167 0.0000
 11   -381.0461771200  -0.000000144493 0.00008120  0.00000066  0.0000720 0.0000
 12   -381.0461771308  -0.000000010814 0.00020461  0.00000125  0.0000112 0.0000
 13   -381.0461771311  -0.000000000332 0.00040362  0.00000153  0.0000031 0.0000
 14   -381.0461771312  -0.000000000030 0.00122684  0.00000535  0.0000006 0.0000
 15   -381.0461771312  -0.000000000005 0.00131185  0.00000889  0.0000002 0.0000
                 **** Energy Check signals convergence ****

               *****************************************************
               *                     SUCCESS                       *
               *           SCF CONVERGED AFTER  16 CYCLES          *
               *****************************************************


----------------
TOTAL SCF ENERGY
----------------

Total Energy       :         -381.04617713 Eh          -10368.79362 eV

Components:
Nuclear Repulsion  :           48.51012820 Eh            1320.02770 eV
Electronic Energy  :         -429.55630533 Eh          -11688.82132 eV
One Electron Energy:         -621.24082952 Eh          -16904.82240 eV
Two Electron Energy:          191.68452419 Eh            5216.00108 eV

Virial components:
Potential Energy   :         -761.63208313 Eh          -20725.06262 eV
Kinetic Energy     :          380.58590599 Eh           10356.26900 eV
Virial Ratio       :            2.00120938


DFT components:
N(Alpha)           :       11.999999991995 electrons
N(Beta)            :       11.999999991995 electrons
N(Total)           :       23.999999983990 electrons
E(X)               :      -28.677123118067 Eh       
E(C)               :       -0.839124442895 Eh       
E(XC)              :      -29.516247560962 Eh       
DFET-embed. en.    :        0.000000000000 Eh       

---------------
SCF CONVERGENCE
---------------

  Last Energy change         ...    7.9581e-13  Tolerance :   1.0000e-09
  Last MAX-Density change    ...    5.1023e-04  Tolerance :   1.0000e-08
  Last RMS-Density change    ...    2.7999e-06  Tolerance :   1.0000e-09
  Last DIIS Error            ...    6.6211e-08  Tolerance :   1.0000e-08

             **** THE GBW FILE WAS UPDATED (ch2ph_pbe.gbw) ****
             **** DENSITY FILE WAS UPDATED (ch2ph_pbe.scfp.tmp) ****
             **** ENERGY FILE WAS UPDATED (ch2ph_pbe.en.tmp) ****
----------------------
UHF SPIN CONTAMINATION
----------------------

Warning: in a DFT calculation there is little theoretical justification to 
         calculate <S**2> as in Hartree-Fock theory. We will do it anyways
         but you should keep in mind that the values have only limited relevance

Expectation value of <S**2>     :    -0.000000
Ideal value S*(S+1) for S=0.0   :     0.000000
Deviation                       :    -0.000000

----------------
ORBITAL ENERGIES
----------------
                 SPIN UP ORBITALS
  NO   OCC          E(Eh)            E(eV) 
   0   1.0000     -76.281916     -2075.7365 
   1   1.0000      -9.910325      -269.6737 
   2   1.0000      -6.302084      -171.4884 
   3   1.0000      -4.519108      -122.9712 
   4   1.0000      -4.517137      -122.9175 
   5   1.0000      -4.512938      -122.8033 
   6   1.0000      -0.662923       -18.0390 
   7   1.0000      -0.509889       -13.8748 
   8   1.0000      -0.405694       -11.0395 
   9   1.0000      -0.338063        -9.1992 
  10   1.0000      -0.251272        -6.8375 
  11   1.0000      -0.249862        -6.7991 
  12   0.0000      -0.102802        -2.7974 
  13   0.0000      -0.025561        -0.6955 
  14   0.0000      -0.001406        -0.0383 
  15   0.0000       0.006090         0.1657 
  16   0.0000       0.010960         0.2982 
  17   0.0000       0.014742         0.4012 
  18   0.0000       0.031022         0.8442 
  19   0.0000       0.032077         0.8729 
  20   0.0000       0.036457         0.9920 
  21   0.0000       0.038620         1.0509 
  22   0.0000       0.046122         1.2551 
  23   0.0000       0.048983         1.3329 
  24   0.0000       0.052508         1.4288 
  25   0.0000       0.055820         1.5189 
  26   0.0000       0.058349         1.5878 
  27   0.0000       0.061403         1.6709 
  28   0.0000       0.076058         2.0696 
  29   0.0000       0.084293         2.2937 
  30   0.0000       0.088683         2.4132 
  31   0.0000       0.096448         2.6245 
  32   0.0000       0.104096         2.8326 
  33   0.0000       0.104459         2.8425 
  34   0.0000       0.105673         2.8755 
  35   0.0000       0.108998         2.9660 
  36   0.0000       0.115565         3.1447 
  37   0.0000       0.122675         3.3382 
  38   0.0000       0.123749         3.3674 
  39   0.0000       0.129312         3.5188 
  40   0.0000       0.137013         3.7283 
  41   0.0000       0.139351         3.7919 
  42   0.0000       0.143317         3.8999 
  43   0.0000       0.144874         3.9422 
  44   0.0000       0.150581         4.0975 
  45   0.0000       0.154812         4.2127 
  46   0.0000       0.164686         4.4813 
  47   0.0000       0.168024         4.5722 
  48   0.0000       0.169903         4.6233 
  49   0.0000       0.178059         4.8452 
  50   0.0000       0.182374         4.9627 
  51   0.0000       0.186154         5.0655 
  52   0.0000       0.199272         5.4225 
  53   0.0000       0.204784         5.5725 
  54   0.0000       0.206866         5.6291 
  55   0.0000       0.218220         5.9381 
  56   0.0000       0.218246         5.9388 
  57   0.0000       0.219878         5.9832 
  58   0.0000       0.221756         6.0343 
  59   0.0000       0.223649         6.0858 
  60   0.0000       0.227685         6.1956 
  61   0.0000       0.235235         6.4011 
  62   0.0000       0.248796         6.7701 
  63   0.0000       0.256222         6.9722 
  64   0.0000       0.260353         7.0846 
  65   0.0000       0.268641         7.3101 
  66   0.0000       0.271970         7.4007 
  67   0.0000       0.272334         7.4106 
  68   0.0000       0.278415         7.5761 
  69   0.0000       0.279771         7.6130 
  70   0.0000       0.281839         7.6692 
  71   0.0000       0.286064         7.7842 
  72   0.0000       0.287006         7.8098 
  73   0.0000       0.294588         8.0161 
  74   0.0000       0.295194         8.0326 
  75   0.0000       0.306844         8.3497 
  76   0.0000       0.311705         8.4819 
  77   0.0000       0.317961         8.6522 
  78   0.0000       0.319242         8.6870 
  79   0.0000       0.321168         8.7394 
  80   0.0000       0.324743         8.8367 
  81   0.0000       0.325030         8.8445 
  82   0.0000       0.331461         9.0195 
  83   0.0000       0.332985         9.0610 
  84   0.0000       0.336742         9.1632 
  85   0.0000       0.345398         9.3987 
  86   0.0000       0.354821         9.6552 
  87   0.0000       0.377609        10.2753 
  88   0.0000       0.382824        10.4172 
  89   0.0000       0.384026        10.4499 
  90   0.0000       0.384194        10.4545 
  91   0.0000       0.389760        10.6059 
  92   0.0000       0.395870        10.7722 
  93   0.0000       0.417820        11.3694 
  94   0.0000       0.421644        11.4735 
  95   0.0000       0.427097        11.6219 
  96   0.0000       0.430716        11.7204 
  97   0.0000       0.436347        11.8736 
  98   0.0000       0.437723        11.9110 
  99   0.0000       0.438682        11.9372 
 100   0.0000       0.441240        12.0068 
 101   0.0000       0.451564        12.2877 
 102   0.0000       0.452274        12.3070 
 103   0.0000       0.461034        12.5454 
 104   0.0000       0.462891        12.5959 
 105   0.0000       0.466141        12.6843 
 106   0.0000       0.471486        12.8298 
 107   0.0000       0.477710        12.9991 
 108   0.0000       0.479987        13.0611 
 109   0.0000       0.480715        13.0809 
 110   0.0000       0.486646        13.2423 
 111   0.0000       0.488484        13.2923 
 112   0.0000       0.490055        13.3351 
 113   0.0000       0.502814        13.6823 
 114   0.0000       0.504327        13.7234 
 115   0.0000       0.508016        13.8238 
 116   0.0000       0.517242        14.0749 
 117   0.0000       0.523502        14.2452 
 118   0.0000       0.525685        14.3046 
 119   0.0000       0.531393        14.4599 
 120   0.0000       0.542765        14.7694 
 121   0.0000       0.543056        14.7773 
 122   0.0000       0.549205        14.9446 
 123   0.0000       0.553443        15.0600 
 124   0.0000       0.556406        15.1406 
 125   0.0000       0.557882        15.1808 
 126   0.0000       0.571326        15.5466 
 127   0.0000       0.572553        15.5800 
 128   0.0000       0.574230        15.6256 
 129   0.0000       0.575314        15.6551 
 130   0.0000       0.582816        15.8592 
 131   0.0000       0.590490        16.0681 
 132   0.0000       0.595320        16.1995 
 133   0.0000       0.602161        16.3856 
 134   0.0000       0.606965        16.5163 
 135   0.0000       0.608924        16.5697 
 136   0.0000       0.623807        16.9746 
 137   0.0000       0.628115        17.0919 
 138   0.0000       0.634272        17.2594 
 139   0.0000       0.640692        17.4341 
 140   0.0000       0.643749        17.5173 
 141   0.0000       0.654477        17.8092 
 142   0.0000       0.663275        18.0486 
 143   0.0000       0.665877        18.1194 
 144   0.0000       0.674081        18.3427 
 145   0.0000       0.677886        18.4462 
 146   0.0000       0.685628        18.6569 
 147   0.0000       0.698862        19.0170 
 148   0.0000       0.698989        19.0205 
 149   0.0000       0.704099        19.1595 
 150   0.0000       0.715657        19.4740 
 151   0.0000       0.717337        19.5197 
 152   0.0000       0.725063        19.7300 
 153   0.0000       0.729667        19.8552 
 154   0.0000       0.744217        20.2512 
 155   0.0000       0.748318        20.3628 
 156   0.0000       0.753642        20.5076 
 157   0.0000       0.760023        20.6813 
 158   0.0000       0.770023        20.9534 
 159   0.0000       0.778439        21.1824 
 160   0.0000       0.781790        21.2736 
 161   0.0000       0.786801        21.4100 
 162   0.0000       0.787606        21.4319 
 163   0.0000       0.796516        21.6743 
 164   0.0000       0.802788        21.8450 
 165   0.0000       0.803602        21.8671 
 166   0.0000       0.810691        22.0600 
 167   0.0000       0.810860        22.0646 
 168   0.0000       0.824511        22.4361 
 169   0.0000       0.828374        22.5412 
 170   0.0000       0.833548        22.6820 
 171   0.0000       0.838159        22.8075 
 172   0.0000       0.839154        22.8345 
 173   0.0000       0.840198        22.8630 
 174   0.0000       0.848823        23.0977 
 175   0.0000       0.859716        23.3941 
 176   0.0000       0.865106        23.5407 
 177   0.0000       0.866573        23.5807 
 178   0.0000       0.871187        23.7062 
 179   0.0000       0.873390        23.7661 
 180   0.0000       0.875526        23.8243 
 181   0.0000       0.879462        23.9314 
 182   0.0000       0.893399        24.3106 
 183   0.0000       0.894633        24.3442 
 184   0.0000       0.895089        24.3566 
 185   0.0000       0.904798        24.6208 
 186   0.0000       0.909399        24.7460 
 187   0.0000       0.912431        24.8285 
 188   0.0000       0.916999        24.9528 
 189   0.0000       0.917576        24.9685 
 190   0.0000       0.919502        25.0209 
 191   0.0000       0.924237        25.1498 
 192   0.0000       0.931553        25.3489 
 193   0.0000       0.932011        25.3613 
 194   0.0000       0.940076        25.5808 
 195   0.0000       0.959129        26.0992 
 196   0.0000       0.963541        26.2193 
 197   0.0000       0.968184        26.3456 
 198   0.0000       0.987812        26.8797 
 199   0.0000       0.992740        27.0138 
 200   0.0000       1.017678        27.6924 
 201   0.0000       1.019517        27.7425 
 202   0.0000       1.022883        27.8341 
 203   0.0000       1.039605        28.2891 
 204   0.0000       1.078274        29.3413 
 205   0.0000       1.082671        29.4610 
 206   0.0000       1.098758        29.8987 
 207   0.0000       1.104479        30.0544 
 208   0.0000       1.114013        30.3138 
 209   0.0000       1.122683        30.5498 
 210   0.0000       1.156921        31.4814 
 211   0.0000       1.220284        33.2056 
 212   0.0000       1.232089        33.5268 
 213   0.0000       1.241839        33.7922 
 214   0.0000       1.252060        34.0703 
 215   0.0000       1.265835        34.4451 
 216   0.0000       1.296030        35.2668 
 217   0.0000       1.308908        35.6172 
 218   0.0000       1.320147        35.9230 
 219   0.0000       1.340173        36.4680 
 220   0.0000       1.367986        37.2248 
 221   0.0000       1.370608        37.2961 
 222   0.0000       1.381132        37.5825 
 223   0.0000       1.396898        38.0115 
 224   0.0000       1.419089        38.6154 
 225   0.0000       1.466821        39.9142 
 226   0.0000       1.468985        39.9731 
 227   0.0000       1.476735        40.1840 
 228   0.0000       1.508602        41.0512 
 229   0.0000       1.531469        41.6734 
 230   0.0000       1.532263        41.6950 
 231   0.0000       1.540999        41.9327 
 232   0.0000       1.557608        42.3847 
 233   0.0000       1.580004        42.9941 
 234   0.0000       1.585630        43.1472 
 235   0.0000       1.591770        43.3143 
 236   0.0000       1.595585        43.4181 
 237   0.0000       1.608176        43.7607 
 238   0.0000       1.626562        44.2610 
 239   0.0000       1.667067        45.3632 
 240   0.0000       1.700546        46.2742 
 241   0.0000       1.707434        46.4617 
 242   0.0000       1.710807        46.5534 
 243   0.0000       1.732053        47.1316 
 244   0.0000       1.746575        47.5267 
 245   0.0000       1.757731        47.8303 
 246   0.0000       1.781299        48.4716 
 247   0.0000       1.786215        48.6054 
 248   0.0000       1.815009        49.3889 
 249   0.0000       1.859133        50.5896 
 250   0.0000       2.013708        54.7958 
 251   0.0000       2.015770        54.8519 
 252   0.0000       2.044165        55.6246 
 253   0.0000       2.086968        56.7893 
 254   0.0000       2.113314        57.5062 
 255   0.0000       2.148712        58.4694 
 256   0.0000       2.164088        58.8878 
 257   0.0000       2.168571        59.0098 
 258   0.0000       2.227170        60.6044 
 259   0.0000       2.277020        61.9609 
 260   0.0000       2.278239        61.9940 
 261   0.0000       2.287795        62.2541 
 262   0.0000       2.326725        63.3134 
 263   0.0000       2.330242        63.4091 
 264   0.0000       2.344305        63.7918 
 265   0.0000       2.374117        64.6030 
 266   0.0000       2.381884        64.8144 
 267   0.0000       2.456449        66.8434 
 268   0.0000       2.534775        68.9747 
 269   0.0000       2.567426        69.8632 
 270   0.0000       2.638073        71.7856 
 271   0.0000       2.651410        72.1485 
 272   0.0000       2.656282        72.2811 
 273   0.0000       2.690781        73.2199 
 274   0.0000       2.702315        73.5337 
 275   0.0000       2.749838        74.8269 
 276   0.0000       2.775293        75.5196 
 277   0.0000       2.785664        75.8018 
 278   0.0000       2.872982        78.1778 
 279   0.0000       2.943136        80.0868 
 280   0.0000       2.953149        80.3593 
 281   0.0000       2.972774        80.8933 
 282   0.0000       2.992289        81.4243 
 283   0.0000       3.001829        81.6839 
 284   0.0000       3.037268        82.6483 
 285   0.0000       3.037821        82.6633 
 286   0.0000       3.093036        84.1658 
 287   0.0000       3.105556        84.5065 
 288   0.0000       3.132561        85.2413 
 289   0.0000       3.142341        85.5074 
 290   0.0000       3.173892        86.3660 
 291   0.0000       3.201620        87.1205 
 292   0.0000       3.220727        87.6404 
 293   0.0000       3.225683        87.7753 
 294   0.0000       3.284277        89.3697 
 295   0.0000       3.350937        91.1836 
 296   0.0000       3.400850        92.5418 
 297   0.0000       3.426768        93.2471 
 298   0.0000       3.461606        94.1951 
 299   0.0000       3.462859        94.2292 
 300   0.0000       3.507156        95.4346 
 301   0.0000       3.507533        95.4448 
 302   0.0000       3.539007        96.3013 
 303   0.0000       3.545235        96.4707 
 304   0.0000       3.588150        97.6385 
 305   0.0000       3.599449        97.9460 
 306   0.0000       3.627023        98.6963 
 307   0.0000       3.653659        99.4211 
 308   0.0000       3.674634        99.9919 
 309   0.0000       3.727145       101.4208 
 310   0.0000       3.736963       101.6879 
 311   0.0000       3.767824       102.5277 
 312   0.0000       3.777550       102.7924 
 313   0.0000       3.806068       103.5684 
 314   0.0000       3.817652       103.8836 
 315   0.0000       3.859918       105.0337 
 316   0.0000       3.913267       106.4854 
 317   0.0000       3.999672       108.8366 
 318   0.0000       4.013163       109.2037 
 319   0.0000       4.038834       109.9023 
 320   0.0000       4.076224       110.9197 
 321   0.0000       4.079541       111.0100 
 322   0.0000       4.122086       112.1677 
 323   0.0000       4.166645       113.3802 
 324   0.0000       4.271846       116.2428 
 325   0.0000       4.290488       116.7501 
 326   0.0000       4.341555       118.1397 
 327   0.0000       4.397580       119.6642 
 328   0.0000       4.445065       120.9564 
 329   0.0000       4.484621       122.0328 
 330   0.0000       4.485969       122.0694 
 331   0.0000       4.503568       122.5483 
 332   0.0000       4.553844       123.9164 
 333   0.0000       4.633682       126.0889 
 334   0.0000       4.654819       126.6641 
 335   0.0000       4.668506       127.0365 
 336   0.0000       4.696178       127.7895 
 337   0.0000       4.745925       129.1432 
 338   0.0000       4.806228       130.7841 
 339   0.0000       4.857575       132.1813 
 340   0.0000       4.925791       134.0376 
 341   0.0000       4.941525       134.4657 
 342   0.0000       4.952369       134.7608 
 343   0.0000       4.967096       135.1616 
 344   0.0000       5.018164       136.5512 
 345   0.0000       5.146525       140.0441 
 346   0.0000       5.195512       141.3771 
 347   0.0000       5.208253       141.7238 
 348   0.0000       5.236907       142.5035 
 349   0.0000       5.283145       143.7617 
 350   0.0000       5.320104       144.7674 
 351   0.0000       5.363463       145.9472 
 352   0.0000       5.375740       146.2813 
 353   0.0000       5.442588       148.1003 
 354   0.0000       5.466266       148.7447 
 355   0.0000       5.480791       149.1399 
 356   0.0000       5.521851       150.2572 
 357   0.0000       5.542595       150.8217 
 358   0.0000       5.574296       151.6843 
 359   0.0000       5.619225       152.9069 
 360   0.0000       5.656427       153.9192 
 361   0.0000       5.695297       154.9769 
 362   0.0000       5.712987       155.4583 
 363   0.0000       5.769884       157.0065 
 364   0.0000       5.869236       159.7100 
 365   0.0000       5.948734       161.8733 
 366   0.0000       6.102761       166.0646 
 367   0.0000       6.123715       166.6348 
 368   0.0000       6.167436       167.8245 
 369   0.0000       6.278267       170.8403 
 370   0.0000       6.354290       172.9090 
 371   0.0000       6.407725       174.3631 
 372   0.0000       6.424578       174.8216 
 373   0.0000       6.466261       175.9559 
 374   0.0000       6.522073       177.4746 
 375   0.0000       6.685292       181.9161 
 376   0.0000       6.761326       183.9850 
 377   0.0000       6.787642       184.7011 
 378   0.0000       6.828404       185.8103 
 379   0.0000       6.929687       188.5664 
 380   0.0000       7.106188       193.3692 
 381   0.0000       7.240974       197.0369 
 382   0.0000       7.506091       204.2511 
 383   0.0000       7.535995       205.0649 
 384   0.0000       7.565612       205.8708 
 385   0.0000       7.585315       206.4069 
 386   0.0000       7.641545       207.9370 
 387   0.0000       7.717075       209.9923 
 388   0.0000       7.757781       211.1000 
 389   0.0000       7.801990       212.3029 
 390   0.0000       7.805263       212.3920 
 391   0.0000       8.101328       220.4483 
 392   0.0000       8.133486       221.3234 
 393   0.0000       8.454270       230.0524 
 394   0.0000       8.490623       231.0416 
 395   0.0000       8.506484       231.4732 
 396   0.0000       8.548157       232.6072 
 397   0.0000       8.646847       235.2927 
 398   0.0000       8.822028       240.0596 
 399   0.0000       8.874072       241.4758 
 400   0.0000       8.926338       242.8980 
 401   0.0000       8.971158       244.1176 
 402   0.0000       8.973456       244.1802 
 403   0.0000       9.022904       245.5257 
 404   0.0000       9.058165       246.4852 
 405   0.0000       9.071129       246.8380 
 406   0.0000       9.134540       248.5635 
 407   0.0000       9.182882       249.8789 
 408   0.0000       9.235113       251.3002 
 409   0.0000       9.265770       252.1344 
 410   0.0000       9.277390       252.4506 
 411   0.0000       9.407408       255.9886 
 412   0.0000       9.483590       258.0616 
 413   0.0000       9.668184       263.0847 
 414   0.0000       9.784413       266.2474 
 415   0.0000       9.868833       268.5446 
 416   0.0000      10.368885       282.1517 
 417   0.0000      10.382676       282.5270 
 418   0.0000      10.534981       286.6714 
 419   0.0000      10.598745       288.4065 
 420   0.0000      10.677470       290.5487 
 421   0.0000      10.726760       291.8900 
 422   0.0000      10.731588       292.0214 
 423   0.0000      10.748284       292.4757 
 424   0.0000      10.765908       292.9552 
 425   0.0000      10.881711       296.1064 
 426   0.0000      10.884670       296.1869 
 427   0.0000      10.912284       296.9383 
 428   0.0000      10.947669       297.9012 
 429   0.0000      11.041157       300.4452 
 430   0.0000      11.069086       301.2052 
 431   0.0000      11.141924       303.1872 
 432   0.0000      11.153474       303.5015 
 433   0.0000      11.218171       305.2619 
 434   0.0000      11.481350       312.4234 
 435   0.0000      11.551045       314.3199 
 436   0.0000      11.633153       316.5542 
 437   0.0000      11.649519       316.9995 
 438   0.0000      11.688485       318.0598 
 439   0.0000      11.717544       318.8506 
 440   0.0000      11.811475       321.4066 
 441   0.0000      11.841625       322.2270 
 442   0.0000      11.849464       322.4403 
 443   0.0000      11.941540       324.9458 
 444   0.0000      12.116802       329.7149 
 445   0.0000      12.324610       335.3697 
 446   0.0000      12.331168       335.5481 
 447   0.0000      12.361339       336.3691 
 448   0.0000      12.385439       337.0249 
 449   0.0000      12.428667       338.2012 
 450   0.0000      12.439224       338.4885 
 451   0.0000      12.457986       338.9990 
 452   0.0000      12.492729       339.9444 
 453   0.0000      12.542407       341.2962 
 454   0.0000      12.602767       342.9387 
 455   0.0000      12.707315       345.7836 
 456   0.0000      12.721522       346.1702 
 457   0.0000      12.764184       347.3311 
 458   0.0000      12.811480       348.6181 
 459   0.0000      12.942893       352.1940 
 460   0.0000      12.944307       352.2325 
 461   0.0000      13.056992       355.2988 
 462   0.0000      13.076653       355.8338 
 463   0.0000      13.143381       357.6496 
 464   0.0000      13.219290       359.7152 
 465   0.0000      13.312143       362.2418 
 466   0.0000      13.318351       362.4108 
 467   0.0000      13.495357       367.2273 
 468   0.0000      13.504619       367.4794 
 469   0.0000      13.598774       370.0415 
 470   0.0000      13.629052       370.8653 
 471   0.0000      13.704639       372.9222 
 472   0.0000      14.007652       381.1676 
 473   0.0000      14.262458       388.1012 
 474   0.0000      14.360629       390.7726 
 475   0.0000      14.964806       407.2131 
 476   0.0000      15.148356       412.2077 
 477   0.0000      15.377553       418.4445 
 478   0.0000      15.688794       426.9138 
 479   0.0000      16.168369       439.9637 
 480   0.0000      16.174555       440.1320 
 481   0.0000      16.266115       442.6235 
 482   0.0000      16.401297       446.3020 
 483   0.0000      16.524222       449.6470 
 484   0.0000      16.727221       455.1708 
 485   0.0000      16.728222       455.1981 
 486   0.0000      16.730350       455.2560 
 487   0.0000      16.734465       455.3679 
 488   0.0000      16.747157       455.7133 
 489   0.0000      16.748347       455.7457 
 490   0.0000      16.770962       456.3611 
 491   0.0000      16.774241       456.4503 
 492   0.0000      16.785977       456.7697 
 493   0.0000      16.925389       460.5632 
 494   0.0000      17.022294       463.2002 
 495   0.0000      17.066244       464.3961 
 496   0.0000      17.125169       465.9995 
 497   0.0000      17.229494       468.8384 
 498   0.0000      17.229838       468.8477 
 499   0.0000      17.268876       469.9100 
 500   0.0000      17.521403       476.7816 
 501   0.0000      17.765041       483.4114 
 502   0.0000      17.873384       486.3595 
 503   0.0000      18.072445       491.7762 
 504   0.0000      18.366837       499.7870 
 505   0.0000      18.573805       505.4189 
 506   0.0000      18.628495       506.9071 
 507   0.0000      18.668229       507.9883 
 508   0.0000      18.994597       516.8692 
 509   0.0000      19.887329       541.1617 
 510   0.0000      20.034246       545.1595 
 511   0.0000      20.189102       549.3734 
 512   0.0000      20.199316       549.6513 
 513   0.0000      20.347054       553.6715 
 514   0.0000      20.488271       557.5142 
 515   0.0000      21.278447       579.0160 
 516   0.0000      21.366407       581.4095 
 517   0.0000      23.316309       634.4690 
 518   0.0000      23.453777       638.2097 
 519   0.0000      23.494499       639.3178 
 520   0.0000      23.553501       640.9234 
 521   0.0000      23.631107       643.0351 
 522   0.0000      23.878496       649.7669 
 523   0.0000      23.968544       652.2172 
 524   0.0000      25.433175       692.0719 
 525   0.0000      25.690593       699.0766 
 526   0.0000      25.949585       706.1241 
 527   0.0000      32.186971       875.8520 
 528   0.0000      32.297999       878.8732 
 529   0.0000      32.788727       892.2266 
 530   0.0000      33.507889       911.7960 
 531   0.0000      33.824958       920.4239 
 532   0.0000      39.804522      1083.1361 
 533   0.0000      41.088949      1118.0871 
 534   0.0000      41.156715      1119.9312 
 535   0.0000      59.000405      1605.4826 
 536   0.0000      59.022118      1606.0735 
 537   0.0000      59.190873      1610.6655 
 538   0.0000      59.321447      1614.2186 
 539   0.0000      59.805257      1627.3838 
 540   0.0000      75.422103      2052.3398 
 541   0.0000      90.936936      2474.5198 
 542   0.0000      91.038319      2477.2786 
 543   0.0000      91.047271      2477.5222 
 544   0.0000      91.089746      2478.6780 
 545   0.0000      91.140660      2480.0634 
 546   0.0000      91.358383      2485.9880 
 547   0.0000      91.503101      2489.9260 
 548   0.0000      92.355104      2513.1101 
 549   0.0000      92.486471      2516.6848 

                 SPIN DOWN ORBITALS
  NO   OCC          E(Eh)            E(eV) 
   0   1.0000     -76.281916     -2075.7365 
   1   1.0000      -9.910325      -269.6737 
   2   1.0000      -6.302084      -171.4884 
   3   1.0000      -4.519108      -122.9712 
   4   1.0000      -4.517137      -122.9175 
   5   1.0000      -4.512938      -122.8033 
   6   1.0000      -0.662923       -18.0390 
   7   1.0000      -0.509889       -13.8748 
   8   1.0000      -0.405694       -11.0395 
   9   1.0000      -0.338063        -9.1992 
  10   1.0000      -0.251272        -6.8375 
  11   1.0000      -0.249862        -6.7991 
  12   0.0000      -0.102802        -2.7974 
  13   0.0000      -0.025561        -0.6955 
  14   0.0000      -0.001406        -0.0383 
  15   0.0000       0.006090         0.1657 
  16   0.0000       0.010960         0.2982 
  17   0.0000       0.014742         0.4012 
  18   0.0000       0.031022         0.8442 
  19   0.0000       0.032077         0.8729 
  20   0.0000       0.036457         0.9920 
  21   0.0000       0.038620         1.0509 
  22   0.0000       0.046122         1.2551 
  23   0.0000       0.048983         1.3329 
  24   0.0000       0.052508         1.4288 
  25   0.0000       0.055820         1.5189 
  26   0.0000       0.058349         1.5878 
  27   0.0000       0.061403         1.6709 
  28   0.0000       0.076058         2.0696 
  29   0.0000       0.084293         2.2937 
  30   0.0000       0.088683         2.4132 
  31   0.0000       0.096448         2.6245 
  32   0.0000       0.104096         2.8326 
  33   0.0000       0.104459         2.8425 
  34   0.0000       0.105673         2.8755 
  35   0.0000       0.108998         2.9660 
  36   0.0000       0.115565         3.1447 
  37   0.0000       0.122675         3.3382 
  38   0.0000       0.123749         3.3674 
  39   0.0000       0.129312         3.5188 
  40   0.0000       0.137013         3.7283 
  41   0.0000       0.139351         3.7919 
  42   0.0000       0.143317         3.8999 
  43   0.0000       0.144874         3.9422 
  44   0.0000       0.150581         4.0975 
  45   0.0000       0.154812         4.2127 
  46   0.0000       0.164686         4.4813 
  47   0.0000       0.168024         4.5722 
  48   0.0000       0.169903         4.6233 
  49   0.0000       0.178059         4.8452 
  50   0.0000       0.182374         4.9627 
  51   0.0000       0.186154         5.0655 
  52   0.0000       0.199272         5.4225 
  53   0.0000       0.204784         5.5725 
  54   0.0000       0.206866         5.6291 
  55   0.0000       0.218220         5.9381 
  56   0.0000       0.218246         5.9388 
  57   0.0000       0.219878         5.9832 
  58   0.0000       0.221756         6.0343 
  59   0.0000       0.223649         6.0858 
  60   0.0000       0.227685         6.1956 
  61   0.0000       0.235235         6.4011 
  62   0.0000       0.248796         6.7701 
  63   0.0000       0.256222         6.9722 
  64   0.0000       0.260353         7.0846 
  65   0.0000       0.268641         7.3101 
  66   0.0000       0.271970         7.4007 
  67   0.0000       0.272334         7.4106 
  68   0.0000       0.278415         7.5761 
  69   0.0000       0.279771         7.6130 
  70   0.0000       0.281839         7.6692 
  71   0.0000       0.286064         7.7842 
  72   0.0000       0.287006         7.8098 
  73   0.0000       0.294588         8.0161 
  74   0.0000       0.295194         8.0326 
  75   0.0000       0.306844         8.3497 
  76   0.0000       0.311705         8.4819 
  77   0.0000       0.317961         8.6522 
  78   0.0000       0.319242         8.6870 
  79   0.0000       0.321168         8.7394 
  80   0.0000       0.324743         8.8367 
  81   0.0000       0.325030         8.8445 
  82   0.0000       0.331461         9.0195 
  83   0.0000       0.332985         9.0610 
  84   0.0000       0.336742         9.1632 
  85   0.0000       0.345398         9.3987 
  86   0.0000       0.354821         9.6552 
  87   0.0000       0.377609        10.2753 
  88   0.0000       0.382824        10.4172 
  89   0.0000       0.384026        10.4499 
  90   0.0000       0.384194        10.4545 
  91   0.0000       0.389760        10.6059 
  92   0.0000       0.395870        10.7722 
  93   0.0000       0.417820        11.3694 
  94   0.0000       0.421644        11.4735 
  95   0.0000       0.427097        11.6219 
  96   0.0000       0.430716        11.7204 
  97   0.0000       0.436347        11.8736 
  98   0.0000       0.437723        11.9110 
  99   0.0000       0.438682        11.9372 
 100   0.0000       0.441240        12.0068 
 101   0.0000       0.451564        12.2877 
 102   0.0000       0.452274        12.3070 
 103   0.0000       0.461034        12.5454 
 104   0.0000       0.462891        12.5959 
 105   0.0000       0.466141        12.6843 
 106   0.0000       0.471486        12.8298 
 107   0.0000       0.477710        12.9991 
 108   0.0000       0.479987        13.0611 
 109   0.0000       0.480715        13.0809 
 110   0.0000       0.486646        13.2423 
 111   0.0000       0.488484        13.2923 
 112   0.0000       0.490055        13.3351 
 113   0.0000       0.502814        13.6823 
 114   0.0000       0.504327        13.7234 
 115   0.0000       0.508016        13.8238 
 116   0.0000       0.517242        14.0749 
 117   0.0000       0.523502        14.2452 
 118   0.0000       0.525685        14.3046 
 119   0.0000       0.531393        14.4599 
 120   0.0000       0.542765        14.7694 
 121   0.0000       0.543056        14.7773 
 122   0.0000       0.549205        14.9446 
 123   0.0000       0.553443        15.0600 
 124   0.0000       0.556406        15.1406 
 125   0.0000       0.557882        15.1808 
 126   0.0000       0.571326        15.5466 
 127   0.0000       0.572553        15.5800 
 128   0.0000       0.574230        15.6256 
 129   0.0000       0.575314        15.6551 
 130   0.0000       0.582816        15.8592 
 131   0.0000       0.590490        16.0681 
 132   0.0000       0.595320        16.1995 
 133   0.0000       0.602161        16.3856 
 134   0.0000       0.606965        16.5163 
 135   0.0000       0.608924        16.5697 
 136   0.0000       0.623807        16.9746 
 137   0.0000       0.628115        17.0919 
 138   0.0000       0.634272        17.2594 
 139   0.0000       0.640692        17.4341 
 140   0.0000       0.643749        17.5173 
 141   0.0000       0.654477        17.8092 
 142   0.0000       0.663275        18.0486 
 143   0.0000       0.665877        18.1194 
 144   0.0000       0.674081        18.3427 
 145   0.0000       0.677886        18.4462 
 146   0.0000       0.685628        18.6569 
 147   0.0000       0.698862        19.0170 
 148   0.0000       0.698989        19.0205 
 149   0.0000       0.704099        19.1595 
 150   0.0000       0.715657        19.4740 
 151   0.0000       0.717337        19.5197 
 152   0.0000       0.725063        19.7300 
 153   0.0000       0.729667        19.8552 
 154   0.0000       0.744217        20.2512 
 155   0.0000       0.748318        20.3628 
 156   0.0000       0.753642        20.5076 
 157   0.0000       0.760023        20.6813 
 158   0.0000       0.770023        20.9534 
 159   0.0000       0.778439        21.1824 
 160   0.0000       0.781790        21.2736 
 161   0.0000       0.786801        21.4100 
 162   0.0000       0.787606        21.4319 
 163   0.0000       0.796516        21.6743 
 164   0.0000       0.802788        21.8450 
 165   0.0000       0.803602        21.8671 
 166   0.0000       0.810691        22.0600 
 167   0.0000       0.810860        22.0646 
 168   0.0000       0.824511        22.4361 
 169   0.0000       0.828374        22.5412 
 170   0.0000       0.833548        22.6820 
 171   0.0000       0.838159        22.8075 
 172   0.0000       0.839154        22.8345 
 173   0.0000       0.840198        22.8630 
 174   0.0000       0.848823        23.0977 
 175   0.0000       0.859716        23.3941 
 176   0.0000       0.865106        23.5407 
 177   0.0000       0.866573        23.5807 
 178   0.0000       0.871187        23.7062 
 179   0.0000       0.873390        23.7661 
 180   0.0000       0.875526        23.8243 
 181   0.0000       0.879462        23.9314 
 182   0.0000       0.893399        24.3106 
 183   0.0000       0.894633        24.3442 
 184   0.0000       0.895089        24.3566 
 185   0.0000       0.904798        24.6208 
 186   0.0000       0.909399        24.7460 
 187   0.0000       0.912431        24.8285 
 188   0.0000       0.916999        24.9528 
 189   0.0000       0.917576        24.9685 
 190   0.0000       0.919502        25.0209 
 191   0.0000       0.924237        25.1498 
 192   0.0000       0.931553        25.3489 
 193   0.0000       0.932011        25.3613 
 194   0.0000       0.940076        25.5808 
 195   0.0000       0.959129        26.0992 
 196   0.0000       0.963541        26.2193 
 197   0.0000       0.968184        26.3456 
 198   0.0000       0.987812        26.8797 
 199   0.0000       0.992740        27.0138 
 200   0.0000       1.017678        27.6924 
 201   0.0000       1.019517        27.7425 
 202   0.0000       1.022883        27.8341 
 203   0.0000       1.039605        28.2891 
 204   0.0000       1.078274        29.3413 
 205   0.0000       1.082671        29.4610 
 206   0.0000       1.098758        29.8987 
 207   0.0000       1.104479        30.0544 
 208   0.0000       1.114013        30.3138 
 209   0.0000       1.122683        30.5498 
 210   0.0000       1.156921        31.4814 
 211   0.0000       1.220284        33.2056 
 212   0.0000       1.232089        33.5268 
 213   0.0000       1.241839        33.7922 
 214   0.0000       1.252060        34.0703 
 215   0.0000       1.265835        34.4451 
 216   0.0000       1.296030        35.2668 
 217   0.0000       1.308908        35.6172 
 218   0.0000       1.320147        35.9230 
 219   0.0000       1.340173        36.4680 
 220   0.0000       1.367986        37.2248 
 221   0.0000       1.370608        37.2961 
 222   0.0000       1.381132        37.5825 
 223   0.0000       1.396898        38.0115 
 224   0.0000       1.419089        38.6154 
 225   0.0000       1.466821        39.9142 
 226   0.0000       1.468985        39.9731 
 227   0.0000       1.476735        40.1840 
 228   0.0000       1.508602        41.0512 
 229   0.0000       1.531469        41.6734 
 230   0.0000       1.532263        41.6950 
 231   0.0000       1.540999        41.9327 
 232   0.0000       1.557608        42.3847 
 233   0.0000       1.580004        42.9941 
 234   0.0000       1.585630        43.1472 
 235   0.0000       1.591770        43.3143 
 236   0.0000       1.595585        43.4181 
 237   0.0000       1.608176        43.7607 
 238   0.0000       1.626562        44.2610 
 239   0.0000       1.667067        45.3632 
 240   0.0000       1.700546        46.2742 
 241   0.0000       1.707434        46.4617 
 242   0.0000       1.710807        46.5534 
 243   0.0000       1.732053        47.1316 
 244   0.0000       1.746575        47.5267 
 245   0.0000       1.757731        47.8303 
 246   0.0000       1.781299        48.4716 
 247   0.0000       1.786215        48.6054 
 248   0.0000       1.815009        49.3889 
 249   0.0000       1.859133        50.5896 
 250   0.0000       2.013708        54.7958 
 251   0.0000       2.015770        54.8519 
 252   0.0000       2.044165        55.6246 
 253   0.0000       2.086968        56.7893 
 254   0.0000       2.113314        57.5062 
 255   0.0000       2.148712        58.4694 
 256   0.0000       2.164088        58.8878 
 257   0.0000       2.168571        59.0098 
 258   0.0000       2.227170        60.6044 
 259   0.0000       2.277020        61.9609 
 260   0.0000       2.278239        61.9940 
 261   0.0000       2.287795        62.2541 
 262   0.0000       2.326725        63.3134 
 263   0.0000       2.330242        63.4091 
 264   0.0000       2.344305        63.7918 
 265   0.0000       2.374117        64.6030 
 266   0.0000       2.381884        64.8144 
 267   0.0000       2.456449        66.8434 
 268   0.0000       2.534775        68.9747 
 269   0.0000       2.567426        69.8632 
 270   0.0000       2.638073        71.7856 
 271   0.0000       2.651410        72.1485 
 272   0.0000       2.656282        72.2811 
 273   0.0000       2.690781        73.2199 
 274   0.0000       2.702315        73.5337 
 275   0.0000       2.749838        74.8269 
 276   0.0000       2.775293        75.5196 
 277   0.0000       2.785664        75.8018 
 278   0.0000       2.872982        78.1778 
 279   0.0000       2.943136        80.0868 
 280   0.0000       2.953149        80.3593 
 281   0.0000       2.972774        80.8933 
 282   0.0000       2.992289        81.4243 
 283   0.0000       3.001829        81.6839 
 284   0.0000       3.037268        82.6483 
 285   0.0000       3.037821        82.6633 
 286   0.0000       3.093036        84.1658 
 287   0.0000       3.105556        84.5065 
 288   0.0000       3.132561        85.2413 
 289   0.0000       3.142341        85.5074 
 290   0.0000       3.173892        86.3660 
 291   0.0000       3.201620        87.1205 
 292   0.0000       3.220727        87.6404 
 293   0.0000       3.225683        87.7753 
 294   0.0000       3.284277        89.3697 
 295   0.0000       3.350937        91.1836 
 296   0.0000       3.400850        92.5418 
 297   0.0000       3.426768        93.2471 
 298   0.0000       3.461606        94.1951 
 299   0.0000       3.462859        94.2292 
 300   0.0000       3.507156        95.4346 
 301   0.0000       3.507533        95.4448 
 302   0.0000       3.539007        96.3013 
 303   0.0000       3.545235        96.4707 
 304   0.0000       3.588150        97.6385 
 305   0.0000       3.599449        97.9460 
 306   0.0000       3.627023        98.6963 
 307   0.0000       3.653659        99.4211 
 308   0.0000       3.674634        99.9919 
 309   0.0000       3.727145       101.4208 
 310   0.0000       3.736963       101.6879 
 311   0.0000       3.767824       102.5277 
 312   0.0000       3.777550       102.7924 
 313   0.0000       3.806068       103.5684 
 314   0.0000       3.817652       103.8836 
 315   0.0000       3.859918       105.0337 
 316   0.0000       3.913267       106.4854 
 317   0.0000       3.999672       108.8366 
 318   0.0000       4.013163       109.2037 
 319   0.0000       4.038834       109.9023 
 320   0.0000       4.076224       110.9197 
 321   0.0000       4.079541       111.0100 
 322   0.0000       4.122086       112.1677 
 323   0.0000       4.166645       113.3802 
 324   0.0000       4.271846       116.2428 
 325   0.0000       4.290488       116.7501 
 326   0.0000       4.341555       118.1397 
 327   0.0000       4.397580       119.6642 
 328   0.0000       4.445065       120.9564 
 329   0.0000       4.484621       122.0328 
 330   0.0000       4.485969       122.0694 
 331   0.0000       4.503568       122.5483 
 332   0.0000       4.553844       123.9164 
 333   0.0000       4.633682       126.0889 
 334   0.0000       4.654819       126.6641 
 335   0.0000       4.668506       127.0365 
 336   0.0000       4.696178       127.7895 
 337   0.0000       4.745925       129.1432 
 338   0.0000       4.806228       130.7841 
 339   0.0000       4.857575       132.1813 
 340   0.0000       4.925791       134.0376 
 341   0.0000       4.941525       134.4657 
 342   0.0000       4.952369       134.7608 
 343   0.0000       4.967096       135.1616 
 344   0.0000       5.018164       136.5512 
 345   0.0000       5.146525       140.0441 
 346   0.0000       5.195512       141.3771 
 347   0.0000       5.208253       141.7238 
 348   0.0000       5.236907       142.5035 
 349   0.0000       5.283145       143.7617 
 350   0.0000       5.320104       144.7674 
 351   0.0000       5.363463       145.9472 
 352   0.0000       5.375740       146.2813 
 353   0.0000       5.442588       148.1003 
 354   0.0000       5.466266       148.7447 
 355   0.0000       5.480791       149.1399 
 356   0.0000       5.521851       150.2572 
 357   0.0000       5.542595       150.8217 
 358   0.0000       5.574296       151.6843 
 359   0.0000       5.619225       152.9069 
 360   0.0000       5.656427       153.9192 
 361   0.0000       5.695297       154.9769 
 362   0.0000       5.712987       155.4583 
 363   0.0000       5.769884       157.0065 
 364   0.0000       5.869236       159.7100 
 365   0.0000       5.948734       161.8733 
 366   0.0000       6.102761       166.0646 
 367   0.0000       6.123715       166.6348 
 368   0.0000       6.167436       167.8245 
 369   0.0000       6.278267       170.8403 
 370   0.0000       6.354290       172.9090 
 371   0.0000       6.407725       174.3631 
 372   0.0000       6.424578       174.8216 
 373   0.0000       6.466261       175.9559 
 374   0.0000       6.522073       177.4746 
 375   0.0000       6.685292       181.9161 
 376   0.0000       6.761326       183.9850 
 377   0.0000       6.787642       184.7011 
 378   0.0000       6.828404       185.8103 
 379   0.0000       6.929687       188.5664 
 380   0.0000       7.106188       193.3692 
 381   0.0000       7.240974       197.0369 
 382   0.0000       7.506091       204.2511 
 383   0.0000       7.535995       205.0649 
 384   0.0000       7.565612       205.8708 
 385   0.0000       7.585315       206.4069 
 386   0.0000       7.641545       207.9370 
 387   0.0000       7.717075       209.9923 
 388   0.0000       7.757781       211.1000 
 389   0.0000       7.801990       212.3029 
 390   0.0000       7.805263       212.3920 
 391   0.0000       8.101328       220.4483 
 392   0.0000       8.133486       221.3234 
 393   0.0000       8.454270       230.0524 
 394   0.0000       8.490623       231.0416 
 395   0.0000       8.506484       231.4732 
 396   0.0000       8.548157       232.6072 
 397   0.0000       8.646847       235.2927 
 398   0.0000       8.822028       240.0596 
 399   0.0000       8.874072       241.4758 
 400   0.0000       8.926338       242.8980 
 401   0.0000       8.971158       244.1176 
 402   0.0000       8.973456       244.1802 
 403   0.0000       9.022904       245.5257 
 404   0.0000       9.058165       246.4852 
 405   0.0000       9.071129       246.8380 
 406   0.0000       9.134540       248.5635 
 407   0.0000       9.182882       249.8789 
 408   0.0000       9.235113       251.3002 
 409   0.0000       9.265770       252.1344 
 410   0.0000       9.277390       252.4506 
 411   0.0000       9.407408       255.9886 
 412   0.0000       9.483590       258.0616 
 413   0.0000       9.668184       263.0847 
 414   0.0000       9.784413       266.2474 
 415   0.0000       9.868833       268.5446 
 416   0.0000      10.368885       282.1517 
 417   0.0000      10.382676       282.5270 
 418   0.0000      10.534981       286.6714 
 419   0.0000      10.598745       288.4065 
 420   0.0000      10.677470       290.5487 
 421   0.0000      10.726760       291.8900 
 422   0.0000      10.731588       292.0214 
 423   0.0000      10.748284       292.4757 
 424   0.0000      10.765908       292.9552 
 425   0.0000      10.881711       296.1064 
 426   0.0000      10.884670       296.1869 
 427   0.0000      10.912284       296.9383 
 428   0.0000      10.947669       297.9012 
 429   0.0000      11.041157       300.4452 
 430   0.0000      11.069086       301.2052 
 431   0.0000      11.141924       303.1872 
 432   0.0000      11.153474       303.5015 
 433   0.0000      11.218171       305.2619 
 434   0.0000      11.481350       312.4234 
 435   0.0000      11.551045       314.3199 
 436   0.0000      11.633153       316.5542 
 437   0.0000      11.649519       316.9995 
 438   0.0000      11.688485       318.0598 
 439   0.0000      11.717544       318.8506 
 440   0.0000      11.811475       321.4066 
 441   0.0000      11.841625       322.2270 
 442   0.0000      11.849464       322.4403 
 443   0.0000      11.941540       324.9458 
 444   0.0000      12.116802       329.7149 
 445   0.0000      12.324610       335.3697 
 446   0.0000      12.331168       335.5481 
 447   0.0000      12.361339       336.3691 
 448   0.0000      12.385439       337.0249 
 449   0.0000      12.428667       338.2012 
 450   0.0000      12.439224       338.4885 
 451   0.0000      12.457986       338.9990 
 452   0.0000      12.492729       339.9444 
 453   0.0000      12.542407       341.2962 
 454   0.0000      12.602767       342.9387 
 455   0.0000      12.707315       345.7836 
 456   0.0000      12.721522       346.1702 
 457   0.0000      12.764184       347.3311 
 458   0.0000      12.811480       348.6181 
 459   0.0000      12.942893       352.1940 
 460   0.0000      12.944307       352.2325 
 461   0.0000      13.056992       355.2988 
 462   0.0000      13.076653       355.8338 
 463   0.0000      13.143381       357.6496 
 464   0.0000      13.219290       359.7152 
 465   0.0000      13.312143       362.2418 
 466   0.0000      13.318351       362.4108 
 467   0.0000      13.495357       367.2273 
 468   0.0000      13.504619       367.4794 
 469   0.0000      13.598774       370.0415 
 470   0.0000      13.629052       370.8653 
 471   0.0000      13.704639       372.9222 
 472   0.0000      14.007652       381.1676 
 473   0.0000      14.262458       388.1012 
 474   0.0000      14.360629       390.7726 
 475   0.0000      14.964806       407.2131 
 476   0.0000      15.148356       412.2077 
 477   0.0000      15.377553       418.4445 
 478   0.0000      15.688794       426.9138 
 479   0.0000      16.168369       439.9637 
 480   0.0000      16.174555       440.1320 
 481   0.0000      16.266115       442.6235 
 482   0.0000      16.401297       446.3020 
 483   0.0000      16.524222       449.6470 
 484   0.0000      16.727221       455.1708 
 485   0.0000      16.728222       455.1981 
 486   0.0000      16.730350       455.2560 
 487   0.0000      16.734465       455.3679 
 488   0.0000      16.747157       455.7133 
 489   0.0000      16.748347       455.7457 
 490   0.0000      16.770962       456.3611 
 491   0.0000      16.774241       456.4503 
 492   0.0000      16.785977       456.7697 
 493   0.0000      16.925389       460.5632 
 494   0.0000      17.022294       463.2002 
 495   0.0000      17.066244       464.3961 
 496   0.0000      17.125169       465.9995 
 497   0.0000      17.229494       468.8384 
 498   0.0000      17.229838       468.8477 
 499   0.0000      17.268876       469.9100 
 500   0.0000      17.521403       476.7816 
 501   0.0000      17.765041       483.4114 
 502   0.0000      17.873384       486.3595 
 503   0.0000      18.072445       491.7762 
 504   0.0000      18.366837       499.7870 
 505   0.0000      18.573805       505.4189 
 506   0.0000      18.628495       506.9071 
 507   0.0000      18.668229       507.9883 
 508   0.0000      18.994597       516.8692 
 509   0.0000      19.887329       541.1617 
 510   0.0000      20.034246       545.1595 
 511   0.0000      20.189102       549.3734 
 512   0.0000      20.199316       549.6513 
 513   0.0000      20.347054       553.6715 
 514   0.0000      20.488271       557.5142 
 515   0.0000      21.278447       579.0160 
 516   0.0000      21.366407       581.4095 
 517   0.0000      23.316309       634.4690 
 518   0.0000      23.453777       638.2097 
 519   0.0000      23.494499       639.3178 
 520   0.0000      23.553501       640.9234 
 521   0.0000      23.631107       643.0351 
 522   0.0000      23.878496       649.7669 
 523   0.0000      23.968544       652.2172 
 524   0.0000      25.433175       692.0719 
 525   0.0000      25.690593       699.0766 
 526   0.0000      25.949585       706.1241 
 527   0.0000      32.186971       875.8520 
 528   0.0000      32.297999       878.8732 
 529   0.0000      32.788727       892.2266 
 530   0.0000      33.507889       911.7960 
 531   0.0000      33.824958       920.4239 
 532   0.0000      39.804522      1083.1361 
 533   0.0000      41.088949      1118.0871 
 534   0.0000      41.156715      1119.9312 
 535   0.0000      59.000405      1605.4826 
 536   0.0000      59.022118      1606.0735 
 537   0.0000      59.190873      1610.6655 
 538   0.0000      59.321447      1614.2186 
 539   0.0000      59.805257      1627.3838 
 540   0.0000      75.422103      2052.3398 
 541   0.0000      90.936936      2474.5198 
 542   0.0000      91.038319      2477.2786 
 543   0.0000      91.047271      2477.5222 
 544   0.0000      91.089746      2478.6780 
 545   0.0000      91.140660      2480.0634 
 546   0.0000      91.358383      2485.9880 
 547   0.0000      91.503101      2489.9260 
 548   0.0000      92.355104      2513.1101 
 549   0.0000      92.486471      2516.6848 

                    ********************************
                    * MULLIKEN POPULATION ANALYSIS *
                    ********************************

--------------------------------------------
MULLIKEN ATOMIC CHARGES AND SPIN POPULATIONS
--------------------------------------------
   0 P :   -0.262100   -0.000000
   1 H :    0.116932    0.000000
   2 C :   -0.056284    0.000000
   3 H :    0.051295   -0.000000
   4 H :    0.150157   -0.000000
Sum of atomic charges         :   -0.0000000
Sum of atomic spin populations:   -0.0000000

-----------------------------------------------------
MULLIKEN REDUCED ORBITAL CHARGES AND SPIN POPULATIONS
-----------------------------------------------------
CHARGE
  0 P s       :     5.857410  s :     5.857410
      pz      :     3.082214  p :     9.214746
      px      :     3.054721
      py      :     3.077811
      dz2     :     0.060799  d :     0.175830
      dxz     :     0.033067
      dyz     :    -0.000222
      dx2y2   :     0.037630
      dxy     :     0.044556
      f0      :     0.003427  f :     0.012974
      f+1     :     0.000911
      f-1     :    -0.000260
      f+2     :     0.001496
      f-2     :     0.000262
      f+3     :     0.003122
      f-3     :     0.004017
      g0      :     0.000034  g :     0.001170
      g+1     :    -0.000101
      g-1     :    -0.000012
      g+2     :    -0.000065
      g-2     :    -0.000378
      g+3     :    -0.000368
      g-3     :     0.000338
      g+4     :     0.000371
      g-4     :     0.001351
      h0      :     0.000052  h :    -0.000030
      h+1     :    -0.000171
      h-1     :     0.000014
      h+2     :    -0.000049
      h-2     :    -0.000007
      h+3     :    -0.000062
      h-3     :    -0.000046
      h+4     :    -0.000058
      h-4     :     0.000069
      h+5     :     0.000049
      h-5     :     0.000178
  1 H s       :     0.961789  s :     0.961789
      pz      :    -0.014710  p :    -0.018064
      px      :     0.005241
      py      :    -0.008596
      dz2     :    -0.011251  d :    -0.040659
      dxz     :    -0.008157
      dyz     :    -0.020264
      dx2y2   :    -0.001106
      dxy     :     0.000119
      f0      :    -0.003529  f :    -0.017560
      f+1     :    -0.004267
      f-1     :    -0.006910
      f+2     :    -0.000876
      f-2     :    -0.002892
      f+3     :    -0.001034
      f-3     :     0.001949
      g0      :    -0.000537  g :    -0.002437
      g+1     :    -0.000404
      g-1     :    -0.000587
      g+2     :    -0.000380
      g-2     :    -0.000669
      g+3     :    -0.000138
      g-3     :     0.000020
      g+4     :    -0.000082
      g-4     :     0.000340
  2 C s       :     3.199806  s :     3.199806
      pz      :     1.014833  p :     2.797653
      px      :     0.924208
      py      :     0.858612
      dz2     :     0.021484  d :     0.053743
      dxz     :     0.011896
      dyz     :    -0.000120
      dx2y2   :     0.013637
      dxy     :     0.006847
      f0      :    -0.002367  f :     0.011330
      f+1     :     0.010859
      f-1     :     0.000759
      f+2     :     0.004260
      f-2     :    -0.001137
      f+3     :    -0.001320
      f-3     :     0.000274
      g0      :    -0.000237  g :    -0.005391
      g+1     :    -0.000394
      g-1     :    -0.000063
      g+2     :     0.000408
      g-2     :    -0.000590
      g+3     :    -0.001011
      g-3     :    -0.000690
      g+4     :     0.000512
      g-4     :    -0.003326
      h0      :     0.000022  h :    -0.000857
      h+1     :     0.000020
      h-1     :     0.000005
      h+2     :     0.000008
      h-2     :    -0.000038
      h+3     :    -0.000100
      h-3     :    -0.000088
      h+4     :    -0.000129
      h-4     :    -0.000062
      h+5     :     0.000071
      h-5     :    -0.000567
  3 H s       :     0.806025  s :     0.806025
      pz      :     0.027265  p :     0.104192
      px      :     0.025581
      py      :     0.051346
      dz2     :     0.005939  d :     0.024461
      dxz     :     0.002294
      dyz     :     0.006184
      dx2y2   :    -0.000256
      dxy     :     0.010299
      f0      :     0.002961  f :     0.012246
      f+1     :     0.003451
      f-1     :    -0.000080
      f+2     :     0.002032
      f-2     :     0.007194
      f+3     :    -0.000379
      f-3     :    -0.002933
      g0      :     0.000220  g :     0.001781
      g+1     :     0.000515
      g-1     :     0.000048
      g+2     :     0.000171
      g-2     :    -0.000001
      g+3     :     0.000572
      g-3     :     0.001454
      g+4     :    -0.000029
      g-4     :    -0.001168
  4 H s       :     0.830833  s :     0.830833
      pz      :     0.003063  p :     0.044897
      px      :     0.029183
      py      :     0.012651
      dz2     :    -0.002075  d :    -0.020413
      dxz     :     0.005547
      dyz     :    -0.007675
      dx2y2   :    -0.000100
      dxy     :    -0.016109
      f0      :     0.000498  f :    -0.005113
      f+1     :     0.001896
      f-1     :    -0.000753
      f+2     :     0.001152
      f-2     :    -0.000910
      f+3     :     0.001150
      f-3     :    -0.008146
      g0      :     0.000085  g :    -0.000362
      g+1     :     0.000153
      g-1     :    -0.000028
      g+2     :     0.000416
      g-2     :     0.000196
      g+3     :     0.000295
      g-3     :    -0.000615
      g+4     :     0.000092
      g-4     :    -0.000954

SPIN
  0 P s       :    -0.000000  s :    -0.000000
      pz      :    -0.000000  p :    -0.000000
      px      :     0.000000
      py      :    -0.000000
      dz2     :     0.000000  d :     0.000000
      dxz     :    -0.000000
      dyz     :    -0.000000
      dx2y2   :     0.000000
      dxy     :    -0.000000
      f0      :    -0.000000  f :     0.000000
      f+1     :     0.000000
      f-1     :    -0.000000
      f+2     :     0.000000
      f-2     :    -0.000000
      f+3     :     0.000000
      f-3     :    -0.000000
      g0      :     0.000000  g :     0.000000
      g+1     :     0.000000
      g-1     :     0.000000
      g+2     :     0.000000
      g-2     :    -0.000000
      g+3     :     0.000000
      g-3     :     0.000000
      g+4     :     0.000000
      g-4     :     0.000000
      h0      :     0.000000  h :     0.000000
      h+1     :     0.000000
      h-1     :     0.000000
      h+2     :     0.000000
      h-2     :     0.000000
      h+3     :     0.000000
      h-3     :     0.000000
      h+4     :     0.000000
      h-4     :    -0.000000
      h+5     :     0.000000
      h-5     :    -0.000000
  1 H s       :     0.000000  s :     0.000000
      pz      :    -0.000000  p :    -0.000000
      px      :    -0.000000
      py      :    -0.000000
      dz2     :    -0.000000  d :    -0.000000
      dxz     :     0.000000
      dyz     :     0.000000
      dx2y2   :    -0.000000
      dxy     :     0.000000
      f0      :    -0.000000  f :    -0.000000
      f+1     :    -0.000000
      f-1     :    -0.000000
      f+2     :     0.000000
      f-2     :     0.000000
      f+3     :     0.000000
      f-3     :     0.000000
      g0      :    -0.000000  g :     0.000000
      g+1     :    -0.000000
      g-1     :    -0.000000
      g+2     :     0.000000
      g-2     :     0.000000
      g+3     :     0.000000
      g-3     :     0.000000
      g+4     :     0.000000
      g-4     :    -0.000000
  2 C s       :     0.000000  s :     0.000000
      pz      :    -0.000000  p :     0.000000
      px      :     0.000000
      py      :     0.000000
      dz2     :     0.000000  d :     0.000000
      dxz     :    -0.000000
      dyz     :    -0.000000
      dx2y2   :     0.000000
      dxy     :     0.000000
      f0      :    -0.000000  f :    -0.000000
      f+1     :    -0.000000
      f-1     :     0.000000
      f+2     :    -0.000000
      f-2     :     0.000000
      f+3     :    -0.000000
      f-3     :     0.000000
      g0      :    -0.000000  g :    -0.000000
      g+1     :     0.000000
      g-1     :    -0.000000
      g+2     :    -0.000000
      g-2     :     0.000000
      g+3     :     0.000000
      g-3     :     0.000000
      g+4     :     0.000000
      g-4     :     0.000000
      h0      :    -0.000000  h :     0.000000
      h+1     :    -0.000000
      h-1     :    -0.000000
      h+2     :    -0.000000
      h-2     :    -0.000000
      h+3     :     0.000000
      h-3     :     0.000000
      h+4     :    -0.000000
      h-4     :    -0.000000
      h+5     :     0.000000
      h-5     :     0.000000
  3 H s       :     0.000000  s :     0.000000
      pz      :    -0.000000  p :    -0.000000
      px      :    -0.000000
      py      :     0.000000
      dz2     :    -0.000000  d :    -0.000000
      dxz     :     0.000000
      dyz     :    -0.000000
      dx2y2   :    -0.000000
      dxy     :    -0.000000
      f0      :     0.000000  f :    -0.000000
      f+1     :    -0.000000
      f-1     :    -0.000000
      f+2     :    -0.000000
      f-2     :    -0.000000
      f+3     :    -0.000000
      f-3     :    -0.000000
      g0      :     0.000000  g :    -0.000000
      g+1     :    -0.000000
      g-1     :     0.000000
      g+2     :    -0.000000
      g-2     :    -0.000000
      g+3     :    -0.000000
      g-3     :    -0.000000
      g+4     :    -0.000000
      g-4     :    -0.000000
  4 H s       :    -0.000000  s :    -0.000000
      pz      :    -0.000000  p :     0.000000
      px      :     0.000000
      py      :    -0.000000
      dz2     :    -0.000000  d :    -0.000000
      dxz     :     0.000000
      dyz     :    -0.000000
      dx2y2   :     0.000000
      dxy     :     0.000000
      f0      :    -0.000000  f :    -0.000000
      f+1     :    -0.000000
      f-1     :     0.000000
      f+2     :     0.000000
      f-2     :    -0.000000
      f+3     :    -0.000000
      f-3     :     0.000000
      g0      :    -0.000000  g :    -0.000000
      g+1     :    -0.000000
      g-1     :     0.000000
      g+2     :    -0.000000
      g-2     :    -0.000000
      g+3     :     0.000000
      g-3     :    -0.000000
      g+4     :    -0.000000
      g-4     :     0.000000


                     *******************************
                     * LOEWDIN POPULATION ANALYSIS *
                     *******************************

-------------------------------------------
LOEWDIN ATOMIC CHARGES AND SPIN POPULATIONS
-------------------------------------------
   0 P :    1.714756    0.000000
   1 H :   -0.708412    0.000000
   2 C :    0.317854   -0.000000
   3 H :   -0.658702   -0.000000
   4 H :   -0.665495    0.000000

----------------------------------------------------
LOEWDIN REDUCED ORBITAL CHARGES AND SPIN POPULATIONS
----------------------------------------------------
CHARGE
  0 P s       :     4.673008  s :     4.673008
      pz      :     2.703187  p :     8.053343
      px      :     2.805481
      py      :     2.544675
      dz2     :     0.117815  d :     0.334074
      dxz     :     0.082816
      dyz     :     0.001076
      dx2y2   :     0.089499
      dxy     :     0.042867
      f0      :     0.038634  f :     0.136745
      f+1     :     0.019217
      f-1     :     0.002278
      f+2     :     0.033003
      f-2     :     0.000849
      f+3     :     0.026706
      f-3     :     0.016057
      g0      :     0.005494  g :     0.060864
      g+1     :     0.012104
      g-1     :     0.000033
      g+2     :     0.007391
      g-2     :     0.000740
      g+3     :     0.014869
      g-3     :     0.000557
      g+4     :     0.012457
      g-4     :     0.007219
      h0      :     0.001867  h :     0.027210
      h+1     :     0.002899
      h-1     :     0.000082
      h+2     :     0.004152
      h-2     :     0.000087
      h+3     :     0.002697
      h-3     :     0.000421
      h+4     :     0.006503
      h-4     :     0.000297
      h+5     :     0.005587
      h-5     :     0.002617
  1 H s       :     0.778436  s :     0.778436
      pz      :     0.202017  p :     0.361929
      px      :     0.087592
      py      :     0.072320
      dz2     :     0.098559  d :     0.296615
      dxz     :     0.105211
      dyz     :     0.068752
      dx2y2   :     0.017907
      dxy     :     0.006186
      f0      :     0.041318  f :     0.171689
      f+1     :     0.061882
      f-1     :     0.026781
      f+2     :     0.019406
      f-2     :     0.008404
      f+3     :     0.010953
      f-3     :     0.002944
      g0      :     0.013857  g :     0.099743
      g+1     :     0.039451
      g-1     :     0.007472
      g+2     :     0.011869
      g-2     :     0.004757
      g+3     :     0.011738
      g-3     :     0.004821
      g+4     :     0.004743
      g-4     :     0.001035
  2 C s       :     2.575881  s :     2.575881
      pz      :     0.870191  p :     2.416702
      px      :     0.945667
      py      :     0.600844
      dz2     :     0.097459  d :     0.467430
      dxz     :     0.188434
      dyz     :     0.001303
      dx2y2   :     0.116762
      dxy     :     0.063473
      f0      :     0.012590  f :     0.136731
      f+1     :     0.041604
      f-1     :     0.002127
      f+2     :     0.031888
      f-2     :     0.001220
      f+3     :     0.028669
      f-3     :     0.018633
      g0      :     0.008617  g :     0.058060
      g+1     :     0.002734
      g-1     :     0.000163
      g+2     :     0.017235
      g-2     :     0.000895
      g+3     :     0.011986
      g-3     :     0.000627
      g+4     :     0.009283
      g-4     :     0.006520
      h0      :     0.000580  h :     0.027343
      h+1     :     0.004384
      h-1     :     0.000050
      h+2     :     0.000643
      h-2     :     0.000095
      h+3     :     0.007576
      h-3     :     0.000297
      h+4     :     0.004415
      h-4     :     0.000342
      h+5     :     0.004343
      h-5     :     0.004616
  3 H s       :     0.680347  s :     0.680347
      pz      :     0.133344  p :     0.371891
      px      :     0.147109
      py      :     0.091439
      dz2     :     0.091361  d :     0.316233
      dxz     :     0.078015
      dyz     :     0.029707
      dx2y2   :     0.063331
      dxy     :     0.053819
      f0      :     0.044551  f :     0.185848
      f+1     :     0.029751
      f-1     :     0.001010
      f+2     :     0.042753
      f-2     :     0.014294
      f+3     :     0.029070
      f-3     :     0.024420
      g0      :     0.008660  g :     0.104383
      g+1     :     0.027758
      g-1     :     0.000093
      g+2     :     0.009936
      g-2     :     0.000048
      g+3     :     0.020805
      g-3     :     0.005808
      g+4     :     0.016444
      g-4     :     0.014831
  4 H s       :     0.703966  s :     0.703966
      pz      :     0.158889  p :     0.375939
      px      :     0.123627
      py      :     0.093423
      dz2     :     0.092927  d :     0.310433
      dxz     :     0.094084
      dyz     :     0.057861
      dx2y2   :     0.038798
      dxy     :     0.026763
      f0      :     0.037171  f :     0.174772
      f+1     :     0.053626
      f-1     :     0.009058
      f+2     :     0.025006
      f-2     :     0.020471
      f+3     :     0.018222
      f-3     :     0.011218
      g0      :     0.015469  g :     0.100384
      g+1     :     0.024430
      g-1     :     0.000138
      g+2     :     0.019428
      g-2     :     0.003457
      g+3     :     0.011045
      g-3     :     0.010913
      g+4     :     0.008811
      g-4     :     0.006694

SPIN
  0 P s       :     0.000000  s :     0.000000
      pz      :    -0.000000  p :    -0.000000
      px      :     0.000000
      py      :     0.000000
      dz2     :     0.000000  d :     0.000000
      dxz     :     0.000000
      dyz     :    -0.000000
      dx2y2   :     0.000000
      dxy     :    -0.000000
      f0      :    -0.000000  f :    -0.000000
      f+1     :    -0.000000
      f-1     :     0.000000
      f+2     :    -0.000000
      f-2     :     0.000000
      f+3     :    -0.000000
      f-3     :     0.000000
      g0      :    -0.000000  g :     0.000000
      g+1     :    -0.000000
      g-1     :     0.000000
      g+2     :    -0.000000
      g-2     :     0.000000
      g+3     :     0.000000
      g-3     :     0.000000
      g+4     :     0.000000
      g-4     :    -0.000000
      h0      :    -0.000000  h :    -0.000000
      h+1     :    -0.000000
      h-1     :     0.000000
      h+2     :    -0.000000
      h-2     :    -0.000000
      h+3     :     0.000000
      h-3     :    -0.000000
      h+4     :    -0.000000
      h-4     :    -0.000000
      h+5     :    -0.000000
      h-5     :     0.000000
  1 H s       :     0.000000  s :     0.000000
      pz      :    -0.000000  p :    -0.000000
      px      :    -0.000000
      py      :    -0.000000
      dz2     :     0.000000  d :     0.000000
      dxz     :     0.000000
      dyz     :     0.000000
      dx2y2   :     0.000000
      dxy     :    -0.000000
      f0      :    -0.000000  f :    -0.000000
      f+1     :     0.000000
      f-1     :    -0.000000
      f+2     :    -0.000000
      f-2     :    -0.000000
      f+3     :    -0.000000
      f-3     :     0.000000
      g0      :    -0.000000  g :    -0.000000
      g+1     :     0.000000
      g-1     :     0.000000
      g+2     :     0.000000
      g-2     :     0.000000
      g+3     :    -0.000000
      g-3     :    -0.000000
      g+4     :     0.000000
      g-4     :    -0.000000
  2 C s       :     0.000000  s :     0.000000
      pz      :    -0.000000  p :    -0.000000
      px      :     0.000000
      py      :    -0.000000
      dz2     :    -0.000000  d :    -0.000000
      dxz     :    -0.000000
      dyz     :    -0.000000
      dx2y2   :     0.000000
      dxy     :     0.000000
      f0      :     0.000000  f :    -0.000000
      f+1     :    -0.000000
      f-1     :     0.000000
      f+2     :    -0.000000
      f-2     :     0.000000
      f+3     :    -0.000000
      f-3     :    -0.000000
      g0      :    -0.000000  g :     0.000000
      g+1     :     0.000000
      g-1     :     0.000000
      g+2     :     0.000000
      g-2     :     0.000000
      g+3     :     0.000000
      g-3     :     0.000000
      g+4     :    -0.000000
      g-4     :     0.000000
      h0      :    -0.000000  h :     0.000000
      h+1     :    -0.000000
      h-1     :     0.000000
      h+2     :     0.000000
      h-2     :    -0.000000
      h+3     :    -0.000000
      h-3     :     0.000000
      h+4     :     0.000000
      h-4     :     0.000000
      h+5     :     0.000000
      h-5     :    -0.000000
  3 H s       :    -0.000000  s :    -0.000000
      pz      :    -0.000000  p :    -0.000000
      px      :     0.000000
      py      :     0.000000
      dz2     :     0.000000  d :    -0.000000
      dxz     :    -0.000000
      dyz     :     0.000000
      dx2y2   :    -0.000000
      dxy     :    -0.000000
      f0      :     0.000000  f :     0.000000
      f+1     :     0.000000
      f-1     :     0.000000
      f+2     :     0.000000
      f-2     :     0.000000
      f+3     :     0.000000
      f-3     :     0.000000
      g0      :    -0.000000  g :    -0.000000
      g+1     :    -0.000000
      g-1     :     0.000000
      g+2     :    -0.000000
      g-2     :    -0.000000
      g+3     :     0.000000
      g-3     :    -0.000000
      g+4     :    -0.000000
      g-4     :     0.000000
  4 H s       :     0.000000  s :     0.000000
      pz      :    -0.000000  p :     0.000000
      px      :     0.000000
      py      :     0.000000
      dz2     :    -0.000000  d :    -0.000000
      dxz     :    -0.000000
      dyz     :    -0.000000
      dx2y2   :    -0.000000
      dxy     :     0.000000
      f0      :     0.000000  f :     0.000000
      f+1     :     0.000000
      f-1     :     0.000000
      f+2     :     0.000000
      f-2     :    -0.000000
      f+3     :     0.000000
      f-3     :     0.000000
      g0      :     0.000000  g :     0.000000
      g+1     :     0.000000
      g-1     :    -0.000000
      g+2     :    -0.000000
      g-2     :     0.000000
      g+3     :     0.000000
      g-3     :    -0.000000
      g+4     :     0.000000
      g-4     :    -0.000000


                      *****************************
                      * MAYER POPULATION ANALYSIS *
                      *****************************

  NA   - Mulliken gross atomic population
  ZA   - Total nuclear charge
  QA   - Mulliken gross atomic charge
  VA   - Mayer's total valence
  BVA  - Mayer's bonded valence
  FA   - Mayer's free valence

  ATOM       NA         ZA         QA         VA         BVA        FA
  0 P     15.2621    15.0000    -0.2621     2.9126     2.9126    -0.0000
  1 H      0.8831     1.0000     0.1169     0.7706     0.7706    -0.0000
  2 C      6.0563     6.0000    -0.0563     3.7290     3.7290    -0.0000
  3 H      0.9487     1.0000     0.0513     1.2394     1.2394    -0.0000
  4 H      0.8498     1.0000     0.1502     0.9589     0.9589     0.0000

  Mayer bond orders larger than 0.1
B(  0-P ,  1-H ) :   0.8151 B(  0-P ,  2-C ) :   1.8904 B(  0-P ,  3-H ) :   0.1645 
B(  2-C ,  3-H ) :   1.0349 B(  2-C ,  4-H ) :   0.8675 

-------
TIMINGS
-------

Total SCF time: 0 days 1 hours 9 min 17 sec 

Total time                  ....    4157.523 sec
Sum of individual times     ....    4155.728 sec  (100.0%)

Fock matrix formation       ....    4142.439 sec  ( 99.6%)
  XC integration            ....     114.745 sec  (  2.8% of F)
    Basis function eval.    ....       6.342 sec  (  5.5% of XC)
    Density eval.           ....      32.337 sec  ( 28.2% of XC)
    XC-Functional eval.     ....       0.545 sec  (  0.5% of XC)
    XC-Potential eval.      ....      71.206 sec  ( 62.1% of XC)
Diagonalization             ....       4.663 sec  (  0.1%)
Density matrix formation    ....       0.067 sec  (  0.0%)
Population analysis         ....       0.304 sec  (  0.0%)
Initial guess               ....       3.459 sec  (  0.1%)
Orbital Transformation      ....       0.000 sec  (  0.0%)
Orbital Orthonormalization  ....       0.000 sec  (  0.0%)
DIIS solution               ....       2.373 sec  (  0.1%)
Grid generation             ....       2.422 sec  (  0.1%)

-------------------------   --------------------
FINAL SINGLE POINT ENERGY      -381.046177131179
-------------------------   --------------------


                            ***************************************
                            *     ORCA property calculations      *
                            ***************************************

                                    ---------------------
                                    Active property flags
                                    ---------------------
   (+) Dipole Moment
   (+) Polarizability


------------------------------------------------------------------------------
                       ORCA ELECTRIC PROPERTIES CALCULATION
------------------------------------------------------------------------------

Dipole Moment Calculation                       ... on
Quadrupole Moment Calculation                   ... off
Polarizability Calculation                      ... Analytic (CP-SCF)
GBWName                                         ... ch2ph_pbe.gbw
Electron density file                           ... ch2ph_pbe.scfp.tmp
The origin for moment calculation is the CENTER OF MASS  = ( 1.002910,  0.000000 -0.068353)

-------------
DIPOLE MOMENT
-------------
                                X             Y             Z
Electronic contribution:     -2.82474       0.00000      -0.68527
Nuclear contribution   :      3.14871       0.00000       0.82726
                        -----------------------------------------
Total Dipole Moment    :      0.32398       0.00000       0.14199
                        -----------------------------------------
Magnitude (a.u.)       :      0.35373
Magnitude (Debye)      :      0.89911



--------------------
Rotational spectrum 
--------------------
 
Rotational constants in cm-1:     4.655134     0.546590     0.489155 
Rotational constants in MHz : 139557.394477 16386.345020 14664.491331 

 Dipole components along the rotational axes: 
x,y,z [a.u.] :     0.297007     0.192121    -0.000000 
x,y,z [Debye]:     0.754931     0.488334    -0.000000 

 
Transforming and storing MO dipole integrals   ... done

                ... starting polarizability calculation

Opening the Dipole integral file               ... (ch2ph_pbe.dmo.tmp) done
Reading Dipole-MO integrals                    ... done
Solving CP-SCF equations                       ... 

           ************************************************************
           *        Program running with 4 parallel MPI-processes     *
           *              working on a common directory               *
           ************************************************************

------------------------------------------------------------------------------
                           ORCA CP-SCF CALCULATION
------------------------------------------------------------------------------

Input orbitals are from        ... ch2ph_pbe.gbw
Input Perturbation             ... ch2ph_pbe.cpv.tmp
Wavefunction output            ... ch2ph_pbe.cpu.tmp
Perturbation mode              ... Real perturbation (singlet)
Solver                         ... POPLE
Max. number of iterations      ... 200
Convergence tolerance          ... 1.000e-06
Integral handling              ... Direct
Number of perturbations        ... 3
Number of operators            ... 2
Orbital ranges used for CP-SCF:
 Operator 0:  Orbitals   0... 11  to  12...549
 Operator 1:  Orbitals   0... 11  to  12...549
DFT calculation                         ... on
Exchange functional (SCF)               ... PBE
Exchange functional (CP-SCF)            ... PBE
   PBE kappa parameter  XKappa (SCF)    ...  0.804000
   PBE kappa parameter  XKappa (CP-SCF) ...  0.804000
   PBE mue parameter   XMuePBE (SCF)    ...  0.219520
   PBE mue parameter   XMuePBE (CP-SCF) ...  0.219520
Correlation functional (SCF)            ... PBE
Correlation functional (CP-SCF)         ... PBE
   PBE beta parameter CBetaPBE (SCF)    ...  0.066725
   PBE beta parameter CBetaPBE (CP-SCF) ...  0.066725
 LDA part of GGA corr.  LDAOpt (SCF)    ... PW91-LDA
 LDA part of GGA corr.  LDAOpt (CP-SCF) ... PW91-LDA
Variables per vector in CP-SCF ... 12912
Number of vectors sought       ... 3
Recalculating density on grid  ... done
Calculating the xc-kernel      ... done
     CP-SCF ITERATION   0: 
     CP-SCF ITERATION   1:      2.990886216554
     CP-SCF ITERATION   2:      0.066132403839
     CP-SCF ITERATION   3:      0.004341456553
     CP-SCF ITERATION   4:      0.000152760813
     CP-SCF ITERATION   5:      0.000008319911
     CP-SCF ITERATION   6:      0.000000198673
done
Reading CP-SCF coefficients                    ... done
Doing the polarizability tensor   ... done
Cleaning up                                    ... done

-------------------------
THE POLARIZABILITY TENSOR
-------------------------

The raw cartesian tensor (atomic units):
   52.91442      0.00000     -3.02292  
    0.00000     34.45871     -0.00000  
   -3.02292     -0.00000     39.76194  
diagonalized tensor: 
   34.45871     39.10043     53.57593  

    0.00000     -0.21377      0.97688  
   -1.00000      0.00000      0.00000  
   -0.00000     -0.97688     -0.21377  

Isotropic polarizability :  42.37836


Timings for individual modules:

Sum of individual times         ...     6943.896 sec (= 115.732 min)
GTO integral calculation        ...        7.555 sec (=   0.126 min)   0.1 %
SCF iterations                  ...     4162.272 sec (=  69.371 min)  59.9 %
Solution of CP-SCF eqns.        ...     2774.069 sec (=  46.234 min)  39.9 %
                             ****ORCA TERMINATED NORMALLY****
TOTAL RUN TIME: 0 days 1 hours 55 minutes 45 seconds 453 msec
