
                                 *****************
                                 * O   R   C   A *
                                 *****************

           --- An Ab Initio, DFT and Semiempirical electronic structure package ---

                  #######################################################
                  #                        -***-                        #
                  #          Department of theory and spectroscopy      #
                  #               Directorship: Frank Neese             #
                  #        Max Planck Institute fuer Kohlenforschung    #
                  #                Kaiser Wilhelm Platz 1               #
                  #                 D-45470 Muelheim/Ruhr               #
                  #                      Germany                        #
                  #                                                     #
                  #                  All rights reserved                #
                  #                        -***-                        #
                  #######################################################


                         Program Version 4.1.2  - RELEASE  -


 With contributions from (in alphabetic order):
   Daniel Aravena         : Magnetic Properties
   Michael Atanasov       : Ab Initio Ligand Field Theory
   Alexander A. Auer      : GIAO ZORA
   Ute Becker             : Parallelization
   Giovanni Bistoni       : ED, Open-shell LED
   Martin Brehm           : Molecular dynamics
   Dmytro Bykov           : SCF Hessian
   Vijay G. Chilkuri      : MRCI spin determinant printing
   Dipayan Datta          : RHF DLPNO-CCSD density
   Achintya Kumar Dutta   : EOM-CC, STEOM-CC
   Dmitry Ganyushin       : Spin-Orbit,Spin-Spin,Magnetic field MRCI
   Miquel Garcia          : C-PCM Hessian
   Yang Guo               : DLPNO-NEVPT2, CIM, IAO-localization
   Andreas Hansen         : Spin unrestricted coupled pair/coupled cluster methods
   Benjamin Helmich-Paris : CASSCF linear response (MC-RPA)
   Lee Huntington         : MR-EOM, pCC
   Robert Izsak           : Overlap fitted RIJCOSX, COSX-SCS-MP3, EOM
   Christian Kollmar      : KDIIS, OOCD, Brueckner-CCSD(T), CCSD density
   Simone Kossmann        : Meta GGA functionals, TD-DFT gradient, OOMP2, MP2 Hessian
   Martin Krupicka        : AUTO-CI
   Lucas Lang             : DCDCAS
   Dagmar Lenk            : GEPOL surface, SMD
   Dimitrios Liakos       : Extrapolation schemes; parallel MDCI
   Dimitrios Manganas     : ROCIS; embedding schemes
   Dimitrios Pantazis     : SARC Basis sets
   Taras Petrenko         : DFT Hessian,TD-DFT gradient, ASA, ECA, R-Raman, ABS, FL, XAS/XES, NRVS
   Peter Pinski           : DLPNO-MP2, DLPNO-MP2 Gradient
   Christoph Reimann      : Effective Core Potentials
   Marius Retegan         : Local ZFS, SOC
   Christoph Riplinger    : Optimizer, TS searches, QM/MM, DLPNO-CCSD(T), (RO)-DLPNO pert. Triples
   Tobias Risthaus        : Range-separated hybrids, TD-DFT gradient, RPA, STAB
   Michael Roemelt        : Restricted open shell CIS
   Masaaki Saitow         : Open-shell DLPNO
   Barbara Sandhoefer     : DKH picture change effects
   Avijit Sen             : IP-ROCIS
   Kantharuban Sivalingam : CASSCF convergence, NEVPT2, FIC-MRCI
   Bernardo de Souza      : ESD, SOC TD-DFT
   Georgi Stoychev        : AutoAux, RI-MP2 NMR
   Willem Van den Heuvel  : Paramagnetic NMR
   Boris Wezisla          : Elementary symmetry handling
   Frank Wennmohs         : Technical directorship


 We gratefully acknowledge several colleagues who have allowed us to
 interface, adapt or use parts of their codes:
   Stefan Grimme, W. Hujo, H. Kruse,             : VdW corrections, initial TS optimization,
                  C. Bannwarth                     DFT functionals, gCP, sTDA/sTD-DF
   Ed Valeev                                     : LibInt (2-el integral package), F12 methods
   Garnet Chan, S. Sharma, J. Yang, R. Olivares  : DMRG
   Ulf Ekstrom                                   : XCFun DFT Library
   Mihaly Kallay                                 : mrcc  (arbitrary order and MRCC methods)
   Andreas Klamt, Michael Diedenhofen            : otool_cosmo (COSMO solvation model)
   Jiri Pittner, Ondrej Demel                    : Mk-CCSD
   Frank Weinhold                                : gennbo (NPA and NBO analysis)
   Christopher J. Cramer and Donald G. Truhlar   : smd solvation model
   Lars Goerigk                                  : TD-DFT with DH, B97 family of functionals
   V. Asgeirsson, H. Jonsson                     : NEB implementation
   FAccTs GmbH                                   : IRC, NEB, NEB-TS, Multilevel


 Your calculation uses the libint2 library for the computation of 2-el integrals
 For citations please refer to: http://libint.valeyev.net

 This ORCA versions uses:
   CBLAS   interface :  Fast vector & matrix operations
   LAPACKE interface :  Fast linear algebra routines
   SCALAPACK package :  Parallel linear algebra routines


----- Orbital basis set information -----
Your calculation utilizes the basis: aug-pc-4
   H, C-F              : F. Jensen, J. Chem. Phys. 115, 9113 (2001).
                         F. Jensen, J. Chem. Phys. 116, 7372 (2002).
                         F. Jensen, J. Chem. Phys. 117, 9234 (2002).
   Si-Cl               : F. Jensen, T. Helgaker, J. Chem. Phys. 121, 3463 (2004).
   He-B, Ne-Mg, Al, Ar : F. Jensen, J. Phys. Chem. A 111, 11198 (2007).
   K, Ca, Ga-Kr        : F. Jensen, J. Chem. Phys. 136, 094110 (2012).
   Sc-Zn               : F. Jensen, J. Chem. Phys. 138, 014107 (2013).

================================================================================
                                        WARNINGS
                       Please study these warnings very carefully!
================================================================================


INFO   : the flag for use of LIBINT has been found!

================================================================================
                                       INPUT FILE
================================================================================
NAME = ch3bh2_pbe.inp
|  1> !uks pbe nori aug-pc-4 grid7 nofinalgrid verytightscf
|  2> 
|  3> %maxcore 1500
|  4> 
|  5> %pal nprocs 4 end
|  6> 
|  7> %scf
|  8> 	maxiter 200
|  9> end
| 10> %elprop
| 11> 	dipole true
| 12> 	 polar 1
| 13> 	 maxiter 200
| 14> end
| 15> 
| 16> * xyz 0 1
| 17> C -0.0190572749 -0.6845195756 -0.0000000839
| 18> B -0.0207972952 0.8729523951 -0.0000000656
| 19> H 1.0512614815 -0.9395660726 0.0000010826
| 20> H -0.4362896177 -1.1431007759 0.8927422542
| 21> H -0.4362878975 -1.1431009662 -0.8927431359
| 22> H 0.0151838060 1.4835176231 -1.0228906497
| 23> H 0.0151867978 1.4835173722 1.0228905983
| 24> *
| 25> 
| 26>                          ****END OF INPUT****
================================================================================

                       ****************************
                       * Single Point Calculation *
                       ****************************

---------------------------------
CARTESIAN COORDINATES (ANGSTROEM)
---------------------------------
  C     -0.019057   -0.684520   -0.000000
  B     -0.020797    0.872952   -0.000000
  H      1.051261   -0.939566    0.000001
  H     -0.436290   -1.143101    0.892742
  H     -0.436288   -1.143101   -0.892743
  H      0.015184    1.483518   -1.022891
  H      0.015187    1.483517    1.022891

----------------------------
CARTESIAN COORDINATES (A.U.)
----------------------------
  NO LB      ZA    FRAG     MASS         X           Y           Z
   0 C     6.0000    0    12.011   -0.036013   -1.293555   -0.000000
   1 B     5.0000    0    10.810   -0.039301    1.649641   -0.000000
   2 H     1.0000    0     1.008    1.986596   -1.775523    0.000002
   3 H     1.0000    0     1.008   -0.824468   -2.160147    1.687038
   4 H     1.0000    0     1.008   -0.824465   -2.160148   -1.687040
   5 H     1.0000    0     1.008    0.028693    2.803442   -1.932983
   6 H     1.0000    0     1.008    0.028699    2.803442    1.932983

--------------------------------
INTERNAL COORDINATES (ANGSTROEM)
--------------------------------
 C      0   0   0     0.000000000000     0.00000000     0.00000000
 B      1   0   0     1.557472942682     0.00000000     0.00000000
 H      1   2   0     1.100286760774   103.46708113     0.00000000
 H      1   2   3     1.086907736371   114.92834598   115.07642486
 H      1   2   3     1.086907742697   114.92835822   244.92355778
 H      2   1   3     1.191801025476   120.81519254    87.94730336
 H      2   1   3     1.191801055757   120.81517879   272.05298910

---------------------------
INTERNAL COORDINATES (A.U.)
---------------------------
 C      0   0   0     0.000000000000     0.00000000     0.00000000
 B      1   0   0     2.943197322662     0.00000000     0.00000000
 H      1   2   0     2.079240646643   103.46708113     0.00000000
 H      1   2   3     2.053957954582   114.92834598   115.07642486
 H      1   2   3     2.053957966535   114.92835822   244.92355778
 H      2   1   3     2.252177544277   120.81519254    87.94730336
 H      2   1   3     2.252177601499   120.81517879   272.05298910

---------------------
BASIS SET INFORMATION
---------------------
There are 3 groups of distinct atoms

 Group   1 Type C   : 28s12p7d4f3g2h contracted to 9s8p7d4f3g2h pattern {11101111111/51111111/1111111/1111/111/11}
 Group   2 Type B   : 27s12p7d4f3g2h contracted to 9s8p7d4f3g2h pattern {1191111111/51111111/1111111/1111/111/11}
 Group   3 Type H   : 12s7p4d3f2g contracted to 8s7p4d3f2g pattern {51111111/1111111/1111/111/11}

Atom   0C    basis set group =>   1
Atom   1B    basis set group =>   2
Atom   2H    basis set group =>   3
Atom   3H    basis set group =>   3
Atom   4H    basis set group =>   3
Atom   5H    basis set group =>   3
Atom   6H    basis set group =>   3


           ************************************************************
           *        Program running with 4 parallel MPI-processes     *
           *              working on a common directory               *
           ************************************************************
------------------------------------------------------------------------------
                           ORCA GTO INTEGRAL CALCULATION
------------------------------------------------------------------------------

                         BASIS SET STATISTICS AND STARTUP INFO

 # of primitive gaussian shells          ...  251
 # of primitive gaussian functions       ...  811
 # of contracted shells                  ...  186
 # of contracted basis functions         ...  730
 Highest angular momentum                ...    5
 Maximum contraction depth               ...   11
 Integral package used                   ... LIBINT
 Integral threshhold            Thresh   ...  1.000e-12
 Primitive cut-off              TCut     ...  1.000e-14


------------------------------ INTEGRAL EVALUATION ----------------------------


 * One electron integrals 
 Pre-screening matrix                    ... done
 Shell pair data                         ... done (   0.007 sec)



           ************************************************************
           *        Program running with 4 parallel MPI-processes     *
           *              working on a common directory               *
           ************************************************************
-------------------------------------------------------------------------------
                                 ORCA SCF
-------------------------------------------------------------------------------

------------
SCF SETTINGS
------------
Hamiltonian:
 Density Functional     Method          .... DFT(GTOs)
 Exchange Functional    Exchange        .... PBE
   PBE kappa parameter   XKappa         ....  0.804000
   PBE mue parameter    XMuePBE         ....  0.219520
 Correlation Functional Correlation     .... PBE
   PBE beta parameter  CBetaPBE         ....  0.066725
 LDA part of GGA corr.  LDAOpt          .... PW91-LDA
 Gradients option       PostSCFGGA      .... off
   Density functional embedding theory  .... OFF
   NL short-range parameter             ....  6.400000


General Settings:
 Integral files         IntName         .... ch3bh2_pbe
 Hartree-Fock type      HFTyp           .... UHF
 Total Charge           Charge          ....    0
 Multiplicity           Mult            ....    1
 Number of Electrons    NEL             ....   16
 Basis Dimension        Dim             ....  730
 Nuclear Repulsion      ENuc            ....     31.8792731152 Eh

Convergence Acceleration:
 DIIS                   CNVDIIS         .... on
   Start iteration      DIISMaxIt       ....    12
   Startup error        DIISStart       ....  0.200000
   # of expansion vecs  DIISMaxEq       ....     5
   Bias factor          DIISBfac        ....   1.050
   Max. coefficient     DIISMaxC        ....  10.000
 Newton-Raphson         CNVNR           .... off
 SOSCF                  CNVSOSCF        .... off
 Level Shifting         CNVShift        .... on
   Level shift para.    LevelShift      ....    0.2500
   Turn off err/grad.   ShiftErr        ....    0.0010
 Zerner damping         CNVZerner       .... off
 Static damping         CNVDamp         .... on
   Fraction old density DampFac         ....    0.7000
   Max. Damping (<1)    DampMax         ....    0.9800
   Min. Damping (>=0)   DampMin         ....    0.0000
   Turn off err/grad.   DampErr         ....    0.1000
 Fernandez-Rico         CNVRico         .... off

SCF Procedure:
 Maximum # iterations   MaxIter         ....   200
 SCF integral mode      SCFMode         .... Direct
   Integral package                     .... LIBINT
 Reset frequency        DirectResetFreq ....    20
 Integral Threshold     Thresh          ....  1.000e-12 Eh
 Primitive CutOff       TCut            ....  1.000e-14 Eh

Convergence Tolerance:
 Convergence Check Mode ConvCheckMode   .... Total+1el-Energy
 Convergence forced     ConvForced      .... 0
 Energy Change          TolE            ....  1.000e-09 Eh
 1-El. energy change                    ....  1.000e-06 Eh
 DIIS Error             TolErr          ....  1.000e-08


Diagonalization of the overlap matrix:
Smallest eigenvalue                        ... 2.456e-08
Time for diagonalization                   ...    0.225 sec
Threshold for overlap eigenvalues          ... 1.000e-08
Number of eigenvalues below threshold      ... 0
Time for construction of square roots      ...    0.094 sec
Total time needed                          ...    0.322 sec

-------------------
DFT GRID GENERATION
-------------------

General Integration Accuracy     IntAcc      ...  5.670
Radial Grid Type                 RadialGrid  ... Gauss-Chebyshev
Angular Grid (max. acc.)         AngularGrid ... Lebedev-770
Angular grid pruning method      GridPruning ... 3 (G Style)
Weight generation scheme         WeightScheme... Becke
Basis function cutoff            BFCut       ...    1.0000e-12
Integration weight cutoff        WCut        ...    1.0000e-14
Grids for H and He will be reduced by one unit

# of grid points (after initial pruning)     ... 139104 (   0.0 sec)
# of grid points (after weights+screening)   ... 132931 (   0.0 sec)
nearest neighbour list constructed           ...    0.0 sec
Grid point re-assignment to atoms done       ...    0.0 sec
Grid point division into batches done        ...    2.5 sec
Reduced shell lists constructed in    3.2 sec

Total number of grid points                  ...   132931
Total number of batches                      ...     2080
Average number of points per batch           ...       63
Average number of grid points per atom       ...    18990
Average number of shells per batch           ...   142.54 (76.63%)
Average number of basis functions per batch  ...   573.63 (78.58%)
Average number of large shells per batch     ...   128.18 (89.92%)
Average number of large basis fcns per batch ...   519.77 (90.61%)
Maximum spatial batch extension              ...  15.94, 15.21, 14.81 au
Average spatial batch extension              ...   0.38,  0.38,  0.39 au

Time for grid setup =    3.404 sec

------------------------------
INITIAL GUESS: MODEL POTENTIAL
------------------------------
Loading Hartree-Fock densities                     ... done
Calculating cut-offs                               ... done
Setting up the integral package                    ... done
Initializing the effective Hamiltonian             ... done
Starting the Coulomb interaction                   ... done (   0.1 sec)
Reading the grid                                   ... done
Mapping shells                                     ... done
Starting the XC term evaluation                    ... done (   7.2 sec)
  promolecular density results
     # of electrons  =     15.997551054
     EX              =    -10.327571333
     EC              =     -0.468778770
     EX+EC           =    -10.796350104
Transforming the Hamiltonian                       ... done (   0.1 sec)
Diagonalizing the Hamiltonian                      ... done (   0.2 sec)
Back transforming the eigenvectors                 ... done (   0.0 sec)
Now organizing SCF variables                       ... done
                      ------------------
                      INITIAL GUESS DONE (  11.1 sec)
                      ------------------
--------------
SCF ITERATIONS
--------------
ITER       Energy         Delta-E        Max-DP      RMS-DP      [F,P]     Damp
               ***  Starting incremental Fock matrix formation  ***
  0    -65.7568074016   0.000000000000 0.02895555  0.00016670  0.2342006 0.7000
  1    -65.8042103438  -0.047402942202 0.01994069  0.00011906  0.1046306 0.7000
                               ***Turning on DIIS***
  2    -65.8214644701  -0.017254126277 0.02320540  0.00023610  0.0298412 0.0000
  3    -65.8447378961  -0.023273426027 0.01825910  0.00007203  0.0662121 0.0000
  4    -65.8532909151  -0.008553018982 0.00442893  0.00003040  0.0111575 0.0000
  5    -65.8537996040  -0.000508688944 0.00166596  0.00001156  0.0040816 0.0000
  6    -65.8538443089  -0.000044704882 0.00172314  0.00001036  0.0009772 0.0000
  7    -65.8538493757  -0.000005066794 0.00020443  0.00000159  0.0002142 0.0000
  8    -65.8538494913  -0.000000115573 0.00014456  0.00000094  0.0000526 0.0000
  9    -65.8538494962  -0.000000004895 0.00028447  0.00000241  0.0000072 0.0000
 10    -65.8538494964  -0.000000000214 0.00047470  0.00000310  0.0000029 0.0000
 11    -65.8538494964  -0.000000000032 0.00111146  0.00000621  0.0000012 0.0000
 12    -65.8538494964   0.000000000007 0.00086547  0.00000639  0.0000004 0.0000
                 **** Energy Check signals convergence ****

               *****************************************************
               *                     SUCCESS                       *
               *           SCF CONVERGED AFTER  13 CYCLES          *
               *****************************************************


----------------
TOTAL SCF ENERGY
----------------

Total Energy       :          -65.85384950 Eh           -1791.97435 eV

Components:
Nuclear Repulsion  :           31.87927312 Eh             867.47912 eV
Electronic Energy  :          -97.73312261 Eh           -2659.45347 eV
One Electron Energy:         -149.92667198 Eh           -4079.71215 eV
Two Electron Energy:           52.19354937 Eh            1420.25868 eV

Virial components:
Potential Energy   :         -131.38815151 Eh           -3575.25336 eV
Kinetic Energy     :           65.53430201 Eh            1783.27902 eV
Virial Ratio       :            2.00487603


DFT components:
N(Alpha)           :        7.999999793653 electrons
N(Beta)            :        7.999999793653 electrons
N(Total)           :       15.999999587305 electrons
E(X)               :      -10.739382100232 Eh       
E(C)               :       -0.472777683635 Eh       
E(XC)              :      -11.212159783867 Eh       
DFET-embed. en.    :        0.000000000000 Eh       

---------------
SCF CONVERGENCE
---------------

  Last Energy change         ...    5.1159e-12  Tolerance :   1.0000e-09
  Last MAX-Density change    ...    7.3953e-04  Tolerance :   1.0000e-08
  Last RMS-Density change    ...    4.8456e-06  Tolerance :   1.0000e-09
  Last DIIS Error            ...    6.1097e-08  Tolerance :   1.0000e-08

             **** THE GBW FILE WAS UPDATED (ch3bh2_pbe.gbw) ****
             **** DENSITY FILE WAS UPDATED (ch3bh2_pbe.scfp.tmp) ****
             **** ENERGY FILE WAS UPDATED (ch3bh2_pbe.en.tmp) ****
----------------------
UHF SPIN CONTAMINATION
----------------------

Warning: in a DFT calculation there is little theoretical justification to 
         calculate <S**2> as in Hartree-Fock theory. We will do it anyways
         but you should keep in mind that the values have only limited relevance

Expectation value of <S**2>     :     0.000000
Ideal value S*(S+1) for S=0.0   :     0.000000
Deviation                       :     0.000000

----------------
ORBITAL ENERGIES
----------------
                 SPIN UP ORBITALS
  NO   OCC          E(Eh)            E(eV) 
   0   1.0000      -9.864346      -268.4225 
   1   1.0000      -6.508262      -177.0988 
   2   1.0000      -0.639058       -17.3897 
   3   1.0000      -0.432212       -11.7611 
   4   1.0000      -0.373522       -10.1640 
   5   1.0000      -0.362930        -9.8758 
   6   1.0000      -0.294370        -8.0102 
   7   1.0000      -0.280147        -7.6232 
   8   0.0000      -0.084363        -2.2956 
   9   0.0000      -0.014081        -0.3832 
  10   0.0000       0.006289         0.1711 
  11   0.0000       0.007852         0.2137 
  12   0.0000       0.010921         0.2972 
  13   0.0000       0.026572         0.7231 
  14   0.0000       0.028836         0.7847 
  15   0.0000       0.029117         0.7923 
  16   0.0000       0.030888         0.8405 
  17   0.0000       0.033893         0.9223 
  18   0.0000       0.034057         0.9267 
  19   0.0000       0.035052         0.9538 
  20   0.0000       0.039320         1.0700 
  21   0.0000       0.049373         1.3435 
  22   0.0000       0.063338         1.7235 
  23   0.0000       0.063671         1.7326 
  24   0.0000       0.065242         1.7753 
  25   0.0000       0.069349         1.8871 
  26   0.0000       0.072675         1.9776 
  27   0.0000       0.077840         2.1181 
  28   0.0000       0.079282         2.1574 
  29   0.0000       0.079688         2.1684 
  30   0.0000       0.083676         2.2770 
  31   0.0000       0.089613         2.4385 
  32   0.0000       0.091452         2.4885 
  33   0.0000       0.092579         2.5192 
  34   0.0000       0.102271         2.7829 
  35   0.0000       0.103707         2.8220 
  36   0.0000       0.119830         3.2607 
  37   0.0000       0.127277         3.4634 
  38   0.0000       0.130006         3.5377 
  39   0.0000       0.130248         3.5442 
  40   0.0000       0.133061         3.6208 
  41   0.0000       0.136637         3.7181 
  42   0.0000       0.138856         3.7785 
  43   0.0000       0.139385         3.7929 
  44   0.0000       0.145276         3.9532 
  45   0.0000       0.145431         3.9574 
  46   0.0000       0.148232         4.0336 
  47   0.0000       0.149111         4.0575 
  48   0.0000       0.150832         4.1043 
  49   0.0000       0.157303         4.2804 
  50   0.0000       0.158150         4.3035 
  51   0.0000       0.162724         4.4279 
  52   0.0000       0.164105         4.4655 
  53   0.0000       0.164768         4.4836 
  54   0.0000       0.166679         4.5356 
  55   0.0000       0.177433         4.8282 
  56   0.0000       0.179120         4.8741 
  57   0.0000       0.190456         5.1826 
  58   0.0000       0.191948         5.2232 
  59   0.0000       0.194428         5.2906 
  60   0.0000       0.199163         5.4195 
  61   0.0000       0.204000         5.5511 
  62   0.0000       0.212145         5.7728 
  63   0.0000       0.214532         5.8377 
  64   0.0000       0.218143         5.9360 
  65   0.0000       0.220883         6.0105 
  66   0.0000       0.221795         6.0353 
  67   0.0000       0.225514         6.1366 
  68   0.0000       0.226494         6.1632 
  69   0.0000       0.231611         6.3024 
  70   0.0000       0.237113         6.4522 
  71   0.0000       0.239763         6.5243 
  72   0.0000       0.243210         6.6181 
  73   0.0000       0.255851         6.9620 
  74   0.0000       0.257188         6.9984 
  75   0.0000       0.260001         7.0750 
  76   0.0000       0.266381         7.2486 
  77   0.0000       0.266616         7.2550 
  78   0.0000       0.268892         7.3169 
  79   0.0000       0.274450         7.4682 
  80   0.0000       0.277590         7.5536 
  81   0.0000       0.279167         7.5965 
  82   0.0000       0.285340         7.7645 
  83   0.0000       0.286824         7.8049 
  84   0.0000       0.296918         8.0795 
  85   0.0000       0.298820         8.1313 
  86   0.0000       0.303725         8.2648 
  87   0.0000       0.307986         8.3807 
  88   0.0000       0.313478         8.5302 
  89   0.0000       0.313685         8.5358 
  90   0.0000       0.319612         8.6971 
  91   0.0000       0.320982         8.7344 
  92   0.0000       0.323273         8.7967 
  93   0.0000       0.327203         8.9036 
  94   0.0000       0.331135         9.0106 
  95   0.0000       0.333780         9.0826 
  96   0.0000       0.337072         9.1722 
  97   0.0000       0.340447         9.2640 
  98   0.0000       0.342032         9.3072 
  99   0.0000       0.344587         9.3767 
 100   0.0000       0.345137         9.3917 
 101   0.0000       0.352262         9.5855 
 102   0.0000       0.357746         9.7348 
 103   0.0000       0.369083        10.0433 
 104   0.0000       0.370489        10.0815 
 105   0.0000       0.372126        10.1261 
 106   0.0000       0.375604        10.2207 
 107   0.0000       0.380686        10.3590 
 108   0.0000       0.384228        10.4554 
 109   0.0000       0.385063        10.4781 
 110   0.0000       0.394214        10.7271 
 111   0.0000       0.395592        10.7646 
 112   0.0000       0.398612        10.8468 
 113   0.0000       0.399817        10.8796 
 114   0.0000       0.407653        11.0928 
 115   0.0000       0.410480        11.1697 
 116   0.0000       0.412382        11.2215 
 117   0.0000       0.419827        11.4241 
 118   0.0000       0.420036        11.4298 
 119   0.0000       0.424386        11.5481 
 120   0.0000       0.429858        11.6970 
 121   0.0000       0.434714        11.8292 
 122   0.0000       0.436120        11.8674 
 123   0.0000       0.443751        12.0751 
 124   0.0000       0.447368        12.1735 
 125   0.0000       0.450262        12.2522 
 126   0.0000       0.459503        12.5037 
 127   0.0000       0.461106        12.5473 
 128   0.0000       0.464526        12.6404 
 129   0.0000       0.468505        12.7487 
 130   0.0000       0.473836        12.8937 
 131   0.0000       0.478142        13.0109 
 132   0.0000       0.489547        13.3212 
 133   0.0000       0.490184        13.3386 
 134   0.0000       0.495348        13.4791 
 135   0.0000       0.500162        13.6101 
 136   0.0000       0.506353        13.7786 
 137   0.0000       0.508004        13.8235 
 138   0.0000       0.514356        13.9963 
 139   0.0000       0.519844        14.1457 
 140   0.0000       0.520489        14.1632 
 141   0.0000       0.523652        14.2493 
 142   0.0000       0.531844        14.4722 
 143   0.0000       0.533336        14.5128 
 144   0.0000       0.540036        14.6951 
 145   0.0000       0.547358        14.8944 
 146   0.0000       0.547859        14.9080 
 147   0.0000       0.551118        14.9967 
 148   0.0000       0.555701        15.1214 
 149   0.0000       0.560978        15.2650 
 150   0.0000       0.571734        15.5577 
 151   0.0000       0.573704        15.6113 
 152   0.0000       0.574512        15.6333 
 153   0.0000       0.580957        15.8087 
 154   0.0000       0.583961        15.8904 
 155   0.0000       0.586237        15.9523 
 156   0.0000       0.586828        15.9684 
 157   0.0000       0.594115        16.1667 
 158   0.0000       0.595729        16.2106 
 159   0.0000       0.597749        16.2656 
 160   0.0000       0.614052        16.7092 
 161   0.0000       0.614583        16.7237 
 162   0.0000       0.615113        16.7381 
 163   0.0000       0.620599        16.8874 
 164   0.0000       0.621875        16.9221 
 165   0.0000       0.626928        17.0596 
 166   0.0000       0.628913        17.1136 
 167   0.0000       0.635564        17.2946 
 168   0.0000       0.638907        17.3855 
 169   0.0000       0.641572        17.4581 
 170   0.0000       0.644037        17.5251 
 171   0.0000       0.651410        17.7258 
 172   0.0000       0.655154        17.8277 
 173   0.0000       0.656810        17.8727 
 174   0.0000       0.660649        17.9772 
 175   0.0000       0.669988        18.2313 
 176   0.0000       0.686691        18.6858 
 177   0.0000       0.692616        18.8470 
 178   0.0000       0.694850        18.9078 
 179   0.0000       0.695159        18.9162 
 180   0.0000       0.696904        18.9637 
 181   0.0000       0.702355        19.1120 
 182   0.0000       0.705501        19.1977 
 183   0.0000       0.719717        19.5845 
 184   0.0000       0.726010        19.7557 
 185   0.0000       0.732302        19.9269 
 186   0.0000       0.734731        19.9930 
 187   0.0000       0.742953        20.2168 
 188   0.0000       0.746374        20.3099 
 189   0.0000       0.754697        20.5364 
 190   0.0000       0.761993        20.7349 
 191   0.0000       0.768360        20.9081 
 192   0.0000       0.770017        20.9532 
 193   0.0000       0.770338        20.9620 
 194   0.0000       0.774844        21.0846 
 195   0.0000       0.786669        21.4064 
 196   0.0000       0.787665        21.4335 
 197   0.0000       0.792899        21.5759 
 198   0.0000       0.799650        21.7596 
 199   0.0000       0.802122        21.8269 
 200   0.0000       0.810837        22.0640 
 201   0.0000       0.815430        22.1890 
 202   0.0000       0.833558        22.6823 
 203   0.0000       0.840507        22.8714 
 204   0.0000       0.843718        22.9587 
 205   0.0000       0.848058        23.0768 
 206   0.0000       0.852179        23.1890 
 207   0.0000       0.856999        23.3201 
 208   0.0000       0.860035        23.4027 
 209   0.0000       0.864974        23.5371 
 210   0.0000       0.866043        23.5662 
 211   0.0000       0.872832        23.7510 
 212   0.0000       0.880397        23.9568 
 213   0.0000       0.888543        24.1785 
 214   0.0000       0.893308        24.3081 
 215   0.0000       0.897854        24.4319 
 216   0.0000       0.898262        24.4429 
 217   0.0000       0.899375        24.4732 
 218   0.0000       0.909282        24.7428 
 219   0.0000       0.909999        24.7623 
 220   0.0000       0.918868        25.0037 
 221   0.0000       0.919991        25.0342 
 222   0.0000       0.924736        25.1633 
 223   0.0000       0.929846        25.3024 
 224   0.0000       0.932167        25.3656 
 225   0.0000       0.937288        25.5049 
 226   0.0000       0.937701        25.5162 
 227   0.0000       0.942737        25.6532 
 228   0.0000       0.944081        25.6897 
 229   0.0000       0.949114        25.8267 
 230   0.0000       0.961287        26.1579 
 231   0.0000       0.963744        26.2248 
 232   0.0000       0.967021        26.3140 
 233   0.0000       0.969201        26.3733 
 234   0.0000       0.975209        26.5368 
 235   0.0000       0.982060        26.7232 
 236   0.0000       0.982212        26.7273 
 237   0.0000       0.986690        26.8492 
 238   0.0000       0.989602        26.9284 
 239   0.0000       0.997313        27.1383 
 240   0.0000       1.003982        27.3197 
 241   0.0000       1.005893        27.3717 
 242   0.0000       1.010985        27.5103 
 243   0.0000       1.016012        27.6471 
 244   0.0000       1.017323        27.6828 
 245   0.0000       1.022474        27.8229 
 246   0.0000       1.028656        27.9912 
 247   0.0000       1.031371        28.0650 
 248   0.0000       1.033014        28.1097 
 249   0.0000       1.037874        28.2420 
 250   0.0000       1.041833        28.3497 
 251   0.0000       1.050005        28.5721 
 252   0.0000       1.053078        28.6557 
 253   0.0000       1.053154        28.6578 
 254   0.0000       1.058313        28.7982 
 255   0.0000       1.065950        29.0060 
 256   0.0000       1.069270        29.0963 
 257   0.0000       1.082858        29.4661 
 258   0.0000       1.083478        29.4829 
 259   0.0000       1.091255        29.6946 
 260   0.0000       1.091575        29.7033 
 261   0.0000       1.100358        29.9423 
 262   0.0000       1.107166        30.1275 
 263   0.0000       1.115372        30.3508 
 264   0.0000       1.130011        30.7492 
 265   0.0000       1.160386        31.5757 
 266   0.0000       1.164131        31.6776 
 267   0.0000       1.176122        32.0039 
 268   0.0000       1.208346        32.8808 
 269   0.0000       1.228058        33.4172 
 270   0.0000       1.233693        33.5705 
 271   0.0000       1.289613        35.0922 
 272   0.0000       1.299827        35.3701 
 273   0.0000       1.300787        35.3962 
 274   0.0000       1.309608        35.6362 
 275   0.0000       1.360294        37.0155 
 276   0.0000       1.414139        38.4807 
 277   0.0000       1.419127        38.6164 
 278   0.0000       1.443029        39.2668 
 279   0.0000       1.456620        39.6367 
 280   0.0000       1.471127        40.0314 
 281   0.0000       1.474381        40.1199 
 282   0.0000       1.489989        40.5447 
 283   0.0000       1.503179        40.9036 
 284   0.0000       1.525111        41.5004 
 285   0.0000       1.544257        42.0214 
 286   0.0000       1.550520        42.1918 
 287   0.0000       1.570360        42.7317 
 288   0.0000       1.579226        42.9729 
 289   0.0000       1.607566        43.7441 
 290   0.0000       1.613463        43.9046 
 291   0.0000       1.618034        44.0289 
 292   0.0000       1.626363        44.2556 
 293   0.0000       1.635642        44.5081 
 294   0.0000       1.641747        44.6742 
 295   0.0000       1.654612        45.0243 
 296   0.0000       1.659348        45.1532 
 297   0.0000       1.668383        45.3990 
 298   0.0000       1.679768        45.7088 
 299   0.0000       1.699692        46.2510 
 300   0.0000       1.708395        46.4878 
 301   0.0000       1.721505        46.8445 
 302   0.0000       1.725094        46.9422 
 303   0.0000       1.755770        47.7769 
 304   0.0000       1.760335        47.9011 
 305   0.0000       1.779725        48.4288 
 306   0.0000       1.789244        48.6878 
 307   0.0000       1.792624        48.7798 
 308   0.0000       1.801162        49.0121 
 309   0.0000       1.807902        49.1955 
 310   0.0000       1.822530        49.5936 
 311   0.0000       1.840946        50.0947 
 312   0.0000       1.851859        50.3917 
 313   0.0000       1.871221        50.9185 
 314   0.0000       1.887889        51.3721 
 315   0.0000       1.924392        52.3654 
 316   0.0000       1.943266        52.8790 
 317   0.0000       1.975383        53.7529 
 318   0.0000       1.976878        53.7936 
 319   0.0000       2.014843        54.8267 
 320   0.0000       2.018671        54.9308 
 321   0.0000       2.027428        55.1691 
 322   0.0000       2.048940        55.7545 
 323   0.0000       2.099186        57.1218 
 324   0.0000       2.101251        57.1779 
 325   0.0000       2.160933        58.8020 
 326   0.0000       2.166156        58.9441 
 327   0.0000       2.229542        60.6689 
 328   0.0000       2.247300        61.1521 
 329   0.0000       2.265311        61.6422 
 330   0.0000       2.265855        61.6570 
 331   0.0000       2.324350        63.2488 
 332   0.0000       2.326322        63.3024 
 333   0.0000       2.332061        63.4586 
 334   0.0000       2.359239        64.1982 
 335   0.0000       2.388334        64.9899 
 336   0.0000       2.428611        66.0859 
 337   0.0000       2.450751        66.6883 
 338   0.0000       2.465894        67.1004 
 339   0.0000       2.541498        69.1577 
 340   0.0000       2.560743        69.6814 
 341   0.0000       2.572986        70.0145 
 342   0.0000       2.581634        70.2498 
 343   0.0000       2.616159        71.1893 
 344   0.0000       2.639022        71.8114 
 345   0.0000       2.670731        72.6743 
 346   0.0000       2.693852        73.3034 
 347   0.0000       2.728015        74.2331 
 348   0.0000       2.746650        74.7401 
 349   0.0000       2.790884        75.9438 
 350   0.0000       2.846959        77.4697 
 351   0.0000       2.916120        79.3517 
 352   0.0000       3.018130        82.1275 
 353   0.0000       3.137476        85.3751 
 354   0.0000       3.145795        85.6014 
 355   0.0000       3.165938        86.1496 
 356   0.0000       3.182792        86.6082 
 357   0.0000       3.186139        86.6993 
 358   0.0000       3.214047        87.4587 
 359   0.0000       3.214338        87.4666 
 360   0.0000       3.256862        88.6237 
 361   0.0000       3.266137        88.8761 
 362   0.0000       3.282340        89.3170 
 363   0.0000       3.314407        90.1896 
 364   0.0000       3.326640        90.5225 
 365   0.0000       3.346783        91.0706 
 366   0.0000       3.389557        92.2345 
 367   0.0000       3.417577        92.9970 
 368   0.0000       3.424226        93.1779 
 369   0.0000       3.444268        93.7233 
 370   0.0000       3.466368        94.3247 
 371   0.0000       3.493893        95.0737 
 372   0.0000       3.494553        95.0916 
 373   0.0000       3.518707        95.7489 
 374   0.0000       3.560150        96.8766 
 375   0.0000       3.598815        97.9287 
 376   0.0000       3.636130        98.9441 
 377   0.0000       3.656864        99.5083 
 378   0.0000       3.664979        99.7292 
 379   0.0000       3.691448       100.4494 
 380   0.0000       3.704221       100.7970 
 381   0.0000       3.745679       101.9251 
 382   0.0000       3.748555       102.0034 
 383   0.0000       3.751920       102.0949 
 384   0.0000       3.787916       103.0744 
 385   0.0000       3.793963       103.2390 
 386   0.0000       3.802377       103.4679 
 387   0.0000       3.827530       104.1524 
 388   0.0000       3.836608       104.3994 
 389   0.0000       3.855059       104.9015 
 390   0.0000       3.872753       105.3830 
 391   0.0000       3.880398       105.5910 
 392   0.0000       3.888395       105.8086 
 393   0.0000       3.907072       106.3168 
 394   0.0000       3.923143       106.7541 
 395   0.0000       3.958998       107.7298 
 396   0.0000       3.967853       107.9708 
 397   0.0000       4.007381       109.0464 
 398   0.0000       4.008703       109.0823 
 399   0.0000       4.051401       110.2442 
 400   0.0000       4.058180       110.4287 
 401   0.0000       4.100349       111.5762 
 402   0.0000       4.131689       112.4290 
 403   0.0000       4.138889       112.6249 
 404   0.0000       4.139699       112.6469 
 405   0.0000       4.159915       113.1970 
 406   0.0000       4.209066       114.5345 
 407   0.0000       4.211042       114.5883 
 408   0.0000       4.233820       115.2081 
 409   0.0000       4.262736       115.9949 
 410   0.0000       4.306660       117.1902 
 411   0.0000       4.315060       117.4188 
 412   0.0000       4.326690       117.7352 
 413   0.0000       4.332481       117.8928 
 414   0.0000       4.380039       119.1869 
 415   0.0000       4.408354       119.9574 
 416   0.0000       4.435226       120.6886 
 417   0.0000       4.459714       121.3550 
 418   0.0000       4.482878       121.9853 
 419   0.0000       4.492899       122.2580 
 420   0.0000       4.521896       123.0470 
 421   0.0000       4.563954       124.1915 
 422   0.0000       4.608791       125.4116 
 423   0.0000       4.633830       126.0929 
 424   0.0000       4.673127       127.1623 
 425   0.0000       4.684393       127.4688 
 426   0.0000       4.758157       129.4760 
 427   0.0000       4.760719       129.5457 
 428   0.0000       4.792044       130.3981 
 429   0.0000       4.794917       130.4763 
 430   0.0000       4.855631       132.1284 
 431   0.0000       4.904572       133.4602 
 432   0.0000       4.912483       133.6755 
 433   0.0000       4.945756       134.5809 
 434   0.0000       4.970057       135.2421 
 435   0.0000       4.983965       135.6206 
 436   0.0000       4.988395       135.7411 
 437   0.0000       5.048473       137.3759 
 438   0.0000       5.213320       141.8617 
 439   0.0000       5.230686       142.3342 
 440   0.0000       5.262134       143.1899 
 441   0.0000       5.287436       143.8785 
 442   0.0000       5.358046       145.7998 
 443   0.0000       5.408478       147.1722 
 444   0.0000       5.447513       148.2344 
 445   0.0000       5.457074       148.4945 
 446   0.0000       5.470236       148.8527 
 447   0.0000       5.493346       149.4816 
 448   0.0000       5.534828       150.6103 
 449   0.0000       5.581833       151.8894 
 450   0.0000       5.611240       152.6896 
 451   0.0000       5.613794       152.7591 
 452   0.0000       5.772314       157.0727 
 453   0.0000       5.773239       157.0978 
 454   0.0000       5.814715       158.2264 
 455   0.0000       5.882168       160.0619 
 456   0.0000       5.889166       160.2523 
 457   0.0000       5.941320       161.6715 
 458   0.0000       5.973450       162.5458 
 459   0.0000       6.004263       163.3843 
 460   0.0000       6.051251       164.6629 
 461   0.0000       6.103552       166.0861 
 462   0.0000       6.166904       167.8100 
 463   0.0000       6.237209       169.7231 
 464   0.0000       6.284440       171.0083 
 465   0.0000       6.328649       172.2113 
 466   0.0000       6.369411       173.3205 
 467   0.0000       6.427325       174.8964 
 468   0.0000       6.515862       177.3056 
 469   0.0000       6.549294       178.2153 
 470   0.0000       6.576346       178.9515 
 471   0.0000       6.681197       181.8046 
 472   0.0000       6.757881       183.8913 
 473   0.0000       6.804055       185.1477 
 474   0.0000       6.915124       188.1701 
 475   0.0000       6.928651       188.5382 
 476   0.0000       6.941204       188.8798 
 477   0.0000       6.966444       189.5666 
 478   0.0000       6.976843       189.8496 
 479   0.0000       7.037520       191.5007 
 480   0.0000       7.222600       196.5369 
 481   0.0000       7.512883       204.4359 
 482   0.0000       7.776328       211.6046 
 483   0.0000       7.888720       214.6630 
 484   0.0000       7.921268       215.5486 
 485   0.0000       7.966263       216.7730 
 486   0.0000       7.989404       217.4027 
 487   0.0000       8.006551       217.8693 
 488   0.0000       8.509698       231.5607 
 489   0.0000       8.562212       232.9896 
 490   0.0000       8.588195       233.6967 
 491   0.0000       8.629678       234.8255 
 492   0.0000       8.651789       235.4272 
 493   0.0000       8.714446       237.1321 
 494   0.0000       8.730858       237.5787 
 495   0.0000       8.753746       238.2016 
 496   0.0000       8.800125       239.4636 
 497   0.0000       8.844445       240.6696 
 498   0.0000       8.845920       240.7097 
 499   0.0000       8.901700       242.2276 
 500   0.0000       8.925075       242.8636 
 501   0.0000       8.944143       243.3825 
 502   0.0000       8.996865       244.8172 
 503   0.0000       9.014807       245.3054 
 504   0.0000       9.035215       245.8607 
 505   0.0000       9.078518       247.0390 
 506   0.0000       9.084424       247.1997 
 507   0.0000       9.096152       247.5189 
 508   0.0000       9.116204       248.0645 
 509   0.0000       9.137716       248.6499 
 510   0.0000       9.187619       250.0078 
 511   0.0000       9.192065       250.1288 
 512   0.0000       9.223273       250.9780 
 513   0.0000       9.273048       252.3325 
 514   0.0000       9.323647       253.7093 
 515   0.0000       9.326426       253.7849 
 516   0.0000       9.392448       255.5815 
 517   0.0000       9.428512       256.5629 
 518   0.0000       9.475849       257.8510 
 519   0.0000       9.505435       258.6560 
 520   0.0000       9.564551       260.2647 
 521   0.0000       9.570545       260.4278 
 522   0.0000       9.628195       261.9965 
 523   0.0000       9.699501       263.9368 
 524   0.0000       9.765624       265.7361 
 525   0.0000       9.838617       267.7224 
 526   0.0000       9.869278       268.5567 
 527   0.0000       9.889117       269.0966 
 528   0.0000       9.891490       269.1611 
 529   0.0000       9.947457       270.6841 
 530   0.0000       9.956712       270.9359 
 531   0.0000       9.958183       270.9759 
 532   0.0000      10.007010       272.3046 
 533   0.0000      10.042532       273.2712 
 534   0.0000      10.055860       273.6339 
 535   0.0000      10.152940       276.2756 
 536   0.0000      10.213312       277.9184 
 537   0.0000      10.266112       279.3551 
 538   0.0000      10.285442       279.8811 
 539   0.0000      10.349727       281.6304 
 540   0.0000      10.409251       283.2501 
 541   0.0000      10.535861       286.6953 
 542   0.0000      10.541311       286.8437 
 543   0.0000      10.730550       291.9931 
 544   0.0000      10.760182       292.7994 
 545   0.0000      10.781563       293.3813 
 546   0.0000      10.856055       295.4083 
 547   0.0000      10.916783       297.0608 
 548   0.0000      10.921065       297.1773 
 549   0.0000      11.041261       300.4480 
 550   0.0000      11.050316       300.6944 
 551   0.0000      11.111888       302.3698 
 552   0.0000      11.167896       303.8939 
 553   0.0000      11.173731       304.0527 
 554   0.0000      11.184027       304.3329 
 555   0.0000      11.237105       305.7772 
 556   0.0000      11.317442       307.9632 
 557   0.0000      11.417950       310.6982 
 558   0.0000      11.433388       311.1183 
 559   0.0000      11.530666       313.7654 
 560   0.0000      11.571241       314.8695 
 561   0.0000      11.578087       315.0558 
 562   0.0000      11.643094       316.8247 
 563   0.0000      11.681156       317.8604 
 564   0.0000      11.786439       320.7253 
 565   0.0000      11.795092       320.9608 
 566   0.0000      11.850148       322.4589 
 567   0.0000      11.882350       323.3352 
 568   0.0000      11.904825       323.9468 
 569   0.0000      11.969172       325.6977 
 570   0.0000      12.041590       327.6683 
 571   0.0000      12.100321       329.2665 
 572   0.0000      12.259983       333.6111 
 573   0.0000      12.275884       334.0438 
 574   0.0000      12.307734       334.9105 
 575   0.0000      12.326042       335.4086 
 576   0.0000      12.392538       337.2181 
 577   0.0000      12.448271       338.7347 
 578   0.0000      12.459139       339.0304 
 579   0.0000      12.480464       339.6107 
 580   0.0000      12.483729       339.6995 
 581   0.0000      12.503049       340.2253 
 582   0.0000      12.564448       341.8960 
 583   0.0000      12.585087       342.4576 
 584   0.0000      12.632258       343.7412 
 585   0.0000      12.664843       344.6279 
 586   0.0000      12.731001       346.4281 
 587   0.0000      12.737628       346.6085 
 588   0.0000      12.800688       348.3244 
 589   0.0000      12.811213       348.6108 
 590   0.0000      12.876020       350.3743 
 591   0.0000      12.884799       350.6132 
 592   0.0000      12.927068       351.7634 
 593   0.0000      12.934651       351.9698 
 594   0.0000      13.027088       354.4851 
 595   0.0000      13.028621       354.5268 
 596   0.0000      13.103559       356.5660 
 597   0.0000      13.117468       356.9444 
 598   0.0000      13.143206       357.6448 
 599   0.0000      13.213371       359.5541 
 600   0.0000      13.255468       360.6996 
 601   0.0000      13.349754       363.2653 
 602   0.0000      13.372245       363.8773 
 603   0.0000      13.418114       365.1254 
 604   0.0000      13.430638       365.4662 
 605   0.0000      13.509502       367.6122 
 606   0.0000      13.614996       370.4829 
 607   0.0000      13.673417       372.0726 
 608   0.0000      13.819606       376.0506 
 609   0.0000      13.881582       377.7370 
 610   0.0000      13.926266       378.9530 
 611   0.0000      13.998542       380.9197 
 612   0.0000      14.173125       385.6703 
 613   0.0000      14.184817       385.9885 
 614   0.0000      14.216812       386.8591 
 615   0.0000      14.289291       388.8314 
 616   0.0000      14.320093       389.6695 
 617   0.0000      14.438603       392.8944 
 618   0.0000      14.706972       400.1971 
 619   0.0000      14.717109       400.4729 
 620   0.0000      14.789766       402.4500 
 621   0.0000      14.842267       403.8786 
 622   0.0000      14.991935       407.9513 
 623   0.0000      15.164859       412.6568 
 624   0.0000      15.226210       414.3262 
 625   0.0000      15.505482       421.9256 
 626   0.0000      15.801771       429.9880 
 627   0.0000      15.801951       429.9930 
 628   0.0000      15.915866       433.0927 
 629   0.0000      16.090580       437.8469 
 630   0.0000      16.241890       441.9643 
 631   0.0000      16.266373       442.6305 
 632   0.0000      16.366249       445.3483 
 633   0.0000      16.744776       455.6485 
 634   0.0000      16.765828       456.2214 
 635   0.0000      16.768443       456.2925 
 636   0.0000      16.780857       456.6303 
 637   0.0000      16.785270       456.7504 
 638   0.0000      16.786216       456.7762 
 639   0.0000      16.791899       456.9308 
 640   0.0000      16.814093       457.5347 
 641   0.0000      16.830091       457.9700 
 642   0.0000      16.838622       458.2022 
 643   0.0000      16.877276       459.2540 
 644   0.0000      16.912982       460.2256 
 645   0.0000      16.993228       462.4092 
 646   0.0000      17.009759       462.8591 
 647   0.0000      17.022952       463.2181 
 648   0.0000      17.211951       468.3610 
 649   0.0000      17.238138       469.0736 
 650   0.0000      17.406018       473.6418 
 651   0.0000      17.423088       474.1063 
 652   0.0000      17.468784       475.3498 
 653   0.0000      17.736553       482.6362 
 654   0.0000      17.832259       485.2404 
 655   0.0000      17.913067       487.4393 
 656   0.0000      18.017235       490.2739 
 657   0.0000      18.101181       492.5582 
 658   0.0000      18.348768       499.2953 
 659   0.0000      18.608513       506.3634 
 660   0.0000      18.632069       507.0044 
 661   0.0000      18.806860       511.7607 
 662   0.0000      18.824093       512.2296 
 663   0.0000      19.075064       519.0589 
 664   0.0000      19.085935       519.3547 
 665   0.0000      19.169250       521.6218 
 666   0.0000      19.358939       526.7835 
 667   0.0000      19.415535       528.3236 
 668   0.0000      19.494297       530.4668 
 669   0.0000      19.587097       532.9920 
 670   0.0000      19.872251       540.7514 
 671   0.0000      19.913521       541.8744 
 672   0.0000      19.918097       541.9990 
 673   0.0000      19.976078       543.5767 
 674   0.0000      20.066576       546.0393 
 675   0.0000      20.214520       550.0650 
 676   0.0000      20.408841       555.3528 
 677   0.0000      20.625266       561.2420 
 678   0.0000      20.718727       563.7852 
 679   0.0000      20.859686       567.6209 
 680   0.0000      20.929388       569.5176 
 681   0.0000      20.990903       571.1915 
 682   0.0000      21.322279       580.2087 
 683   0.0000      21.751155       591.8790 
 684   0.0000      21.755085       591.9860 
 685   0.0000      22.166707       603.1868 
 686   0.0000      22.411196       609.8396 
 687   0.0000      22.421751       610.1269 
 688   0.0000      23.436917       637.7509 
 689   0.0000      23.541294       640.5912 
 690   0.0000      23.567005       641.2908 
 691   0.0000      23.652913       643.6285 
 692   0.0000      23.670606       644.1099 
 693   0.0000      23.771694       646.8607 
 694   0.0000      23.846287       648.8905 
 695   0.0000      23.960703       652.0039 
 696   0.0000      24.134067       656.7213 
 697   0.0000      24.167522       657.6317 
 698   0.0000      24.796274       674.7409 
 699   0.0000      25.177807       685.1230 
 700   0.0000      25.598205       696.5626 
 701   0.0000      25.669998       698.5161 
 702   0.0000      25.792838       701.8588 
 703   0.0000      32.642784       888.2553 
 704   0.0000      32.676233       889.1655 
 705   0.0000      33.295458       906.0155 
 706   0.0000      34.074128       927.2042 
 707   0.0000      34.077465       927.2950 
 708   0.0000      40.832567      1111.1106 
 709   0.0000      40.987232      1115.3193 
 710   0.0000      41.281804      1123.3350 
 711   0.0000      41.337847      1124.8600 
 712   0.0000      41.659467      1133.6117 
 713   0.0000      77.885570      2119.3741 
 714   0.0000      80.069465      2178.8009 
 715   0.0000      91.014093      2476.6194 
 716   0.0000      91.102129      2479.0150 
 717   0.0000      91.122384      2479.5661 
 718   0.0000      91.155531      2480.4681 
 719   0.0000      91.177763      2481.0731 
 720   0.0000      91.251425      2483.0775 
 721   0.0000      91.298705      2484.3641 
 722   0.0000      91.350693      2485.7787 
 723   0.0000      91.484360      2489.4160 
 724   0.0000      91.505831      2490.0003 
 725   0.0000      91.961313      2502.3945 
 726   0.0000      92.237010      2509.8966 
 727   0.0000      92.451666      2515.7377 
 728   0.0000      92.495903      2516.9415 
 729   0.0000      92.578313      2519.1840 

                 SPIN DOWN ORBITALS
  NO   OCC          E(Eh)            E(eV) 
   0   1.0000      -9.864346      -268.4225 
   1   1.0000      -6.508262      -177.0988 
   2   1.0000      -0.639058       -17.3897 
   3   1.0000      -0.432212       -11.7611 
   4   1.0000      -0.373522       -10.1640 
   5   1.0000      -0.362930        -9.8758 
   6   1.0000      -0.294370        -8.0102 
   7   1.0000      -0.280147        -7.6232 
   8   0.0000      -0.084363        -2.2956 
   9   0.0000      -0.014081        -0.3832 
  10   0.0000       0.006289         0.1711 
  11   0.0000       0.007852         0.2137 
  12   0.0000       0.010921         0.2972 
  13   0.0000       0.026572         0.7231 
  14   0.0000       0.028836         0.7847 
  15   0.0000       0.029117         0.7923 
  16   0.0000       0.030888         0.8405 
  17   0.0000       0.033893         0.9223 
  18   0.0000       0.034057         0.9267 
  19   0.0000       0.035052         0.9538 
  20   0.0000       0.039320         1.0700 
  21   0.0000       0.049373         1.3435 
  22   0.0000       0.063338         1.7235 
  23   0.0000       0.063671         1.7326 
  24   0.0000       0.065242         1.7753 
  25   0.0000       0.069349         1.8871 
  26   0.0000       0.072675         1.9776 
  27   0.0000       0.077840         2.1181 
  28   0.0000       0.079282         2.1574 
  29   0.0000       0.079688         2.1684 
  30   0.0000       0.083676         2.2770 
  31   0.0000       0.089613         2.4385 
  32   0.0000       0.091452         2.4885 
  33   0.0000       0.092579         2.5192 
  34   0.0000       0.102271         2.7829 
  35   0.0000       0.103707         2.8220 
  36   0.0000       0.119830         3.2607 
  37   0.0000       0.127277         3.4634 
  38   0.0000       0.130006         3.5377 
  39   0.0000       0.130248         3.5442 
  40   0.0000       0.133061         3.6208 
  41   0.0000       0.136637         3.7181 
  42   0.0000       0.138856         3.7785 
  43   0.0000       0.139385         3.7929 
  44   0.0000       0.145276         3.9532 
  45   0.0000       0.145431         3.9574 
  46   0.0000       0.148232         4.0336 
  47   0.0000       0.149111         4.0575 
  48   0.0000       0.150832         4.1043 
  49   0.0000       0.157303         4.2804 
  50   0.0000       0.158150         4.3035 
  51   0.0000       0.162724         4.4279 
  52   0.0000       0.164105         4.4655 
  53   0.0000       0.164768         4.4836 
  54   0.0000       0.166679         4.5356 
  55   0.0000       0.177433         4.8282 
  56   0.0000       0.179120         4.8741 
  57   0.0000       0.190456         5.1826 
  58   0.0000       0.191948         5.2232 
  59   0.0000       0.194428         5.2906 
  60   0.0000       0.199163         5.4195 
  61   0.0000       0.204000         5.5511 
  62   0.0000       0.212145         5.7728 
  63   0.0000       0.214532         5.8377 
  64   0.0000       0.218143         5.9360 
  65   0.0000       0.220883         6.0105 
  66   0.0000       0.221795         6.0353 
  67   0.0000       0.225514         6.1366 
  68   0.0000       0.226494         6.1632 
  69   0.0000       0.231611         6.3024 
  70   0.0000       0.237113         6.4522 
  71   0.0000       0.239763         6.5243 
  72   0.0000       0.243210         6.6181 
  73   0.0000       0.255851         6.9620 
  74   0.0000       0.257188         6.9984 
  75   0.0000       0.260001         7.0750 
  76   0.0000       0.266381         7.2486 
  77   0.0000       0.266616         7.2550 
  78   0.0000       0.268892         7.3169 
  79   0.0000       0.274450         7.4682 
  80   0.0000       0.277590         7.5536 
  81   0.0000       0.279167         7.5965 
  82   0.0000       0.285340         7.7645 
  83   0.0000       0.286824         7.8049 
  84   0.0000       0.296918         8.0795 
  85   0.0000       0.298820         8.1313 
  86   0.0000       0.303725         8.2648 
  87   0.0000       0.307986         8.3807 
  88   0.0000       0.313478         8.5302 
  89   0.0000       0.313685         8.5358 
  90   0.0000       0.319612         8.6971 
  91   0.0000       0.320982         8.7344 
  92   0.0000       0.323273         8.7967 
  93   0.0000       0.327203         8.9036 
  94   0.0000       0.331135         9.0106 
  95   0.0000       0.333780         9.0826 
  96   0.0000       0.337072         9.1722 
  97   0.0000       0.340447         9.2640 
  98   0.0000       0.342032         9.3072 
  99   0.0000       0.344587         9.3767 
 100   0.0000       0.345137         9.3917 
 101   0.0000       0.352262         9.5855 
 102   0.0000       0.357746         9.7348 
 103   0.0000       0.369083        10.0433 
 104   0.0000       0.370489        10.0815 
 105   0.0000       0.372126        10.1261 
 106   0.0000       0.375604        10.2207 
 107   0.0000       0.380686        10.3590 
 108   0.0000       0.384228        10.4554 
 109   0.0000       0.385063        10.4781 
 110   0.0000       0.394214        10.7271 
 111   0.0000       0.395592        10.7646 
 112   0.0000       0.398612        10.8468 
 113   0.0000       0.399817        10.8796 
 114   0.0000       0.407653        11.0928 
 115   0.0000       0.410480        11.1697 
 116   0.0000       0.412382        11.2215 
 117   0.0000       0.419827        11.4241 
 118   0.0000       0.420036        11.4298 
 119   0.0000       0.424386        11.5481 
 120   0.0000       0.429858        11.6970 
 121   0.0000       0.434714        11.8292 
 122   0.0000       0.436120        11.8674 
 123   0.0000       0.443751        12.0751 
 124   0.0000       0.447368        12.1735 
 125   0.0000       0.450262        12.2522 
 126   0.0000       0.459503        12.5037 
 127   0.0000       0.461106        12.5473 
 128   0.0000       0.464526        12.6404 
 129   0.0000       0.468505        12.7487 
 130   0.0000       0.473836        12.8937 
 131   0.0000       0.478142        13.0109 
 132   0.0000       0.489547        13.3212 
 133   0.0000       0.490184        13.3386 
 134   0.0000       0.495348        13.4791 
 135   0.0000       0.500162        13.6101 
 136   0.0000       0.506353        13.7786 
 137   0.0000       0.508004        13.8235 
 138   0.0000       0.514356        13.9963 
 139   0.0000       0.519844        14.1457 
 140   0.0000       0.520489        14.1632 
 141   0.0000       0.523652        14.2493 
 142   0.0000       0.531844        14.4722 
 143   0.0000       0.533336        14.5128 
 144   0.0000       0.540036        14.6951 
 145   0.0000       0.547358        14.8944 
 146   0.0000       0.547859        14.9080 
 147   0.0000       0.551118        14.9967 
 148   0.0000       0.555701        15.1214 
 149   0.0000       0.560978        15.2650 
 150   0.0000       0.571734        15.5577 
 151   0.0000       0.573704        15.6113 
 152   0.0000       0.574512        15.6333 
 153   0.0000       0.580957        15.8087 
 154   0.0000       0.583961        15.8904 
 155   0.0000       0.586237        15.9523 
 156   0.0000       0.586828        15.9684 
 157   0.0000       0.594115        16.1667 
 158   0.0000       0.595729        16.2106 
 159   0.0000       0.597749        16.2656 
 160   0.0000       0.614052        16.7092 
 161   0.0000       0.614583        16.7237 
 162   0.0000       0.615113        16.7381 
 163   0.0000       0.620599        16.8874 
 164   0.0000       0.621875        16.9221 
 165   0.0000       0.626928        17.0596 
 166   0.0000       0.628913        17.1136 
 167   0.0000       0.635564        17.2946 
 168   0.0000       0.638907        17.3855 
 169   0.0000       0.641572        17.4581 
 170   0.0000       0.644037        17.5251 
 171   0.0000       0.651410        17.7258 
 172   0.0000       0.655154        17.8277 
 173   0.0000       0.656810        17.8727 
 174   0.0000       0.660649        17.9772 
 175   0.0000       0.669988        18.2313 
 176   0.0000       0.686691        18.6858 
 177   0.0000       0.692616        18.8470 
 178   0.0000       0.694850        18.9078 
 179   0.0000       0.695159        18.9162 
 180   0.0000       0.696904        18.9637 
 181   0.0000       0.702355        19.1120 
 182   0.0000       0.705501        19.1977 
 183   0.0000       0.719717        19.5845 
 184   0.0000       0.726010        19.7557 
 185   0.0000       0.732302        19.9269 
 186   0.0000       0.734731        19.9930 
 187   0.0000       0.742953        20.2168 
 188   0.0000       0.746374        20.3099 
 189   0.0000       0.754697        20.5364 
 190   0.0000       0.761993        20.7349 
 191   0.0000       0.768360        20.9081 
 192   0.0000       0.770017        20.9532 
 193   0.0000       0.770338        20.9620 
 194   0.0000       0.774844        21.0846 
 195   0.0000       0.786669        21.4064 
 196   0.0000       0.787665        21.4335 
 197   0.0000       0.792899        21.5759 
 198   0.0000       0.799650        21.7596 
 199   0.0000       0.802122        21.8269 
 200   0.0000       0.810837        22.0640 
 201   0.0000       0.815430        22.1890 
 202   0.0000       0.833558        22.6823 
 203   0.0000       0.840507        22.8714 
 204   0.0000       0.843718        22.9587 
 205   0.0000       0.848058        23.0768 
 206   0.0000       0.852179        23.1890 
 207   0.0000       0.856999        23.3201 
 208   0.0000       0.860035        23.4027 
 209   0.0000       0.864974        23.5371 
 210   0.0000       0.866043        23.5662 
 211   0.0000       0.872832        23.7510 
 212   0.0000       0.880397        23.9568 
 213   0.0000       0.888543        24.1785 
 214   0.0000       0.893308        24.3081 
 215   0.0000       0.897854        24.4319 
 216   0.0000       0.898262        24.4429 
 217   0.0000       0.899375        24.4732 
 218   0.0000       0.909282        24.7428 
 219   0.0000       0.909999        24.7623 
 220   0.0000       0.918868        25.0037 
 221   0.0000       0.919991        25.0342 
 222   0.0000       0.924736        25.1633 
 223   0.0000       0.929846        25.3024 
 224   0.0000       0.932167        25.3656 
 225   0.0000       0.937288        25.5049 
 226   0.0000       0.937701        25.5162 
 227   0.0000       0.942737        25.6532 
 228   0.0000       0.944081        25.6897 
 229   0.0000       0.949114        25.8267 
 230   0.0000       0.961287        26.1579 
 231   0.0000       0.963744        26.2248 
 232   0.0000       0.967021        26.3140 
 233   0.0000       0.969201        26.3733 
 234   0.0000       0.975209        26.5368 
 235   0.0000       0.982060        26.7232 
 236   0.0000       0.982212        26.7273 
 237   0.0000       0.986690        26.8492 
 238   0.0000       0.989602        26.9284 
 239   0.0000       0.997313        27.1383 
 240   0.0000       1.003982        27.3197 
 241   0.0000       1.005893        27.3717 
 242   0.0000       1.010985        27.5103 
 243   0.0000       1.016012        27.6471 
 244   0.0000       1.017323        27.6828 
 245   0.0000       1.022474        27.8229 
 246   0.0000       1.028656        27.9912 
 247   0.0000       1.031371        28.0650 
 248   0.0000       1.033014        28.1097 
 249   0.0000       1.037874        28.2420 
 250   0.0000       1.041833        28.3497 
 251   0.0000       1.050005        28.5721 
 252   0.0000       1.053078        28.6557 
 253   0.0000       1.053154        28.6578 
 254   0.0000       1.058313        28.7982 
 255   0.0000       1.065950        29.0060 
 256   0.0000       1.069270        29.0963 
 257   0.0000       1.082858        29.4661 
 258   0.0000       1.083478        29.4829 
 259   0.0000       1.091255        29.6946 
 260   0.0000       1.091575        29.7033 
 261   0.0000       1.100358        29.9423 
 262   0.0000       1.107166        30.1275 
 263   0.0000       1.115372        30.3508 
 264   0.0000       1.130011        30.7492 
 265   0.0000       1.160386        31.5757 
 266   0.0000       1.164131        31.6776 
 267   0.0000       1.176122        32.0039 
 268   0.0000       1.208346        32.8808 
 269   0.0000       1.228058        33.4172 
 270   0.0000       1.233693        33.5705 
 271   0.0000       1.289613        35.0922 
 272   0.0000       1.299827        35.3701 
 273   0.0000       1.300787        35.3962 
 274   0.0000       1.309608        35.6362 
 275   0.0000       1.360294        37.0155 
 276   0.0000       1.414139        38.4807 
 277   0.0000       1.419127        38.6164 
 278   0.0000       1.443029        39.2668 
 279   0.0000       1.456620        39.6367 
 280   0.0000       1.471127        40.0314 
 281   0.0000       1.474381        40.1199 
 282   0.0000       1.489989        40.5447 
 283   0.0000       1.503179        40.9036 
 284   0.0000       1.525111        41.5004 
 285   0.0000       1.544257        42.0214 
 286   0.0000       1.550520        42.1918 
 287   0.0000       1.570360        42.7317 
 288   0.0000       1.579226        42.9729 
 289   0.0000       1.607566        43.7441 
 290   0.0000       1.613463        43.9046 
 291   0.0000       1.618034        44.0289 
 292   0.0000       1.626363        44.2556 
 293   0.0000       1.635642        44.5081 
 294   0.0000       1.641747        44.6742 
 295   0.0000       1.654612        45.0243 
 296   0.0000       1.659348        45.1532 
 297   0.0000       1.668383        45.3990 
 298   0.0000       1.679768        45.7088 
 299   0.0000       1.699692        46.2510 
 300   0.0000       1.708395        46.4878 
 301   0.0000       1.721505        46.8445 
 302   0.0000       1.725094        46.9422 
 303   0.0000       1.755770        47.7769 
 304   0.0000       1.760335        47.9011 
 305   0.0000       1.779725        48.4288 
 306   0.0000       1.789244        48.6878 
 307   0.0000       1.792624        48.7798 
 308   0.0000       1.801162        49.0121 
 309   0.0000       1.807902        49.1955 
 310   0.0000       1.822530        49.5936 
 311   0.0000       1.840946        50.0947 
 312   0.0000       1.851859        50.3917 
 313   0.0000       1.871221        50.9185 
 314   0.0000       1.887889        51.3721 
 315   0.0000       1.924392        52.3654 
 316   0.0000       1.943266        52.8790 
 317   0.0000       1.975383        53.7529 
 318   0.0000       1.976878        53.7936 
 319   0.0000       2.014843        54.8267 
 320   0.0000       2.018671        54.9308 
 321   0.0000       2.027428        55.1691 
 322   0.0000       2.048940        55.7545 
 323   0.0000       2.099186        57.1218 
 324   0.0000       2.101251        57.1779 
 325   0.0000       2.160933        58.8020 
 326   0.0000       2.166156        58.9441 
 327   0.0000       2.229542        60.6689 
 328   0.0000       2.247300        61.1521 
 329   0.0000       2.265311        61.6422 
 330   0.0000       2.265855        61.6570 
 331   0.0000       2.324350        63.2488 
 332   0.0000       2.326322        63.3024 
 333   0.0000       2.332061        63.4586 
 334   0.0000       2.359239        64.1982 
 335   0.0000       2.388334        64.9899 
 336   0.0000       2.428611        66.0859 
 337   0.0000       2.450751        66.6883 
 338   0.0000       2.465894        67.1004 
 339   0.0000       2.541498        69.1577 
 340   0.0000       2.560743        69.6814 
 341   0.0000       2.572986        70.0145 
 342   0.0000       2.581634        70.2498 
 343   0.0000       2.616159        71.1893 
 344   0.0000       2.639022        71.8114 
 345   0.0000       2.670731        72.6743 
 346   0.0000       2.693852        73.3034 
 347   0.0000       2.728015        74.2331 
 348   0.0000       2.746650        74.7401 
 349   0.0000       2.790884        75.9438 
 350   0.0000       2.846959        77.4697 
 351   0.0000       2.916120        79.3517 
 352   0.0000       3.018130        82.1275 
 353   0.0000       3.137476        85.3751 
 354   0.0000       3.145795        85.6014 
 355   0.0000       3.165938        86.1496 
 356   0.0000       3.182792        86.6082 
 357   0.0000       3.186139        86.6993 
 358   0.0000       3.214047        87.4587 
 359   0.0000       3.214338        87.4666 
 360   0.0000       3.256862        88.6237 
 361   0.0000       3.266137        88.8761 
 362   0.0000       3.282340        89.3170 
 363   0.0000       3.314407        90.1896 
 364   0.0000       3.326640        90.5225 
 365   0.0000       3.346783        91.0706 
 366   0.0000       3.389557        92.2345 
 367   0.0000       3.417577        92.9970 
 368   0.0000       3.424226        93.1779 
 369   0.0000       3.444268        93.7233 
 370   0.0000       3.466368        94.3247 
 371   0.0000       3.493893        95.0737 
 372   0.0000       3.494553        95.0916 
 373   0.0000       3.518707        95.7489 
 374   0.0000       3.560150        96.8766 
 375   0.0000       3.598815        97.9287 
 376   0.0000       3.636130        98.9441 
 377   0.0000       3.656864        99.5083 
 378   0.0000       3.664979        99.7292 
 379   0.0000       3.691448       100.4494 
 380   0.0000       3.704221       100.7970 
 381   0.0000       3.745679       101.9251 
 382   0.0000       3.748555       102.0034 
 383   0.0000       3.751920       102.0949 
 384   0.0000       3.787916       103.0744 
 385   0.0000       3.793963       103.2390 
 386   0.0000       3.802377       103.4679 
 387   0.0000       3.827530       104.1524 
 388   0.0000       3.836608       104.3994 
 389   0.0000       3.855059       104.9015 
 390   0.0000       3.872753       105.3830 
 391   0.0000       3.880398       105.5910 
 392   0.0000       3.888395       105.8086 
 393   0.0000       3.907072       106.3168 
 394   0.0000       3.923143       106.7541 
 395   0.0000       3.958998       107.7298 
 396   0.0000       3.967853       107.9708 
 397   0.0000       4.007381       109.0464 
 398   0.0000       4.008703       109.0823 
 399   0.0000       4.051401       110.2442 
 400   0.0000       4.058180       110.4287 
 401   0.0000       4.100349       111.5762 
 402   0.0000       4.131689       112.4290 
 403   0.0000       4.138889       112.6249 
 404   0.0000       4.139699       112.6469 
 405   0.0000       4.159915       113.1970 
 406   0.0000       4.209066       114.5345 
 407   0.0000       4.211042       114.5883 
 408   0.0000       4.233820       115.2081 
 409   0.0000       4.262736       115.9949 
 410   0.0000       4.306660       117.1902 
 411   0.0000       4.315060       117.4188 
 412   0.0000       4.326690       117.7352 
 413   0.0000       4.332481       117.8928 
 414   0.0000       4.380039       119.1869 
 415   0.0000       4.408354       119.9574 
 416   0.0000       4.435226       120.6886 
 417   0.0000       4.459714       121.3550 
 418   0.0000       4.482878       121.9853 
 419   0.0000       4.492899       122.2580 
 420   0.0000       4.521896       123.0470 
 421   0.0000       4.563954       124.1915 
 422   0.0000       4.608791       125.4116 
 423   0.0000       4.633830       126.0929 
 424   0.0000       4.673127       127.1623 
 425   0.0000       4.684393       127.4688 
 426   0.0000       4.758157       129.4760 
 427   0.0000       4.760719       129.5457 
 428   0.0000       4.792044       130.3981 
 429   0.0000       4.794917       130.4763 
 430   0.0000       4.855631       132.1284 
 431   0.0000       4.904572       133.4602 
 432   0.0000       4.912483       133.6755 
 433   0.0000       4.945756       134.5809 
 434   0.0000       4.970057       135.2421 
 435   0.0000       4.983965       135.6206 
 436   0.0000       4.988395       135.7411 
 437   0.0000       5.048473       137.3759 
 438   0.0000       5.213320       141.8617 
 439   0.0000       5.230686       142.3342 
 440   0.0000       5.262134       143.1899 
 441   0.0000       5.287436       143.8785 
 442   0.0000       5.358046       145.7998 
 443   0.0000       5.408478       147.1722 
 444   0.0000       5.447513       148.2344 
 445   0.0000       5.457074       148.4945 
 446   0.0000       5.470236       148.8527 
 447   0.0000       5.493346       149.4816 
 448   0.0000       5.534828       150.6103 
 449   0.0000       5.581833       151.8894 
 450   0.0000       5.611240       152.6896 
 451   0.0000       5.613794       152.7591 
 452   0.0000       5.772314       157.0727 
 453   0.0000       5.773239       157.0978 
 454   0.0000       5.814715       158.2264 
 455   0.0000       5.882168       160.0619 
 456   0.0000       5.889166       160.2523 
 457   0.0000       5.941320       161.6715 
 458   0.0000       5.973450       162.5458 
 459   0.0000       6.004263       163.3843 
 460   0.0000       6.051251       164.6629 
 461   0.0000       6.103552       166.0861 
 462   0.0000       6.166904       167.8100 
 463   0.0000       6.237209       169.7231 
 464   0.0000       6.284440       171.0083 
 465   0.0000       6.328649       172.2113 
 466   0.0000       6.369411       173.3205 
 467   0.0000       6.427325       174.8964 
 468   0.0000       6.515862       177.3056 
 469   0.0000       6.549294       178.2153 
 470   0.0000       6.576346       178.9515 
 471   0.0000       6.681197       181.8046 
 472   0.0000       6.757881       183.8913 
 473   0.0000       6.804055       185.1477 
 474   0.0000       6.915124       188.1701 
 475   0.0000       6.928651       188.5382 
 476   0.0000       6.941204       188.8798 
 477   0.0000       6.966444       189.5666 
 478   0.0000       6.976843       189.8496 
 479   0.0000       7.037520       191.5007 
 480   0.0000       7.222600       196.5369 
 481   0.0000       7.512883       204.4359 
 482   0.0000       7.776328       211.6046 
 483   0.0000       7.888720       214.6630 
 484   0.0000       7.921268       215.5486 
 485   0.0000       7.966263       216.7730 
 486   0.0000       7.989404       217.4027 
 487   0.0000       8.006551       217.8693 
 488   0.0000       8.509698       231.5607 
 489   0.0000       8.562212       232.9896 
 490   0.0000       8.588195       233.6967 
 491   0.0000       8.629678       234.8255 
 492   0.0000       8.651789       235.4272 
 493   0.0000       8.714446       237.1321 
 494   0.0000       8.730858       237.5787 
 495   0.0000       8.753746       238.2016 
 496   0.0000       8.800125       239.4636 
 497   0.0000       8.844445       240.6696 
 498   0.0000       8.845920       240.7097 
 499   0.0000       8.901700       242.2276 
 500   0.0000       8.925075       242.8636 
 501   0.0000       8.944143       243.3825 
 502   0.0000       8.996865       244.8172 
 503   0.0000       9.014807       245.3054 
 504   0.0000       9.035215       245.8607 
 505   0.0000       9.078518       247.0390 
 506   0.0000       9.084424       247.1997 
 507   0.0000       9.096152       247.5189 
 508   0.0000       9.116204       248.0645 
 509   0.0000       9.137716       248.6499 
 510   0.0000       9.187619       250.0078 
 511   0.0000       9.192065       250.1288 
 512   0.0000       9.223273       250.9780 
 513   0.0000       9.273048       252.3325 
 514   0.0000       9.323647       253.7093 
 515   0.0000       9.326426       253.7849 
 516   0.0000       9.392448       255.5815 
 517   0.0000       9.428512       256.5629 
 518   0.0000       9.475849       257.8510 
 519   0.0000       9.505435       258.6560 
 520   0.0000       9.564551       260.2647 
 521   0.0000       9.570545       260.4278 
 522   0.0000       9.628195       261.9965 
 523   0.0000       9.699501       263.9368 
 524   0.0000       9.765624       265.7361 
 525   0.0000       9.838617       267.7224 
 526   0.0000       9.869278       268.5567 
 527   0.0000       9.889117       269.0966 
 528   0.0000       9.891490       269.1611 
 529   0.0000       9.947457       270.6841 
 530   0.0000       9.956712       270.9359 
 531   0.0000       9.958183       270.9759 
 532   0.0000      10.007010       272.3046 
 533   0.0000      10.042532       273.2712 
 534   0.0000      10.055860       273.6339 
 535   0.0000      10.152940       276.2756 
 536   0.0000      10.213312       277.9184 
 537   0.0000      10.266112       279.3551 
 538   0.0000      10.285442       279.8811 
 539   0.0000      10.349727       281.6304 
 540   0.0000      10.409251       283.2501 
 541   0.0000      10.535861       286.6953 
 542   0.0000      10.541311       286.8437 
 543   0.0000      10.730550       291.9931 
 544   0.0000      10.760182       292.7994 
 545   0.0000      10.781563       293.3813 
 546   0.0000      10.856055       295.4083 
 547   0.0000      10.916783       297.0608 
 548   0.0000      10.921065       297.1773 
 549   0.0000      11.041261       300.4480 
 550   0.0000      11.050316       300.6944 
 551   0.0000      11.111888       302.3698 
 552   0.0000      11.167896       303.8939 
 553   0.0000      11.173731       304.0527 
 554   0.0000      11.184027       304.3329 
 555   0.0000      11.237105       305.7772 
 556   0.0000      11.317442       307.9632 
 557   0.0000      11.417950       310.6982 
 558   0.0000      11.433388       311.1183 
 559   0.0000      11.530666       313.7654 
 560   0.0000      11.571241       314.8695 
 561   0.0000      11.578087       315.0558 
 562   0.0000      11.643094       316.8247 
 563   0.0000      11.681156       317.8604 
 564   0.0000      11.786439       320.7253 
 565   0.0000      11.795092       320.9608 
 566   0.0000      11.850148       322.4589 
 567   0.0000      11.882350       323.3352 
 568   0.0000      11.904825       323.9468 
 569   0.0000      11.969172       325.6977 
 570   0.0000      12.041590       327.6683 
 571   0.0000      12.100321       329.2665 
 572   0.0000      12.259983       333.6111 
 573   0.0000      12.275884       334.0438 
 574   0.0000      12.307734       334.9105 
[...]
      g-1     :     0.013164
      g+2     :     0.000716
      g-2     :     0.000761
      g+3     :     0.000178
      g-3     :     0.015224
      g+4     :     0.008348
      g-4     :     0.000903
      h0      :     0.002281  h :     0.021396
      h+1     :     0.000051
      h-1     :     0.000379
      h+2     :     0.005190
      h-2     :     0.000174
      h+3     :     0.000217
      h-3     :     0.000555
      h+4     :     0.008407
      h-4     :     0.000013
      h+5     :     0.000257
      h-5     :     0.003872
  1 B s       :     2.327937  s :     2.327937
      pz      :     0.659645  p :     1.409395
      px      :     0.079305
      py      :     0.670445
      dz2     :     0.060811  d :     0.365457
      dxz     :     0.000735
      dyz     :     0.168541
      dx2y2   :     0.068741
      dxy     :     0.066629
      f0      :     0.013854  f :     0.089697
      f+1     :     0.002397
      f-1     :     0.017832
      f+2     :     0.019599
      f-2     :     0.000438
      f+3     :     0.023678
      f-3     :     0.011898
      g0      :     0.000638  g :     0.024349
      g+1     :     0.000057
      g-1     :     0.005963
      g+2     :     0.002393
      g-2     :     0.001039
      g+3     :     0.000328
      g-3     :     0.004585
      g+4     :     0.003122
      g-4     :     0.006224
      h0      :     0.000454  h :     0.006936
      h+1     :     0.000037
      h-1     :     0.000340
      h+2     :     0.000878
      h-2     :     0.000044
      h+3     :     0.000301
      h-3     :     0.000253
      h+4     :     0.000956
      h-4     :     0.000331
      h+5     :     0.002215
      h-5     :     0.001126
  2 H s       :     0.585201  s :     0.585201
      pz      :     0.080304  p :     0.324275
      px      :     0.134670
      py      :     0.109301
      dz2     :     0.019901  d :     0.286200
      dxz     :     0.087345
      dyz     :     0.020716
      dx2y2   :     0.073252
      dxy     :     0.084987
      f0      :     0.020958  f :     0.139800
      f+1     :     0.005452
      f-1     :     0.006797
      f+2     :     0.033741
      f-2     :     0.015428
      f+3     :     0.034491
      f-3     :     0.022933
      g0      :     0.001096  g :     0.070994
      g+1     :     0.006433
      g-1     :     0.015245
      g+2     :     0.001604
      g-2     :     0.002085
      g+3     :     0.023372
      g-3     :     0.000594
      g+4     :     0.004554
      g-4     :     0.016010
  3 H s       :     0.612282  s :     0.612282
      pz      :     0.118149  p :     0.313798
      px      :     0.085941
      py      :     0.109708
      dz2     :     0.081842  d :     0.269214
      dxz     :     0.050812
      dyz     :     0.061599
      dx2y2   :     0.056158
      dxy     :     0.018804
      f0      :     0.031923  f :     0.127949
      f+1     :     0.007362
      f-1     :     0.027470
      f+2     :     0.028105
      f-2     :     0.009789
      f+3     :     0.006607
      f-3     :     0.016693
      g0      :     0.016613  g :     0.063061
      g+1     :     0.001120
      g-1     :     0.003718
      g+2     :     0.015371
      g-2     :     0.003173
      g+3     :     0.003774
      g-3     :     0.007728
      g+4     :     0.006863
      g-4     :     0.004702
  4 H s       :     0.612282  s :     0.612282
      pz      :     0.118149  p :     0.313798
      px      :     0.085941
      py      :     0.109708
      dz2     :     0.081842  d :     0.269214
      dxz     :     0.050813
      dyz     :     0.061599
      dx2y2   :     0.056157
      dxy     :     0.018803
      f0      :     0.031923  f :     0.127949
      f+1     :     0.007362
      f-1     :     0.027470
      f+2     :     0.028105
      f-2     :     0.009789
      f+3     :     0.006607
      f-3     :     0.016693
      g0      :     0.016613  g :     0.063061
      g+1     :     0.001120
      g-1     :     0.003718
      g+2     :     0.015371
      g-2     :     0.003173
      g+3     :     0.003774
      g-3     :     0.007728
      g+4     :     0.006863
      g-4     :     0.004702
  5 H s       :     0.685331  s :     0.685331
      pz      :     0.103174  p :     0.183230
      px      :     0.009341
      py      :     0.070715
      dz2     :     0.067301  d :     0.161060
      dxz     :     0.005319
      dyz     :     0.048223
      dx2y2   :     0.027519
      dxy     :     0.012697
      f0      :     0.034888  f :     0.120670
      f+1     :     0.000198
      f-1     :     0.027370
      f+2     :     0.019001
      f-2     :     0.009909
      f+3     :     0.014868
      f-3     :     0.014437
      g0      :     0.022043  g :     0.088725
      g+1     :     0.000738
      g-1     :     0.008002
      g+2     :     0.015871
      g-2     :     0.000547
      g+3     :     0.011182
      g-3     :     0.007904
      g+4     :     0.008414
      g-4     :     0.014025
  6 H s       :     0.685331  s :     0.685331
      pz      :     0.103174  p :     0.183230
      px      :     0.009341
      py      :     0.070715
      dz2     :     0.067301  d :     0.161060
      dxz     :     0.005320
      dyz     :     0.048223
      dx2y2   :     0.027519
      dxy     :     0.012697
      f0      :     0.034888  f :     0.120670
      f+1     :     0.000198
      f-1     :     0.027370
      f+2     :     0.019001
      f-2     :     0.009909
      f+3     :     0.014868
      f-3     :     0.014437
      g0      :     0.022043  g :     0.088725
      g+1     :     0.000738
      g-1     :     0.008002
      g+2     :     0.015871
      g-2     :     0.000547
      g+3     :     0.011182
      g-3     :     0.007904
      g+4     :     0.008414
      g-4     :     0.014025

SPIN
  0 C s       :    -0.000000  s :    -0.000000
      pz      :     0.000000  p :     0.000000
      px      :    -0.000000
      py      :     0.000000
      dz2     :    -0.000000  d :    -0.000000
      dxz     :     0.000000
      dyz     :     0.000000
      dx2y2   :    -0.000000
      dxy     :     0.000000
      f0      :    -0.000000  f :     0.000000
      f+1     :    -0.000000
      f-1     :    -0.000000
      f+2     :     0.000000
      f-2     :    -0.000000
      f+3     :     0.000000
      f-3     :     0.000000
      g0      :    -0.000000  g :    -0.000000
      g+1     :    -0.000000
      g-1     :    -0.000000
      g+2     :    -0.000000
      g-2     :    -0.000000
      g+3     :     0.000000
      g-3     :     0.000000
      g+4     :     0.000000
      g-4     :    -0.000000
      h0      :     0.000000  h :     0.000000
      h+1     :     0.000000
      h-1     :    -0.000000
      h+2     :     0.000000
      h-2     :    -0.000000
      h+3     :    -0.000000
      h-3     :     0.000000
      h+4     :     0.000000
      h-4     :     0.000000
      h+5     :    -0.000000
      h-5     :    -0.000000
  1 B s       :     0.000000  s :     0.000000
      pz      :    -0.000000  p :    -0.000000
      px      :    -0.000000
      py      :    -0.000000
      dz2     :    -0.000000  d :    -0.000000
      dxz     :     0.000000
      dyz     :    -0.000000
      dx2y2   :    -0.000000
      dxy     :    -0.000000
      f0      :    -0.000000  f :     0.000000
      f+1     :     0.000000
      f-1     :     0.000000
      f+2     :     0.000000
      f-2     :     0.000000
      f+3     :    -0.000000
      f-3     :     0.000000
      g0      :     0.000000  g :     0.000000
      g+1     :     0.000000
      g-1     :    -0.000000
      g+2     :    -0.000000
      g-2     :     0.000000
      g+3     :    -0.000000
      g-3     :     0.000000
      g+4     :     0.000000
      g-4     :    -0.000000
      h0      :     0.000000  h :    -0.000000
      h+1     :    -0.000000
      h-1     :    -0.000000
      h+2     :    -0.000000
      h-2     :     0.000000
      h+3     :     0.000000
      h-3     :     0.000000
      h+4     :    -0.000000
      h-4     :    -0.000000
      h+5     :    -0.000000
      h-5     :    -0.000000
  2 H s       :    -0.000000  s :    -0.000000
      pz      :     0.000000  p :     0.000000
      px      :    -0.000000
      py      :     0.000000
      dz2     :    -0.000000  d :     0.000000
      dxz     :    -0.000000
      dyz     :     0.000000
      dx2y2   :     0.000000
      dxy     :     0.000000
      f0      :    -0.000000  f :    -0.000000
      f+1     :    -0.000000
      f-1     :     0.000000
      f+2     :     0.000000
      f-2     :    -0.000000
      f+3     :    -0.000000
      f-3     :    -0.000000
      g0      :     0.000000  g :     0.000000
      g+1     :     0.000000
      g-1     :     0.000000
      g+2     :    -0.000000
      g-2     :    -0.000000
      g+3     :     0.000000
      g-3     :    -0.000000
      g+4     :    -0.000000
      g-4     :     0.000000
  3 H s       :     0.000000  s :     0.000000
      pz      :    -0.000000  p :    -0.000000
      px      :     0.000000
      py      :    -0.000000
      dz2     :    -0.000000  d :    -0.000000
      dxz     :    -0.000000
      dyz     :    -0.000000
      dx2y2   :    -0.000000
      dxy     :     0.000000
      f0      :     0.000000  f :     0.000000
      f+1     :     0.000000
      f-1     :     0.000000
      f+2     :     0.000000
      f-2     :     0.000000
      f+3     :     0.000000
      f-3     :    -0.000000
      g0      :    -0.000000  g :     0.000000
      g+1     :    -0.000000
      g-1     :     0.000000
      g+2     :     0.000000
      g-2     :    -0.000000
      g+3     :    -0.000000
      g-3     :     0.000000
      g+4     :     0.000000
      g-4     :     0.000000
  4 H s       :     0.000000  s :     0.000000
      pz      :     0.000000  p :     0.000000
      px      :     0.000000
      py      :    -0.000000
      dz2     :    -0.000000  d :    -0.000000
      dxz     :    -0.000000
      dyz     :    -0.000000
      dx2y2   :    -0.000000
      dxy     :     0.000000
      f0      :    -0.000000  f :     0.000000
      f+1     :    -0.000000
      f-1     :    -0.000000
      f+2     :     0.000000
      f-2     :     0.000000
      f+3     :    -0.000000
      f-3     :     0.000000
      g0      :    -0.000000  g :     0.000000
      g+1     :     0.000000
      g-1     :     0.000000
      g+2     :     0.000000
      g-2     :     0.000000
      g+3     :    -0.000000
      g-3     :     0.000000
      g+4     :    -0.000000
      g-4     :    -0.000000
  5 H s       :    -0.000000  s :    -0.000000
      pz      :     0.000000  p :    -0.000000
      px      :     0.000000
      py      :    -0.000000
      dz2     :    -0.000000  d :    -0.000000
      dxz     :    -0.000000
      dyz     :    -0.000000
      dx2y2   :     0.000000
      dxy     :    -0.000000
      f0      :    -0.000000  f :    -0.000000
      f+1     :     0.000000
      f-1     :    -0.000000
      f+2     :    -0.000000
      f-2     :    -0.000000
      f+3     :     0.000000
      f-3     :     0.000000
      g0      :    -0.000000  g :     0.000000
      g+1     :    -0.000000
      g-1     :     0.000000
      g+2     :     0.000000
      g-2     :    -0.000000
      g+3     :     0.000000
      g-3     :     0.000000
      g+4     :     0.000000
      g-4     :     0.000000
  6 H s       :     0.000000  s :     0.000000
      pz      :     0.000000  p :     0.000000
      px      :     0.000000
      py      :    -0.000000
      dz2     :    -0.000000  d :    -0.000000
      dxz     :    -0.000000
      dyz     :    -0.000000
      dx2y2   :     0.000000
      dxy     :     0.000000
      f0      :    -0.000000  f :     0.000000
      f+1     :     0.000000
      f-1     :     0.000000
      f+2     :    -0.000000
      f-2     :     0.000000
      f+3     :     0.000000
      f-3     :     0.000000
      g0      :    -0.000000  g :    -0.000000
      g+1     :    -0.000000
      g-1     :    -0.000000
      g+2     :    -0.000000
      g-2     :    -0.000000
      g+3     :     0.000000
      g-3     :    -0.000000
      g+4     :     0.000000
      g-4     :     0.000000


                      *****************************
                      * MAYER POPULATION ANALYSIS *
                      *****************************

  NA   - Mulliken gross atomic population
  ZA   - Total nuclear charge
  QA   - Mulliken gross atomic charge
  VA   - Mayer's total valence
  BVA  - Mayer's bonded valence
  FA   - Mayer's free valence

  ATOM       NA         ZA         QA         VA         BVA        FA
  0 C      6.3500     6.0000    -0.3500     3.8665     3.8665     0.0000
  1 B      4.8290     5.0000     0.1710     2.9129     2.9129    -0.0000
  2 H      0.8414     1.0000     0.1586     0.8808     0.8808     0.0000
  3 H      0.9363     1.0000     0.0637     1.0703     1.0703     0.0000
  4 H      0.9366     1.0000     0.0634     1.0696     1.0696     0.0000
  5 H      1.0527     1.0000    -0.0527     0.9182     0.9182     0.0000
  6 H      1.0541     1.0000    -0.0541     0.9195     0.9195    -0.0000

  Mayer bond orders larger than 0.1
B(  0-C ,  1-B ) :   0.9050 B(  0-C ,  2-H ) :   0.8783 B(  0-C ,  3-H ) :   1.0730 
B(  0-C ,  4-H ) :   1.0726 B(  1-B ,  5-H ) :   1.0152 B(  1-B ,  6-H ) :   1.0165 


-------
TIMINGS
-------

Total SCF time: 0 days 2 hours 8 min 47 sec 

Total time                  ....    7727.112 sec
Sum of individual times     ....    7724.857 sec  (100.0%)

Fock matrix formation       ....    7701.615 sec  ( 99.7%)
  XC integration            ....     202.542 sec  (  2.6% of F)
    Basis function eval.    ....       8.635 sec  (  4.3% of XC)
    Density eval.           ....      62.946 sec  ( 31.1% of XC)
    XC-Functional eval.     ....       0.629 sec  (  0.3% of XC)
    XC-Potential eval.      ....     125.417 sec  ( 61.9% of XC)
Diagonalization             ....       7.970 sec  (  0.1%)
Density matrix formation    ....       0.100 sec  (  0.0%)
Population analysis         ....       0.551 sec  (  0.0%)
Initial guess               ....       7.730 sec  (  0.1%)
Orbital Transformation      ....       0.000 sec  (  0.0%)
Orbital Orthonormalization  ....       0.000 sec  (  0.0%)
DIIS solution               ....       3.488 sec  (  0.0%)
Grid generation             ....       3.404 sec  (  0.0%)

-------------------------   --------------------
FINAL SINGLE POINT ENERGY       -65.853849496421
-------------------------   --------------------


                            ***************************************
                            *     ORCA property calculations      *
                            ***************************************

                                    ---------------------
                                    Active property flags
                                    ---------------------
   (+) Dipole Moment
   (+) Polarizability


------------------------------------------------------------------------------
                       ORCA ELECTRIC PROPERTIES CALCULATION
------------------------------------------------------------------------------

Dipole Moment Calculation                       ... on
Quadrupole Moment Calculation                   ... off
Polarizability Calculation                      ... Analytic (CP-SCF)
GBWName                                         ... ch3bh2_pbe.gbw
Electron density file                           ... ch3bh2_pbe.scfp.tmp
The origin for moment calculation is the CENTER OF MASS  = (-0.016481,  0.064710 -0.000000)

-------------
DIPOLE MOMENT
-------------
                                X             Y             Z
Electronic contribution:     -0.20693       0.75450      -0.00000
Nuclear contribution   :      0.24617      -1.03742       0.00000
                        -----------------------------------------
Total Dipole Moment    :      0.03924      -0.28292       0.00000
                        -----------------------------------------
Magnitude (a.u.)       :      0.28563
Magnitude (Debye)      :      0.72601



--------------------
Rotational spectrum 
--------------------
 
Rotational constants in cm-1:     3.228710     0.723532     0.660823 
Rotational constants in MHz : 96794.286037 21690.947830 19810.964189 

 Dipole components along the rotational axes: 
x,y,z [a.u.] :    -0.282872    -0.000000    -0.039575 
x,y,z [Debye]:    -0.719004    -0.000001    -0.100592 

 
Transforming and storing MO dipole integrals   ... done

                ... starting polarizability calculation

Opening the Dipole integral file               ... (ch3bh2_pbe.dmo.tmp) done
Reading Dipole-MO integrals                    ... done
Solving CP-SCF equations                       ... 

           ************************************************************
           *        Program running with 4 parallel MPI-processes     *
           *              working on a common directory               *
           ************************************************************

------------------------------------------------------------------------------
                           ORCA CP-SCF CALCULATION
------------------------------------------------------------------------------

Input orbitals are from        ... ch3bh2_pbe.gbw
Input Perturbation             ... ch3bh2_pbe.cpv.tmp
Wavefunction output            ... ch3bh2_pbe.cpu.tmp
Perturbation mode              ... Real perturbation (singlet)
Solver                         ... POPLE
Max. number of iterations      ... 200
Convergence tolerance          ... 1.000e-06
Integral handling              ... Direct
Number of perturbations        ... 3
Number of operators            ... 2
Orbital ranges used for CP-SCF:
 Operator 0:  Orbitals   0...  7  to   8...729
 Operator 1:  Orbitals   0...  7  to   8...729
DFT calculation                         ... on
Exchange functional (SCF)               ... PBE
Exchange functional (CP-SCF)            ... PBE
   PBE kappa parameter  XKappa (SCF)    ...  0.804000
   PBE kappa parameter  XKappa (CP-SCF) ...  0.804000
   PBE mue parameter   XMuePBE (SCF)    ...  0.219520
   PBE mue parameter   XMuePBE (CP-SCF) ...  0.219520
Correlation functional (SCF)            ... PBE
Correlation functional (CP-SCF)         ... PBE
   PBE beta parameter CBetaPBE (SCF)    ...  0.066725
   PBE beta parameter CBetaPBE (CP-SCF) ...  0.066725
 LDA part of GGA corr.  LDAOpt (SCF)    ... PW91-LDA
 LDA part of GGA corr.  LDAOpt (CP-SCF) ... PW91-LDA
Variables per vector in CP-SCF ... 11552
Number of vectors sought       ... 3
Recalculating density on grid  ... done
Calculating the xc-kernel      ... done
     CP-SCF ITERATION   0: 
     CP-SCF ITERATION   1:      0.171651379046
     CP-SCF ITERATION   2:      0.011210231387
     CP-SCF ITERATION   3:      0.000460891453
     CP-SCF ITERATION   4:      0.000011108159
     CP-SCF ITERATION   5:      0.000000279628
done
Reading CP-SCF coefficients                    ... done
Doing the polarizability tensor   ... done
Cleaning up                                    ... done

-------------------------
THE POLARIZABILITY TENSOR
-------------------------

The raw cartesian tensor (atomic units):
   26.35999     -0.31589      0.00001  
   -0.31589     36.03132     -0.00000  
    0.00001     -0.00000     30.47381  
diagonalized tensor: 
   26.34968     30.47381     36.04163  

   -0.99947      0.00000      0.03261  
   -0.03261      0.00000     -0.99947  
    0.00000      1.00000      0.00000  

Isotropic polarizability :  30.95504


Timings for individual modules:

Sum of individual times         ...    13059.091 sec (= 217.652 min)
GTO integral calculation        ...        8.182 sec (=   0.136 min)   0.1 %
SCF iterations                  ...     7731.248 sec (= 128.854 min)  59.2 %
Solution of CP-SCF eqns.        ...     5319.660 sec (=  88.661 min)  40.7 %
                             ****ORCA TERMINATED NORMALLY****
TOTAL RUN TIME: 0 days 3 hours 37 minutes 40 seconds 984 msec
