
                                 *****************
                                 * O   R   C   A *
                                 *****************

           --- An Ab Initio, DFT and Semiempirical electronic structure package ---

                  #######################################################
                  #                        -***-                        #
                  #          Department of theory and spectroscopy      #
                  #               Directorship: Frank Neese             #
                  #        Max Planck Institute fuer Kohlenforschung    #
                  #                Kaiser Wilhelm Platz 1               #
                  #                 D-45470 Muelheim/Ruhr               #
                  #                      Germany                        #
                  #                                                     #
                  #                  All rights reserved                #
                  #                        -***-                        #
                  #######################################################


                         Program Version 4.1.2  - RELEASE  -


 With contributions from (in alphabetic order):
   Daniel Aravena         : Magnetic Properties
   Michael Atanasov       : Ab Initio Ligand Field Theory
   Alexander A. Auer      : GIAO ZORA
   Ute Becker             : Parallelization
   Giovanni Bistoni       : ED, Open-shell LED
   Martin Brehm           : Molecular dynamics
   Dmytro Bykov           : SCF Hessian
   Vijay G. Chilkuri      : MRCI spin determinant printing
   Dipayan Datta          : RHF DLPNO-CCSD density
   Achintya Kumar Dutta   : EOM-CC, STEOM-CC
   Dmitry Ganyushin       : Spin-Orbit,Spin-Spin,Magnetic field MRCI
   Miquel Garcia          : C-PCM Hessian
   Yang Guo               : DLPNO-NEVPT2, CIM, IAO-localization
   Andreas Hansen         : Spin unrestricted coupled pair/coupled cluster methods
   Benjamin Helmich-Paris : CASSCF linear response (MC-RPA)
   Lee Huntington         : MR-EOM, pCC
   Robert Izsak           : Overlap fitted RIJCOSX, COSX-SCS-MP3, EOM
   Christian Kollmar      : KDIIS, OOCD, Brueckner-CCSD(T), CCSD density
   Simone Kossmann        : Meta GGA functionals, TD-DFT gradient, OOMP2, MP2 Hessian
   Martin Krupicka        : AUTO-CI
   Lucas Lang             : DCDCAS
   Dagmar Lenk            : GEPOL surface, SMD
   Dimitrios Liakos       : Extrapolation schemes; parallel MDCI
   Dimitrios Manganas     : ROCIS; embedding schemes
   Dimitrios Pantazis     : SARC Basis sets
   Taras Petrenko         : DFT Hessian,TD-DFT gradient, ASA, ECA, R-Raman, ABS, FL, XAS/XES, NRVS
   Peter Pinski           : DLPNO-MP2, DLPNO-MP2 Gradient
   Christoph Reimann      : Effective Core Potentials
   Marius Retegan         : Local ZFS, SOC
   Christoph Riplinger    : Optimizer, TS searches, QM/MM, DLPNO-CCSD(T), (RO)-DLPNO pert. Triples
   Tobias Risthaus        : Range-separated hybrids, TD-DFT gradient, RPA, STAB
   Michael Roemelt        : Restricted open shell CIS
   Masaaki Saitow         : Open-shell DLPNO
   Barbara Sandhoefer     : DKH picture change effects
   Avijit Sen             : IP-ROCIS
   Kantharuban Sivalingam : CASSCF convergence, NEVPT2, FIC-MRCI
   Bernardo de Souza      : ESD, SOC TD-DFT
   Georgi Stoychev        : AutoAux, RI-MP2 NMR
   Willem Van den Heuvel  : Paramagnetic NMR
   Boris Wezisla          : Elementary symmetry handling
   Frank Wennmohs         : Technical directorship


 We gratefully acknowledge several colleagues who have allowed us to
 interface, adapt or use parts of their codes:
   Stefan Grimme, W. Hujo, H. Kruse,             : VdW corrections, initial TS optimization,
                  C. Bannwarth                     DFT functionals, gCP, sTDA/sTD-DF
   Ed Valeev                                     : LibInt (2-el integral package), F12 methods
   Garnet Chan, S. Sharma, J. Yang, R. Olivares  : DMRG
   Ulf Ekstrom                                   : XCFun DFT Library
   Mihaly Kallay                                 : mrcc  (arbitrary order and MRCC methods)
   Andreas Klamt, Michael Diedenhofen            : otool_cosmo (COSMO solvation model)
   Jiri Pittner, Ondrej Demel                    : Mk-CCSD
   Frank Weinhold                                : gennbo (NPA and NBO analysis)
   Christopher J. Cramer and Donald G. Truhlar   : smd solvation model
   Lars Goerigk                                  : TD-DFT with DH, B97 family of functionals
   V. Asgeirsson, H. Jonsson                     : NEB implementation
   FAccTs GmbH                                   : IRC, NEB, NEB-TS, Multilevel


 Your calculation uses the libint2 library for the computation of 2-el integrals
 For citations please refer to: http://libint.valeyev.net

 This ORCA versions uses:
   CBLAS   interface :  Fast vector & matrix operations
   LAPACKE interface :  Fast linear algebra routines
   SCALAPACK package :  Parallel linear algebra routines


----- Orbital basis set information -----
Your calculation utilizes the basis: aug-pc-4
   H, C-F              : F. Jensen, J. Chem. Phys. 115, 9113 (2001).
                         F. Jensen, J. Chem. Phys. 116, 7372 (2002).
                         F. Jensen, J. Chem. Phys. 117, 9234 (2002).
   Si-Cl               : F. Jensen, T. Helgaker, J. Chem. Phys. 121, 3463 (2004).
   He-B, Ne-Mg, Al, Ar : F. Jensen, J. Phys. Chem. A 111, 11198 (2007).
   K, Ca, Ga-Kr        : F. Jensen, J. Chem. Phys. 136, 094110 (2012).
   Sc-Zn               : F. Jensen, J. Chem. Phys. 138, 014107 (2013).

================================================================================
                                        WARNINGS
                       Please study these warnings very carefully!
================================================================================


INFO   : the flag for use of LIBINT has been found!

================================================================================
                                       INPUT FILE
================================================================================
NAME = ch3f_pbe.inp
|  1> !uks pbe nori aug-pc-4 grid7 nofinalgrid verytightscf
|  2> 
|  3> %maxcore 1500
|  4> 
|  5> %pal nprocs 4 end
|  6> 
|  7> %scf
|  8> 	maxiter 200
|  9> end
| 10> %elprop
| 11> 	dipole true
| 12> 	 polar 1
| 13> 	 maxiter 200
| 14> end
| 15> 
| 16> * xyz 0 1
| 17> C 0.0000 0.0000 -0.6244
| 18> F 0.0000 0.0000 0.7402
| 19> H 0.0000 1.0245 -0.9718
| 20> H 0.8873 -0.5123 -0.9718
| 21> H -0.8873 -0.5123 -0.9718
| 22> *
| 23> 
| 24>                          ****END OF INPUT****
================================================================================

                       ****************************
                       * Single Point Calculation *
                       ****************************

---------------------------------
CARTESIAN COORDINATES (ANGSTROEM)
---------------------------------
  C      0.000000    0.000000   -0.624400
  F      0.000000    0.000000    0.740200
  H      0.000000    1.024500   -0.971800
  H      0.887300   -0.512300   -0.971800
  H     -0.887300   -0.512300   -0.971800

----------------------------
CARTESIAN COORDINATES (A.U.)
----------------------------
  NO LB      ZA    FRAG     MASS         X           Y           Z
   0 C     6.0000    0    12.011    0.000000    0.000000   -1.179945
   1 F     9.0000    0    18.998    0.000000    0.000000    1.398775
   2 H     1.0000    0     1.008    0.000000    1.936024   -1.836436
   3 H     1.0000    0     1.008    1.676754   -0.968107   -1.836436
   4 H     1.0000    0     1.008   -1.676754   -0.968107   -1.836436

--------------------------------
INTERNAL COORDINATES (ANGSTROEM)
--------------------------------
 C      0   0   0     0.000000000000     0.00000000     0.00000000
 F      1   0   0     1.364600000000     0.00000000     0.00000000
 H      1   2   0     1.081798044923   108.73139895     0.00000000
 H      1   2   3     1.081868448565   108.73013463   120.00082844
 H      1   2   3     1.081868448565   108.73013463   239.99917156

---------------------------
INTERNAL COORDINATES (A.U.)
---------------------------
 C      0   0   0     0.000000000000     0.00000000     0.00000000
 F      1   0   0     2.578720282349     0.00000000     0.00000000
 H      1   2   0     2.044302037117   108.73139895     0.00000000
 H      1   2   3     2.044435080718   108.73013463   120.00082844
 H      1   2   3     2.044435080718   108.73013463   239.99917156

---------------------
BASIS SET INFORMATION
---------------------
There are 3 groups of distinct atoms

 Group   1 Type C   : 28s12p7d4f3g2h contracted to 9s8p7d4f3g2h pattern {11101111111/51111111/1111111/1111/111/11}
 Group   2 Type F   : 27s12p7d4f3g2h contracted to 9s8p7d4f3g2h pattern {1191111111/51111111/1111111/1111/111/11}
 Group   3 Type H   : 12s7p4d3f2g contracted to 8s7p4d3f2g pattern {51111111/1111111/1111/111/11}

Atom   0C    basis set group =>   1
Atom   1F    basis set group =>   2
Atom   2H    basis set group =>   3
Atom   3H    basis set group =>   3
Atom   4H    basis set group =>   3


           ************************************************************
           *        Program running with 4 parallel MPI-processes     *
           *              working on a common directory               *
           ************************************************************
------------------------------------------------------------------------------
                           ORCA GTO INTEGRAL CALCULATION
------------------------------------------------------------------------------

                         BASIS SET STATISTICS AND STARTUP INFO

 # of primitive gaussian shells          ...  195
 # of primitive gaussian functions       ...  627
 # of contracted shells                  ...  138
 # of contracted basis functions         ...  554
 Highest angular momentum                ...    5
 Maximum contraction depth               ...   11
 Integral package used                   ... LIBINT
 Integral threshhold            Thresh   ...  1.000e-12
 Primitive cut-off              TCut     ...  1.000e-14


------------------------------ INTEGRAL EVALUATION ----------------------------


 * One electron integrals 
 Pre-screening matrix                    ... done
 Shell pair data                         ... done (   0.003 sec)



           ************************************************************
           *        Program running with 4 parallel MPI-processes     *
           *              working on a common directory               *
           ************************************************************
-------------------------------------------------------------------------------
                                 ORCA SCF
-------------------------------------------------------------------------------

------------
SCF SETTINGS
------------
Hamiltonian:
 Density Functional     Method          .... DFT(GTOs)
 Exchange Functional    Exchange        .... PBE
   PBE kappa parameter   XKappa         ....  0.804000
   PBE mue parameter    XMuePBE         ....  0.219520
 Correlation Functional Correlation     .... PBE
   PBE beta parameter  CBetaPBE         ....  0.066725
 LDA part of GGA corr.  LDAOpt          .... PW91-LDA
 Gradients option       PostSCFGGA      .... off
   Density functional embedding theory  .... OFF
   NL short-range parameter             ....  6.400000


General Settings:
 Integral files         IntName         .... ch3f_pbe
 Hartree-Fock type      HFTyp           .... UHF
 Total Charge           Charge          ....    0
 Multiplicity           Mult            ....    1
 Number of Electrons    NEL             ....   18
 Basis Dimension        Dim             ....  554
 Nuclear Repulsion      ENuc            ....     37.8010366612 Eh

Convergence Acceleration:
 DIIS                   CNVDIIS         .... on
   Start iteration      DIISMaxIt       ....    12
   Startup error        DIISStart       ....  0.200000
   # of expansion vecs  DIISMaxEq       ....     5
   Bias factor          DIISBfac        ....   1.050
   Max. coefficient     DIISMaxC        ....  10.000
 Newton-Raphson         CNVNR           .... off
 SOSCF                  CNVSOSCF        .... off
 Level Shifting         CNVShift        .... on
   Level shift para.    LevelShift      ....    0.2500
   Turn off err/grad.   ShiftErr        ....    0.0010
 Zerner damping         CNVZerner       .... off
 Static damping         CNVDamp         .... on
   Fraction old density DampFac         ....    0.7000
   Max. Damping (<1)    DampMax         ....    0.9800
   Min. Damping (>=0)   DampMin         ....    0.0000
   Turn off err/grad.   DampErr         ....    0.1000
 Fernandez-Rico         CNVRico         .... off

SCF Procedure:
 Maximum # iterations   MaxIter         ....   200
 SCF integral mode      SCFMode         .... Direct
   Integral package                     .... LIBINT
 Reset frequency        DirectResetFreq ....    20
 Integral Threshold     Thresh          ....  1.000e-12 Eh
 Primitive CutOff       TCut            ....  1.000e-14 Eh

Convergence Tolerance:
 Convergence Check Mode ConvCheckMode   .... Total+1el-Energy
 Convergence forced     ConvForced      .... 0
 Energy Change          TolE            ....  1.000e-09 Eh
 1-El. energy change                    ....  1.000e-06 Eh
 DIIS Error             TolErr          ....  1.000e-08


Diagonalization of the overlap matrix:
Smallest eigenvalue                        ... 1.662e-07
Time for diagonalization                   ...    0.384 sec
Threshold for overlap eigenvalues          ... 1.000e-08
Number of eigenvalues below threshold      ... 0
Time for construction of square roots      ...    0.074 sec
Total time needed                          ...    0.458 sec

-------------------
DFT GRID GENERATION
-------------------

General Integration Accuracy     IntAcc      ...  5.670
Radial Grid Type                 RadialGrid  ... Gauss-Chebyshev
Angular Grid (max. acc.)         AngularGrid ... Lebedev-770
Angular grid pruning method      GridPruning ... 3 (G Style)
Weight generation scheme         WeightScheme... Becke
Basis function cutoff            BFCut       ...    1.0000e-12
Integration weight cutoff        WCut        ...    1.0000e-14
Grids for H and He will be reduced by one unit

# of grid points (after initial pruning)     ... 104032 (   0.0 sec)
# of grid points (after weights+screening)   ... 100990 (   0.0 sec)
nearest neighbour list constructed           ...    0.0 sec
Grid point re-assignment to atoms done       ...    0.0 sec
Grid point division into batches done        ...    1.9 sec
Reduced shell lists constructed in    2.3 sec

Total number of grid points                  ...   100990
Total number of batches                      ...     1580
Average number of points per batch           ...       63
Average number of grid points per atom       ...    20198
Average number of shells per batch           ...   100.56 (72.87%)
Average number of basis functions per batch  ...   416.44 (75.17%)
Average number of large shells per batch     ...    90.13 (89.63%)
Average number of large basis fcns per batch ...   376.58 (90.43%)
Maximum spatial batch extension              ...  13.94, 13.78, 12.50 au
Average spatial batch extension              ...   0.52,  0.51,  0.48 au

Time for grid setup =    2.596 sec

------------------------------
INITIAL GUESS: MODEL POTENTIAL
------------------------------
Loading Hartree-Fock densities                     ... done
Calculating cut-offs                               ... done
Setting up the integral package                    ... done
Initializing the effective Hamiltonian             ... done
Starting the Coulomb interaction                   ... done (   0.1 sec)
Reading the grid                                   ... done
Mapping shells                                     ... done
Starting the XC term evaluation                    ... done (   3.1 sec)
  promolecular density results
     # of electrons  =     17.998532533
     EX              =    -15.978528637
     EC              =     -0.588213138
     EX+EC           =    -16.566741776
Transforming the Hamiltonian                       ... done (   0.0 sec)
Diagonalizing the Hamiltonian                      ... done (   0.1 sec)
Back transforming the eigenvectors                 ... done (   0.0 sec)
Now organizing SCF variables                       ... done
                      ------------------
                      INITIAL GUESS DONE (   6.0 sec)
                      ------------------
--------------
SCF ITERATIONS
--------------
ITER       Energy         Delta-E        Max-DP      RMS-DP      [F,P]     Damp
               ***  Starting incremental Fock matrix formation  ***
  0   -139.6248579884   0.000000000000 0.01249806  0.00011053  0.1338978 0.7000
  1   -139.6404288186  -0.015570830123 0.00875148  0.00008792  0.0555494 0.7000
                               ***Turning on DIIS***
  2   -139.6464291851  -0.006000366515 0.01631603  0.00015776  0.0202755 0.0000
  3   -139.6556912860  -0.009262100906 0.00546977  0.00005130  0.0343090 0.0000
  4   -139.6579429913  -0.002251705289 0.00138267  0.00001426  0.0070588 0.0000
  5   -139.6580334586  -0.000090467302 0.00034866  0.00000384  0.0051570 0.0000
  6   -139.6580535139  -0.000020055369 0.00011105  0.00000137  0.0003648 0.0000
  7   -139.6580541842  -0.000000670234 0.00003533  0.00000047  0.0001595 0.0000
  8   -139.6580542425  -0.000000058364 0.00001618  0.00000013  0.0000129 0.0000
  9   -139.6580542427  -0.000000000201 0.00004250  0.00000031  0.0000023 0.0000
 10   -139.6580542428  -0.000000000017 0.00007450  0.00000068  0.0000009 0.0000
 11   -139.6580542427   0.000000000003 0.00021268  0.00000194  0.0000002 0.0000
                 **** Energy Check signals convergence ****

               *****************************************************
               *                     SUCCESS                       *
               *           SCF CONVERGED AFTER  12 CYCLES          *
               *****************************************************


----------------
TOTAL SCF ENERGY
----------------

Total Energy       :         -139.65805424 Eh           -3800.28886 eV

Components:
Nuclear Repulsion  :           37.80103666 Eh            1028.61850 eV
Electronic Energy  :         -177.45909090 Eh           -4828.90736 eV
One Electron Energy:         -267.23339767 Eh           -7271.79044 eV
Two Electron Energy:           89.77430677 Eh            2442.88308 eV

Virial components:
Potential Energy   :         -278.96011608 Eh           -7590.89067 eV
Kinetic Energy     :          139.30206184 Eh            3790.60181 eV
Virial Ratio       :            2.00255554


DFT components:
N(Alpha)           :        9.000000415044 electrons
N(Beta)            :        9.000000415044 electrons
N(Total)           :       18.000000830087 electrons
E(X)               :      -16.262978278542 Eh       
E(C)               :       -0.589352198159 Eh       
E(XC)              :      -16.852330476701 Eh       
DFET-embed. en.    :        0.000000000000 Eh       

---------------
SCF CONVERGENCE
---------------

  Last Energy change         ...   -1.0061e-11  Tolerance :   1.0000e-09
  Last MAX-Density change    ...    1.0780e-04  Tolerance :   1.0000e-08
  Last RMS-Density change    ...    9.9777e-07  Tolerance :   1.0000e-09
  Last DIIS Error            ...    4.5305e-08  Tolerance :   1.0000e-08

             **** THE GBW FILE WAS UPDATED (ch3f_pbe.gbw) ****
             **** DENSITY FILE WAS UPDATED (ch3f_pbe.scfp.tmp) ****
             **** ENERGY FILE WAS UPDATED (ch3f_pbe.en.tmp) ****
----------------------
UHF SPIN CONTAMINATION
----------------------

Warning: in a DFT calculation there is little theoretical justification to 
         calculate <S**2> as in Hartree-Fock theory. We will do it anyways
         but you should keep in mind that the values have only limited relevance

Expectation value of <S**2>     :    -0.000000
Ideal value S*(S+1) for S=0.0   :     0.000000
Deviation                       :    -0.000000

----------------
ORBITAL ENERGIES
----------------
                 SPIN UP ORBITALS
  NO   OCC          E(Eh)            E(eV) 
   0   1.0000     -24.241579      -659.6469 
   1   1.0000      -9.948443      -270.7109 
   2   1.0000      -1.100245       -29.9392 
   3   1.0000      -0.636303       -17.3147 
   4   1.0000      -0.444599       -12.0982 
   5   1.0000      -0.433290       -11.7904 
   6   1.0000      -0.433282       -11.7902 
   7   1.0000      -0.295372        -8.0375 
   8   1.0000      -0.295367        -8.0373 
   9   0.0000      -0.015686        -0.4268 
  10   0.0000       0.002369         0.0645 
  11   0.0000       0.013993         0.3808 
  12   0.0000       0.013993         0.3808 
  13   0.0000       0.035806         0.9743 
  14   0.0000       0.037254         1.0137 
  15   0.0000       0.037255         1.0138 
  16   0.0000       0.045671         1.2428 
  17   0.0000       0.060008         1.6329 
  18   0.0000       0.060010         1.6329 
  19   0.0000       0.061079         1.6621 
  20   0.0000       0.068677         1.8688 
  21   0.0000       0.068678         1.8688 
  22   0.0000       0.084905         2.3104 
  23   0.0000       0.084909         2.3105 
  24   0.0000       0.108221         2.9449 
  25   0.0000       0.114665         3.1202 
  26   0.0000       0.114669         3.1203 
  27   0.0000       0.120788         3.2868 
  28   0.0000       0.122826         3.3423 
  29   0.0000       0.127651         3.4735 
  30   0.0000       0.127659         3.4738 
  31   0.0000       0.129452         3.5226 
  32   0.0000       0.135883         3.6976 
  33   0.0000       0.147578         4.0158 
  34   0.0000       0.147589         4.0161 
  35   0.0000       0.162516         4.4223 
  36   0.0000       0.164112         4.4657 
  37   0.0000       0.164117         4.4658 
  38   0.0000       0.185826         5.0566 
  39   0.0000       0.185833         5.0568 
  40   0.0000       0.210756         5.7350 
  41   0.0000       0.216097         5.8803 
  42   0.0000       0.216098         5.8803 
  43   0.0000       0.223548         6.0830 
  44   0.0000       0.229140         6.2352 
  45   0.0000       0.229148         6.2354 
  46   0.0000       0.234626         6.3845 
  47   0.0000       0.239551         6.5185 
  48   0.0000       0.239551         6.5185 
  49   0.0000       0.244697         6.6585 
  50   0.0000       0.251475         6.8430 
  51   0.0000       0.255754         6.9594 
  52   0.0000       0.255761         6.9596 
  53   0.0000       0.264209         7.1895 
  54   0.0000       0.283932         7.7262 
  55   0.0000       0.284013         7.7284 
  56   0.0000       0.284998         7.7552 
  57   0.0000       0.285012         7.7556 
  58   0.0000       0.291193         7.9238 
  59   0.0000       0.295825         8.0498 
  60   0.0000       0.313686         8.5358 
  61   0.0000       0.313688         8.5359 
  62   0.0000       0.319344         8.6898 
  63   0.0000       0.319377         8.6907 
  64   0.0000       0.337346         9.1797 
  65   0.0000       0.357817         9.7367 
  66   0.0000       0.357845         9.7374 
  67   0.0000       0.357846         9.7375 
  68   0.0000       0.367991        10.0136 
  69   0.0000       0.367993        10.0136 
  70   0.0000       0.370828        10.0907 
  71   0.0000       0.386197        10.5090 
  72   0.0000       0.386199        10.5090 
  73   0.0000       0.391272        10.6471 
  74   0.0000       0.391279        10.6472 
  75   0.0000       0.395222        10.7546 
  76   0.0000       0.414077        11.2676 
  77   0.0000       0.438534        11.9331 
  78   0.0000       0.440381        11.9834 
  79   0.0000       0.440383        11.9834 
  80   0.0000       0.449796        12.2396 
  81   0.0000       0.457590        12.4517 
  82   0.0000       0.460052        12.5186 
  83   0.0000       0.460058        12.5188 
  84   0.0000       0.466689        12.6993 
  85   0.0000       0.466693        12.6994 
  86   0.0000       0.470733        12.8093 
  87   0.0000       0.478465        13.0197 
  88   0.0000       0.479197        13.0396 
  89   0.0000       0.479226        13.0404 
  90   0.0000       0.485425        13.2091 
  91   0.0000       0.485428        13.2092 
  92   0.0000       0.491948        13.3866 
  93   0.0000       0.491969        13.3872 
  94   0.0000       0.496715        13.5163 
  95   0.0000       0.499190        13.5836 
  96   0.0000       0.512569        13.9477 
  97   0.0000       0.514301        13.9948 
  98   0.0000       0.521506        14.1909 
  99   0.0000       0.521508        14.1910 
 100   0.0000       0.537890        14.6367 
 101   0.0000       0.537930        14.6378 
 102   0.0000       0.538003        14.6398 
 103   0.0000       0.546852        14.8806 
 104   0.0000       0.546880        14.8814 
 105   0.0000       0.558267        15.1912 
 106   0.0000       0.562886        15.3169 
 107   0.0000       0.562938        15.3183 
 108   0.0000       0.585202        15.9242 
 109   0.0000       0.585228        15.9249 
 110   0.0000       0.600741        16.3470 
 111   0.0000       0.631991        17.1974 
 112   0.0000       0.632050        17.1989 
 113   0.0000       0.673546        18.3281 
 114   0.0000       0.674144        18.3444 
 115   0.0000       0.674155        18.3447 
 116   0.0000       0.685782        18.6611 
 117   0.0000       0.687742        18.7144 
 118   0.0000       0.687748        18.7146 
 119   0.0000       0.704077        19.1589 
 120   0.0000       0.716513        19.4973 
 121   0.0000       0.716519        19.4975 
 122   0.0000       0.734190        19.9783 
 123   0.0000       0.734195        19.9785 
 124   0.0000       0.735586        20.0163 
 125   0.0000       0.745102        20.2752 
 126   0.0000       0.745103        20.2753 
 127   0.0000       0.758358        20.6360 
 128   0.0000       0.766683        20.8625 
 129   0.0000       0.773082        21.0366 
 130   0.0000       0.775591        21.1049 
 131   0.0000       0.775597        21.1051 
 132   0.0000       0.783609        21.3231 
 133   0.0000       0.783611        21.3231 
 134   0.0000       0.798977        21.7413 
 135   0.0000       0.801258        21.8034 
 136   0.0000       0.801262        21.8034 
 137   0.0000       0.816501        22.2181 
 138   0.0000       0.816506        22.2183 
 139   0.0000       0.820060        22.3150 
 140   0.0000       0.847503        23.0617 
 141   0.0000       0.848718        23.0948 
 142   0.0000       0.848736        23.0953 
 143   0.0000       0.852588        23.2001 
 144   0.0000       0.857465        23.3328 
 145   0.0000       0.857489        23.3335 
 146   0.0000       0.864594        23.5268 
 147   0.0000       0.865123        23.5412 
 148   0.0000       0.865141        23.5417 
 149   0.0000       0.878031        23.8924 
 150   0.0000       0.890347        24.2276 
 151   0.0000       0.890349        24.2276 
 152   0.0000       0.894834        24.3497 
 153   0.0000       0.911564        24.8049 
 154   0.0000       0.914848        24.8943 
 155   0.0000       0.917227        24.9590 
 156   0.0000       0.917667        24.9710 
 157   0.0000       0.917670        24.9711 
 158   0.0000       0.929599        25.2957 
 159   0.0000       0.940772        25.5997 
 160   0.0000       0.940791        25.6002 
 161   0.0000       0.951273        25.8854 
 162   0.0000       0.951302        25.8863 
 163   0.0000       0.959549        26.1107 
 164   0.0000       0.962555        26.1924 
 165   0.0000       0.962564        26.1927 
 166   0.0000       0.971605        26.4387 
 167   0.0000       0.971656        26.4401 
 168   0.0000       0.995577        27.0910 
 169   0.0000       0.995686        27.0940 
 170   0.0000       1.034355        28.1462 
 171   0.0000       1.081825        29.4380 
 172   0.0000       1.081833        29.4382 
 173   0.0000       1.116131        30.3715 
 174   0.0000       1.119547        30.4644 
 175   0.0000       1.119556        30.4647 
 176   0.0000       1.145943        31.1827 
 177   0.0000       1.156546        31.4712 
 178   0.0000       1.156555        31.4715 
 179   0.0000       1.184142        32.2221 
 180   0.0000       1.232231        33.5307 
 181   0.0000       1.232274        33.5319 
 182   0.0000       1.232293        33.5324 
 183   0.0000       1.240109        33.7451 
 184   0.0000       1.240110        33.7451 
 185   0.0000       1.244765        33.8718 
 186   0.0000       1.257577        34.2204 
 187   0.0000       1.257592        34.2208 
 188   0.0000       1.289582        35.0913 
 189   0.0000       1.306033        35.5390 
 190   0.0000       1.306040        35.5392 
 191   0.0000       1.372872        37.3577 
 192   0.0000       1.372880        37.3580 
 193   0.0000       1.429402        38.8960 
 194   0.0000       1.431788        38.9609 
 195   0.0000       1.451193        39.4890 
 196   0.0000       1.451197        39.4891 
 197   0.0000       1.483849        40.3776 
 198   0.0000       1.485218        40.4148 
 199   0.0000       1.485224        40.4150 
 200   0.0000       1.506743        41.0006 
 201   0.0000       1.518214        41.3127 
 202   0.0000       1.518215        41.3127 
 203   0.0000       1.558071        42.3973 
 204   0.0000       1.558081        42.3975 
 205   0.0000       1.560776        42.4709 
 206   0.0000       1.568521        42.6816 
 207   0.0000       1.593477        43.3607 
 208   0.0000       1.593484        43.3609 
 209   0.0000       1.630696        44.3735 
 210   0.0000       1.630763        44.3753 
 211   0.0000       1.670415        45.4543 
 212   0.0000       1.670420        45.4544 
 213   0.0000       1.719901        46.8009 
 214   0.0000       1.721115        46.8339 
 215   0.0000       1.721149        46.8348 
 216   0.0000       1.752311        47.6828 
 217   0.0000       1.760195        47.8973 
 218   0.0000       1.761251        47.9261 
 219   0.0000       1.761259        47.9263 
 220   0.0000       1.839052        50.0431 
 221   0.0000       1.839057        50.0433 
 222   0.0000       1.872804        50.9616 
 223   0.0000       1.892793        51.5055 
 224   0.0000       1.892804        51.5058 
 225   0.0000       1.909054        51.9480 
 226   0.0000       1.912081        52.0304 
 227   0.0000       2.015004        54.8310 
 228   0.0000       2.015014        54.8313 
 229   0.0000       2.075008        56.4638 
 230   0.0000       2.130422        57.9717 
 231   0.0000       2.130454        57.9726 
 232   0.0000       2.167565        58.9824 
 233   0.0000       2.230875        60.7052 
 234   0.0000       2.244725        61.0821 
 235   0.0000       2.244729        61.0822 
 236   0.0000       2.265566        61.6492 
 237   0.0000       2.286398        62.2161 
 238   0.0000       2.286402        62.2162 
 239   0.0000       2.387834        64.9763 
 240   0.0000       2.387836        64.9763 
 241   0.0000       2.428537        66.0838 
 242   0.0000       2.446525        66.5733 
 243   0.0000       2.530135        68.8485 
 244   0.0000       2.530145        68.8487 
 245   0.0000       2.556013        69.5526 
 246   0.0000       2.556020        69.5528 
 247   0.0000       2.577129        70.1272 
 248   0.0000       2.628325        71.5203 
 249   0.0000       2.628333        71.5206 
 250   0.0000       2.650557        72.1253 
 251   0.0000       2.715627        73.8960 
 252   0.0000       2.727079        74.2076 
 253   0.0000       2.757627        75.0388 
 254   0.0000       2.757660        75.0397 
 255   0.0000       2.794303        76.0369 
 256   0.0000       2.933605        79.8274 
 257   0.0000       2.933609        79.8276 
 258   0.0000       3.018410        82.1351 
 259   0.0000       3.018410        82.1351 
 260   0.0000       3.033567        82.5476 
 261   0.0000       3.122061        84.9556 
 262   0.0000       3.122065        84.9557 
 263   0.0000       3.256171        88.6049 
 264   0.0000       3.293290        89.6150 
 265   0.0000       3.293309        89.6155 
 266   0.0000       3.327396        90.5430 
 267   0.0000       3.327414        90.5435 
 268   0.0000       3.416926        92.9793 
 269   0.0000       3.531589        96.0994 
 270   0.0000       3.552173        96.6595 
 271   0.0000       3.564830        97.0040 
 272   0.0000       3.564841        97.0043 
 273   0.0000       3.694209       100.5246 
 274   0.0000       3.694215       100.5247 
 275   0.0000       3.739228       101.7496 
 276   0.0000       3.776444       102.7623 
 277   0.0000       3.844174       104.6053 
 278   0.0000       3.844237       104.6070 
 279   0.0000       3.937005       107.1314 
 280   0.0000       3.937014       107.1316 
 281   0.0000       3.956724       107.6679 
 282   0.0000       3.994607       108.6988 
 283   0.0000       4.036345       109.8345 
 284   0.0000       4.036368       109.8352 
 285   0.0000       4.066394       110.6522 
 286   0.0000       4.066408       110.6526 
 287   0.0000       4.068137       110.6996 
 288   0.0000       4.191706       114.0621 
 289   0.0000       4.224894       114.9652 
 290   0.0000       4.224906       114.9655 
 291   0.0000       4.280069       116.4666 
 292   0.0000       4.312541       117.3502 
 293   0.0000       4.312551       117.3505 
 294   0.0000       4.435385       120.6930 
 295   0.0000       4.542784       123.6154 
 296   0.0000       4.542790       123.6156 
 297   0.0000       4.620115       125.7197 
 298   0.0000       4.620139       125.7204 
 299   0.0000       4.634882       126.1216 
 300   0.0000       4.634923       126.1227 
 301   0.0000       4.664323       126.9227 
 302   0.0000       4.887548       132.9969 
 303   0.0000       4.887560       132.9973 
 304   0.0000       4.957156       134.8911 
 305   0.0000       4.983834       135.6170 
 306   0.0000       5.128746       139.5603 
 307   0.0000       5.128814       139.5621 
 308   0.0000       5.166501       140.5876 
 309   0.0000       5.213795       141.8746 
 310   0.0000       5.213801       141.8747 
 311   0.0000       5.354756       145.7103 
 312   0.0000       5.408941       147.1848 
 313   0.0000       5.409003       147.1865 
 314   0.0000       5.411546       147.2557 
 315   0.0000       5.423070       147.5692 
 316   0.0000       5.423082       147.5696 
 317   0.0000       5.434516       147.8807 
 318   0.0000       5.537598       150.6857 
 319   0.0000       5.537607       150.6859 
 320   0.0000       5.550364       151.0331 
 321   0.0000       5.662657       154.0887 
 322   0.0000       5.694502       154.9553 
 323   0.0000       5.694519       154.9557 
 324   0.0000       5.833556       158.7391 
 325   0.0000       5.833578       158.7397 
 326   0.0000       5.916488       160.9958 
 327   0.0000       5.979462       162.7094 
 328   0.0000       5.979464       162.7095 
 329   0.0000       6.021675       163.8581 
 330   0.0000       6.088057       165.6645 
 331   0.0000       6.088067       165.6647 
 332   0.0000       6.124965       166.6688 
 333   0.0000       6.194200       168.5528 
 334   0.0000       6.267545       170.5486 
 335   0.0000       6.301975       171.4855 
 336   0.0000       6.302011       171.4864 
 337   0.0000       6.302290       171.4940 
 338   0.0000       6.539701       177.9543 
 339   0.0000       6.539758       177.9559 
 340   0.0000       6.806395       185.2114 
 341   0.0000       6.824279       185.6981 
 342   0.0000       6.837898       186.0687 
 343   0.0000       6.837954       186.0702 
 344   0.0000       6.916918       188.2189 
 345   0.0000       6.916924       188.2191 
 346   0.0000       6.996778       190.3920 
 347   0.0000       6.996805       190.3928 
 348   0.0000       7.020040       191.0250 
 349   0.0000       7.193581       195.7473 
 350   0.0000       7.193584       195.7474 
 351   0.0000       7.313456       199.0092 
 352   0.0000       7.313459       199.0093 
 353   0.0000       7.355876       200.1636 
 354   0.0000       7.651750       208.2147 
 355   0.0000       7.773990       211.5410 
 356   0.0000       7.817964       212.7376 
 357   0.0000       7.817968       212.7377 
 358   0.0000       7.837930       213.2809 
 359   0.0000       8.132288       221.2908 
 360   0.0000       8.132312       221.2915 
 361   0.0000       8.338078       226.8906 
 362   0.0000       8.478715       230.7176 
 363   0.0000       8.621454       234.6017 
 364   0.0000       8.621460       234.6019 
 365   0.0000       9.017256       245.3720 
 366   0.0000       9.017280       245.3727 
 367   0.0000       9.052760       246.3381 
 368   0.0000       9.080743       247.0996 
 369   0.0000       9.080750       247.0998 
 370   0.0000       9.169404       249.5122 
 371   0.0000       9.206254       250.5149 
 372   0.0000       9.206296       250.5161 
 373   0.0000       9.242072       251.4896 
 374   0.0000       9.249616       251.6948 
 375   0.0000       9.249619       251.6949 
 376   0.0000       9.351752       254.4741 
 377   0.0000       9.351797       254.4753 
 378   0.0000       9.568553       260.3736 
 379   0.0000       9.568612       260.3752 
 380   0.0000       9.598779       261.1961 
 381   0.0000       9.740206       265.0445 
 382   0.0000       9.959618       271.0150 
 383   0.0000      10.007197       272.3097 
 384   0.0000      10.007273       272.3117 
 385   0.0000      10.106242       275.0048 
 386   0.0000      10.816419       294.3297 
 387   0.0000      10.816534       294.3329 
 388   0.0000      11.002172       299.3843 
 389   0.0000      11.002224       299.3857 
 390   0.0000      11.025038       300.0065 
 391   0.0000      11.066544       301.1360 
 392   0.0000      11.157077       303.5995 
 393   0.0000      11.157132       303.6010 
 394   0.0000      11.332549       308.3743 
 395   0.0000      11.419234       310.7332 
 396   0.0000      11.419389       310.7374 
 397   0.0000      11.489566       312.6470 
 398   0.0000      11.602859       315.7299 
 399   0.0000      11.666304       317.4563 
 400   0.0000      11.666353       317.4576 
 401   0.0000      12.001245       326.5705 
 402   0.0000      12.001396       326.5746 
 403   0.0000      12.173473       331.2570 
 404   0.0000      12.199308       331.9600 
 405   0.0000      12.216298       332.4224 
 406   0.0000      12.216334       332.4234 
 407   0.0000      12.239184       333.0451 
 408   0.0000      12.239193       333.0454 
 409   0.0000      12.403860       337.5262 
 410   0.0000      12.403875       337.5266 
 411   0.0000      12.414980       337.8288 
 412   0.0000      12.415019       337.8298 
 413   0.0000      12.488788       339.8372 
 414   0.0000      12.488829       339.8383 
 415   0.0000      12.490821       339.8925 
 416   0.0000      12.530584       340.9745 
 417   0.0000      12.630496       343.6933 
 418   0.0000      12.684143       345.1531 
 419   0.0000      12.684146       345.1532 
 420   0.0000      12.701556       345.6269 
 421   0.0000      12.701556       345.6269 
 422   0.0000      12.779029       347.7351 
 423   0.0000      12.804177       348.4194 
 424   0.0000      12.804194       348.4198 
 425   0.0000      12.885746       350.6390 
 426   0.0000      12.885802       350.6405 
 427   0.0000      12.898151       350.9765 
 428   0.0000      12.898234       350.9788 
 429   0.0000      12.944478       352.2372 
 430   0.0000      13.115629       356.8944 
 431   0.0000      13.154068       357.9404 
 432   0.0000      13.154079       357.9407 
 433   0.0000      13.260950       360.8488 
 434   0.0000      13.272828       361.1720 
 435   0.0000      13.420533       365.1913 
 436   0.0000      13.420633       365.1940 
 437   0.0000      13.553544       368.8107 
 438   0.0000      13.553619       368.8127 
 439   0.0000      13.563775       369.0891 
 440   0.0000      13.657750       371.6463 
 441   0.0000      13.657800       371.6476 
 442   0.0000      13.716572       373.2469 
 443   0.0000      14.074404       382.9840 
 444   0.0000      14.133211       384.5842 
 445   0.0000      14.133298       384.5866 
 446   0.0000      14.186463       386.0333 
 447   0.0000      14.186534       386.0352 
 448   0.0000      14.216605       386.8535 
 449   0.0000      14.576672       396.6514 
 450   0.0000      14.615255       397.7013 
 451   0.0000      14.732331       400.8871 
 452   0.0000      14.732361       400.8879 
 453   0.0000      14.881832       404.9552 
 454   0.0000      14.881944       404.9583 
 455   0.0000      15.111246       411.1979 
 456   0.0000      15.124455       411.5573 
 457   0.0000      15.165141       412.6645 
 458   0.0000      15.165259       412.6677 
 459   0.0000      15.266826       415.4315 
 460   0.0000      15.528037       422.5394 
 461   0.0000      15.603127       424.5827 
 462   0.0000      15.603199       424.5846 
 463   0.0000      15.939088       433.7246 
 464   0.0000      16.032004       436.2530 
 465   0.0000      16.032186       436.2580 
 466   0.0000      16.247333       442.1124 
 467   0.0000      16.332049       444.4176 
 468   0.0000      16.332340       444.4256 
 469   0.0000      16.709635       454.6923 
 470   0.0000      16.709636       454.6923 
 471   0.0000      16.727058       455.1664 
 472   0.0000      16.805728       457.3071 
 473   0.0000      16.805735       457.3073 
 474   0.0000      16.825906       457.8562 
 475   0.0000      16.898998       459.8451 
 476   0.0000      16.926909       460.6046 
 477   0.0000      16.926992       460.6069 
 478   0.0000      17.109192       465.5648 
 479   0.0000      17.336141       471.7404 
 480   0.0000      17.336262       471.7437 
 481   0.0000      17.455655       474.9925 
 482   0.0000      17.455784       474.9960 
 483   0.0000      17.531690       477.0615 
 484   0.0000      18.478368       502.8220 
 485   0.0000      18.564295       505.1602 
 486   0.0000      18.564513       505.1661 
 487   0.0000      18.593850       505.9644 
 488   0.0000      19.008807       517.2559 
 489   0.0000      19.009076       517.2633 
 490   0.0000      19.178359       521.8697 
 491   0.0000      19.770963       537.9952 
 492   0.0000      20.002456       544.2945 
 493   0.0000      20.002672       544.3004 
 494   0.0000      20.148214       548.2608 
 495   0.0000      20.148893       548.2793 
 496   0.0000      20.148959       548.2810 
 497   0.0000      20.234512       550.6091 
 498   0.0000      20.234861       550.6186 
 499   0.0000      20.434489       556.0507 
 500   0.0000      20.539146       558.8986 
 501   0.0000      20.803465       566.0911 
 502   0.0000      20.803570       566.0939 
 503   0.0000      21.041178       572.5596 
 504   0.0000      21.041192       572.5599 
 505   0.0000      21.242661       578.0422 
 506   0.0000      21.514017       585.4262 
 507   0.0000      21.642427       588.9204 
 508   0.0000      21.642701       588.9278 
 509   0.0000      22.212965       604.4455 
 510   0.0000      22.212967       604.4456 
 511   0.0000      23.137783       629.6111 
 512   0.0000      23.370518       635.9441 
 513   0.0000      23.666886       644.0087 
 514   0.0000      23.666908       644.0093 
 515   0.0000      24.011949       653.3983 
 516   0.0000      24.107801       656.0066 
 517   0.0000      24.107862       656.0083 
 518   0.0000      25.654806       698.1028 
 519   0.0000      25.795606       701.9341 
 520   0.0000      25.796124       701.9482 
 521   0.0000      30.500252       829.9540 
 522   0.0000      30.500258       829.9542 
 523   0.0000      30.958937       842.4355 
 524   0.0000      30.958949       842.4358 
 525   0.0000      31.621641       860.4686 
 526   0.0000      32.679434       889.2526 
 527   0.0000      32.679451       889.2531 
 528   0.0000      34.011453       925.4987 
 529   0.0000      34.011628       925.5034 
 530   0.0000      34.028035       925.9499 
 531   0.0000      41.245039      1122.3346 
 532   0.0000      41.245247      1122.3402 
 533   0.0000      41.767771      1136.5588 
 534   0.0000      41.896717      1140.0676 
 535   0.0000      41.896717      1140.0676 
 536   0.0000      42.201293      1148.3556 
 537   0.0000      44.089165      1199.7272 
 538   0.0000      78.462277      2135.0671 
 539   0.0000      90.970144      2475.4235 
 540   0.0000      91.162058      2480.6457 
 541   0.0000      91.162063      2480.6459 
 542   0.0000      91.354208      2485.8744 
 543   0.0000      91.389275      2486.8286 
 544   0.0000      91.389286      2486.8289 
 545   0.0000      91.465763      2488.9100 
 546   0.0000      91.465798      2488.9109 
 547   0.0000      91.714712      2495.6842 
 548   0.0000      91.714718      2495.6843 
 549   0.0000      92.370113      2513.5186 
 550   0.0000      92.491698      2516.8271 
 551   0.0000      92.533765      2517.9718 
 552   0.0000      92.534001      2517.9782 
 553   0.0000     202.671201      5514.9638 

                 SPIN DOWN ORBITALS
  NO   OCC          E(Eh)            E(eV) 
   0   1.0000     -24.241579      -659.6469 
   1   1.0000      -9.948443      -270.7109 
   2   1.0000      -1.100245       -29.9392 
   3   1.0000      -0.636303       -17.3147 
   4   1.0000      -0.444599       -12.0982 
   5   1.0000      -0.433290       -11.7904 
   6   1.0000      -0.433282       -11.7902 
   7   1.0000      -0.295372        -8.0375 
   8   1.0000      -0.295367        -8.0373 
   9   0.0000      -0.015686        -0.4268 
  10   0.0000       0.002369         0.0645 
  11   0.0000       0.013993         0.3808 
  12   0.0000       0.013993         0.3808 
  13   0.0000       0.035806         0.9743 
  14   0.0000       0.037254         1.0137 
  15   0.0000       0.037255         1.0138 
  16   0.0000       0.045671         1.2428 
  17   0.0000       0.060008         1.6329 
  18   0.0000       0.060010         1.6329 
  19   0.0000       0.061079         1.6621 
  20   0.0000       0.068677         1.8688 
  21   0.0000       0.068678         1.8688 
  22   0.0000       0.084905         2.3104 
  23   0.0000       0.084909         2.3105 
  24   0.0000       0.108221         2.9449 
  25   0.0000       0.114665         3.1202 
  26   0.0000       0.114669         3.1203 
  27   0.0000       0.120788         3.2868 
  28   0.0000       0.122826         3.3423 
  29   0.0000       0.127651         3.4735 
  30   0.0000       0.127659         3.4738 
  31   0.0000       0.129452         3.5226 
  32   0.0000       0.135883         3.6976 
  33   0.0000       0.147578         4.0158 
  34   0.0000       0.147589         4.0161 
  35   0.0000       0.162516         4.4223 
  36   0.0000       0.164112         4.4657 
  37   0.0000       0.164117         4.4658 
  38   0.0000       0.185826         5.0566 
  39   0.0000       0.185833         5.0568 
  40   0.0000       0.210756         5.7350 
  41   0.0000       0.216097         5.8803 
  42   0.0000       0.216098         5.8803 
  43   0.0000       0.223548         6.0830 
  44   0.0000       0.229140         6.2352 
  45   0.0000       0.229148         6.2354 
  46   0.0000       0.234626         6.3845 
  47   0.0000       0.239551         6.5185 
  48   0.0000       0.239551         6.5185 
  49   0.0000       0.244697         6.6585 
  50   0.0000       0.251475         6.8430 
  51   0.0000       0.255754         6.9594 
  52   0.0000       0.255761         6.9596 
  53   0.0000       0.264209         7.1895 
  54   0.0000       0.283932         7.7262 
  55   0.0000       0.284013         7.7284 
  56   0.0000       0.284998         7.7552 
  57   0.0000       0.285012         7.7556 
  58   0.0000       0.291193         7.9238 
  59   0.0000       0.295825         8.0498 
  60   0.0000       0.313686         8.5358 
  61   0.0000       0.313688         8.5359 
  62   0.0000       0.319344         8.6898 
  63   0.0000       0.319377         8.6907 
  64   0.0000       0.337346         9.1797 
  65   0.0000       0.357817         9.7367 
  66   0.0000       0.357845         9.7374 
  67   0.0000       0.357846         9.7375 
  68   0.0000       0.367991        10.0136 
  69   0.0000       0.367993        10.0136 
  70   0.0000       0.370828        10.0907 
  71   0.0000       0.386197        10.5090 
  72   0.0000       0.386199        10.5090 
  73   0.0000       0.391272        10.6471 
  74   0.0000       0.391279        10.6472 
  75   0.0000       0.395222        10.7546 
  76   0.0000       0.414077        11.2676 
  77   0.0000       0.438534        11.9331 
  78   0.0000       0.440381        11.9834 
  79   0.0000       0.440383        11.9834 
  80   0.0000       0.449796        12.2396 
  81   0.0000       0.457590        12.4517 
  82   0.0000       0.460052        12.5186 
  83   0.0000       0.460058        12.5188 
  84   0.0000       0.466689        12.6993 
  85   0.0000       0.466693        12.6994 
  86   0.0000       0.470733        12.8093 
  87   0.0000       0.478465        13.0197 
  88   0.0000       0.479197        13.0396 
  89   0.0000       0.479226        13.0404 
  90   0.0000       0.485425        13.2091 
  91   0.0000       0.485428        13.2092 
  92   0.0000       0.491948        13.3866 
  93   0.0000       0.491969        13.3872 
  94   0.0000       0.496715        13.5163 
  95   0.0000       0.499190        13.5836 
  96   0.0000       0.512569        13.9477 
  97   0.0000       0.514301        13.9948 
  98   0.0000       0.521506        14.1909 
  99   0.0000       0.521508        14.1910 
 100   0.0000       0.537890        14.6367 
 101   0.0000       0.537930        14.6378 
 102   0.0000       0.538003        14.6398 
 103   0.0000       0.546852        14.8806 
 104   0.0000       0.546880        14.8814 
 105   0.0000       0.558267        15.1912 
 106   0.0000       0.562886        15.3169 
 107   0.0000       0.562938        15.3183 
 108   0.0000       0.585202        15.9242 
 109   0.0000       0.585228        15.9249 
 110   0.0000       0.600741        16.3470 
 111   0.0000       0.631991        17.1974 
 112   0.0000       0.632050        17.1989 
 113   0.0000       0.673546        18.3281 
 114   0.0000       0.674144        18.3444 
 115   0.0000       0.674155        18.3447 
 116   0.0000       0.685782        18.6611 
 117   0.0000       0.687742        18.7144 
 118   0.0000       0.687748        18.7146 
 119   0.0000       0.704077        19.1589 
 120   0.0000       0.716513        19.4973 
 121   0.0000       0.716519        19.4975 
 122   0.0000       0.734190        19.9783 
 123   0.0000       0.734195        19.9785 
 124   0.0000       0.735586        20.0163 
 125   0.0000       0.745102        20.2752 
 126   0.0000       0.745103        20.2753 
 127   0.0000       0.758358        20.6360 
 128   0.0000       0.766683        20.8625 
 129   0.0000       0.773082        21.0366 
 130   0.0000       0.775591        21.1049 
 131   0.0000       0.775597        21.1051 
 132   0.0000       0.783609        21.3231 
 133   0.0000       0.783611        21.3231 
 134   0.0000       0.798977        21.7413 
 135   0.0000       0.801258        21.8034 
 136   0.0000       0.801262        21.8034 
 137   0.0000       0.816501        22.2181 
 138   0.0000       0.816506        22.2183 
 139   0.0000       0.820060        22.3150 
 140   0.0000       0.847503        23.0617 
 141   0.0000       0.848718        23.0948 
 142   0.0000       0.848736        23.0953 
 143   0.0000       0.852588        23.2001 
 144   0.0000       0.857465        23.3328 
 145   0.0000       0.857489        23.3335 
 146   0.0000       0.864594        23.5268 
 147   0.0000       0.865123        23.5412 
 148   0.0000       0.865141        23.5417 
 149   0.0000       0.878031        23.8924 
 150   0.0000       0.890347        24.2276 
 151   0.0000       0.890349        24.2276 
 152   0.0000       0.894834        24.3497 
 153   0.0000       0.911564        24.8049 
 154   0.0000       0.914848        24.8943 
 155   0.0000       0.917227        24.9590 
 156   0.0000       0.917667        24.9710 
 157   0.0000       0.917670        24.9711 
 158   0.0000       0.929599        25.2957 
 159   0.0000       0.940772        25.5997 
 160   0.0000       0.940791        25.6002 
 161   0.0000       0.951273        25.8854 
 162   0.0000       0.951302        25.8863 
 163   0.0000       0.959549        26.1107 
 164   0.0000       0.962555        26.1924 
 165   0.0000       0.962564        26.1927 
 166   0.0000       0.971605        26.4387 
 167   0.0000       0.971656        26.4401 
 168   0.0000       0.995577        27.0910 
 169   0.0000       0.995686        27.0940 
 170   0.0000       1.034355        28.1462 
 171   0.0000       1.081825        29.4380 
 172   0.0000       1.081833        29.4382 
 173   0.0000       1.116131        30.3715 
 174   0.0000       1.119547        30.4644 
 175   0.0000       1.119556        30.4647 
 176   0.0000       1.145943        31.1827 
 177   0.0000       1.156546        31.4712 
 178   0.0000       1.156555        31.4715 
 179   0.0000       1.184142        32.2221 
 180   0.0000       1.232231        33.5307 
 181   0.0000       1.232274        33.5319 
 182   0.0000       1.232293        33.5324 
 183   0.0000       1.240109        33.7451 
 184   0.0000       1.240110        33.7451 
 185   0.0000       1.244765        33.8718 
 186   0.0000       1.257577        34.2204 
 187   0.0000       1.257592        34.2208 
 188   0.0000       1.289582        35.0913 
 189   0.0000       1.306033        35.5390 
 190   0.0000       1.306040        35.5392 
 191   0.0000       1.372872        37.3577 
 192   0.0000       1.372880        37.3580 
 193   0.0000       1.429402        38.8960 
 194   0.0000       1.431788        38.9609 
 195   0.0000       1.451193        39.4890 
 196   0.0000       1.451197        39.4891 
 197   0.0000       1.483849        40.3776 
 198   0.0000       1.485218        40.4148 
 199   0.0000       1.485224        40.4150 
 200   0.0000       1.506743        41.0006 
 201   0.0000       1.518214        41.3127 
 202   0.0000       1.518215        41.3127 
 203   0.0000       1.558071        42.3973 
 204   0.0000       1.558081        42.3975 
 205   0.0000       1.560776        42.4709 
 206   0.0000       1.568521        42.6816 
 207   0.0000       1.593477        43.3607 
 208   0.0000       1.593484        43.3609 
 209   0.0000       1.630696        44.3735 
 210   0.0000       1.630763        44.3753 
 211   0.0000       1.670415        45.4543 
 212   0.0000       1.670420        45.4544 
 213   0.0000       1.719901        46.8009 
 214   0.0000       1.721115        46.8339 
 215   0.0000       1.721149        46.8348 
 216   0.0000       1.752311        47.6828 
 217   0.0000       1.760195        47.8973 
 218   0.0000       1.761251        47.9261 
 219   0.0000       1.761259        47.9263 
 220   0.0000       1.839052        50.0431 
 221   0.0000       1.839057        50.0433 
 222   0.0000       1.872804        50.9616 
 223   0.0000       1.892793        51.5055 
 224   0.0000       1.892804        51.5058 
 225   0.0000       1.909054        51.9480 
 226   0.0000       1.912081        52.0304 
 227   0.0000       2.015004        54.8310 
 228   0.0000       2.015014        54.8313 
 229   0.0000       2.075008        56.4638 
 230   0.0000       2.130422        57.9717 
 231   0.0000       2.130454        57.9726 
 232   0.0000       2.167565        58.9824 
 233   0.0000       2.230875        60.7052 
 234   0.0000       2.244725        61.0821 
 235   0.0000       2.244729        61.0822 
 236   0.0000       2.265566        61.6492 
 237   0.0000       2.286398        62.2161 
 238   0.0000       2.286402        62.2162 
 239   0.0000       2.387834        64.9763 
 240   0.0000       2.387836        64.9763 
 241   0.0000       2.428537        66.0838 
 242   0.0000       2.446525        66.5733 
 243   0.0000       2.530135        68.8485 
 244   0.0000       2.530145        68.8487 
 245   0.0000       2.556013        69.5526 
 246   0.0000       2.556020        69.5528 
 247   0.0000       2.577129        70.1272 
 248   0.0000       2.628325        71.5203 
 249   0.0000       2.628333        71.5206 
 250   0.0000       2.650557        72.1253 
 251   0.0000       2.715627        73.8960 
 252   0.0000       2.727079        74.2076 
 253   0.0000       2.757627        75.0388 
 254   0.0000       2.757660        75.0397 
 255   0.0000       2.794303        76.0369 
 256   0.0000       2.933605        79.8274 
 257   0.0000       2.933609        79.8276 
 258   0.0000       3.018410        82.1351 
 259   0.0000       3.018410        82.1351 
 260   0.0000       3.033567        82.5476 
 261   0.0000       3.122061        84.9556 
 262   0.0000       3.122065        84.9557 
 263   0.0000       3.256171        88.6049 
 264   0.0000       3.293290        89.6150 
 265   0.0000       3.293309        89.6155 
 266   0.0000       3.327396        90.5430 
 267   0.0000       3.327414        90.5435 
 268   0.0000       3.416926        92.9793 
 269   0.0000       3.531589        96.0994 
 270   0.0000       3.552173        96.6595 
 271   0.0000       3.564830        97.0040 
 272   0.0000       3.564841        97.0043 
 273   0.0000       3.694209       100.5246 
 274   0.0000       3.694215       100.5247 
 275   0.0000       3.739228       101.7496 
 276   0.0000       3.776444       102.7623 
 277   0.0000       3.844174       104.6053 
 278   0.0000       3.844237       104.6070 
 279   0.0000       3.937005       107.1314 
 280   0.0000       3.937014       107.1316 
 281   0.0000       3.956724       107.6679 
 282   0.0000       3.994607       108.6988 
 283   0.0000       4.036345       109.8345 
 284   0.0000       4.036368       109.8352 
 285   0.0000       4.066394       110.6522 
 286   0.0000       4.066408       110.6526 
 287   0.0000       4.068137       110.6996 
 288   0.0000       4.191706       114.0621 
 289   0.0000       4.224894       114.9652 
 290   0.0000       4.224906       114.9655 
 291   0.0000       4.280069       116.4666 
 292   0.0000       4.312541       117.3502 
 293   0.0000       4.312551       117.3505 
 294   0.0000       4.435385       120.6930 
 295   0.0000       4.542784       123.6154 
 296   0.0000       4.542790       123.6156 
 297   0.0000       4.620115       125.7197 
 298   0.0000       4.620139       125.7204 
 299   0.0000       4.634882       126.1216 
 300   0.0000       4.634923       126.1227 
 301   0.0000       4.664323       126.9227 
 302   0.0000       4.887548       132.9969 
 303   0.0000       4.887560       132.9973 
 304   0.0000       4.957156       134.8911 
 305   0.0000       4.983834       135.6170 
 306   0.0000       5.128746       139.5603 
 307   0.0000       5.128814       139.5621 
 308   0.0000       5.166501       140.5876 
 309   0.0000       5.213795       141.8746 
 310   0.0000       5.213801       141.8747 
 311   0.0000       5.354756       145.7103 
 312   0.0000       5.408941       147.1848 
 313   0.0000       5.409003       147.1865 
 314   0.0000       5.411546       147.2557 
 315   0.0000       5.423070       147.5692 
 316   0.0000       5.423082       147.5696 
 317   0.0000       5.434516       147.8807 
 318   0.0000       5.537598       150.6857 
 319   0.0000       5.537607       150.6859 
 320   0.0000       5.550364       151.0331 
 321   0.0000       5.662657       154.0887 
 322   0.0000       5.694502       154.9553 
 323   0.0000       5.694519       154.9557 
 324   0.0000       5.833556       158.7391 
 325   0.0000       5.833578       158.7397 
 326   0.0000       5.916488       160.9958 
 327   0.0000       5.979462       162.7094 
 328   0.0000       5.979464       162.7095 
 329   0.0000       6.021675       163.8581 
 330   0.0000       6.088057       165.6645 
 331   0.0000       6.088067       165.6647 
 332   0.0000       6.124965       166.6688 
 333   0.0000       6.194200       168.5528 
 334   0.0000       6.267545       170.5486 
 335   0.0000       6.301975       171.4855 
 336   0.0000       6.302011       171.4864 
 337   0.0000       6.302290       171.4940 
 338   0.0000       6.539701       177.9543 
 339   0.0000       6.539758       177.9559 
 340   0.0000       6.806395       185.2114 
 341   0.0000       6.824279       185.6981 
 342   0.0000       6.837898       186.0687 
 343   0.0000       6.837954       186.0702 
 344   0.0000       6.916918       188.2189 
 345   0.0000       6.916924       188.2191 
 346   0.0000       6.996778       190.3920 
 347   0.0000       6.996805       190.3928 
 348   0.0000       7.020040       191.0250 
 349   0.0000       7.193581       195.7473 
 350   0.0000       7.193584       195.7474 
 351   0.0000       7.313456       199.0092 
 352   0.0000       7.313459       199.0093 
 353   0.0000       7.355876       200.1636 
 354   0.0000       7.651750       208.2147 
 355   0.0000       7.773990       211.5410 
 356   0.0000       7.817964       212.7376 
 357   0.0000       7.817968       212.7377 
 358   0.0000       7.837930       213.2809 
 359   0.0000       8.132288       221.2908 
 360   0.0000       8.132312       221.2915 
 361   0.0000       8.338078       226.8906 
 362   0.0000       8.478715       230.7176 
 363   0.0000       8.621454       234.6017 
 364   0.0000       8.621460       234.6019 
 365   0.0000       9.017256       245.3720 
 366   0.0000       9.017280       245.3727 
 367   0.0000       9.052760       246.3381 
 368   0.0000       9.080743       247.0996 
 369   0.0000       9.080750       247.0998 
 370   0.0000       9.169404       249.5122 
 371   0.0000       9.206254       250.5149 
 372   0.0000       9.206296       250.5161 
 373   0.0000       9.242072       251.4896 
 374   0.0000       9.249616       251.6948 
 375   0.0000       9.249619       251.6949 
 376   0.0000       9.351752       254.4741 
 377   0.0000       9.351797       254.4753 
 378   0.0000       9.568553       260.3736 
 379   0.0000       9.568612       260.3752 
 380   0.0000       9.598779       261.1961 
 381   0.0000       9.740206       265.0445 
 382   0.0000       9.959618       271.0150 
 383   0.0000      10.007197       272.3097 
 384   0.0000      10.007273       272.3117 
 385   0.0000      10.106242       275.0048 
 386   0.0000      10.816419       294.3297 
 387   0.0000      10.816534       294.3329 
 388   0.0000      11.002172       299.3843 
 389   0.0000      11.002224       299.3857 
 390   0.0000      11.025038       300.0065 
 391   0.0000      11.066544       301.1360 
 392   0.0000      11.157077       303.5995 
 393   0.0000      11.157132       303.6010 
 394   0.0000      11.332549       308.3743 
 395   0.0000      11.419234       310.7332 
 396   0.0000      11.419389       310.7374 
 397   0.0000      11.489566       312.6470 
 398   0.0000      11.602859       315.7299 
 399   0.0000      11.666304       317.4563 
 400   0.0000      11.666353       317.4576 
 401   0.0000      12.001245       326.5705 
 402   0.0000      12.001396       326.5746 
 403   0.0000      12.173473       331.2570 
 404   0.0000      12.199308       331.9600 
 405   0.0000      12.216298       332.4224 
 406   0.0000      12.216334       332.4234 
 407   0.0000      12.239184       333.0451 
 408   0.0000      12.239193       333.0454 
 409   0.0000      12.403860       337.5262 
 410   0.0000      12.403875       337.5266 
 411   0.0000      12.414980       337.8288 
 412   0.0000      12.415019       337.8298 
 413   0.0000      12.488788       339.8372 
 414   0.0000      12.488829       339.8383 
 415   0.0000      12.490821       339.8925 
 416   0.0000      12.530584       340.9745 
 417   0.0000      12.630496       343.6933 
 418   0.0000      12.684143       345.1531 
 419   0.0000      12.684146       345.1532 
 420   0.0000      12.701556       345.6269 
 421   0.0000      12.701556       345.6269 
 422   0.0000      12.779029       347.7351 
 423   0.0000      12.804177       348.4194 
 424   0.0000      12.804194       348.4198 
 425   0.0000      12.885746       350.6390 
 426   0.0000      12.885802       350.6405 
 427   0.0000      12.898151       350.9765 
 428   0.0000      12.898234       350.9788 
 429   0.0000      12.944478       352.2372 
 430   0.0000      13.115629       356.8944 
 431   0.0000      13.154068       357.9404 
 432   0.0000      13.154079       357.9407 
 433   0.0000      13.260950       360.8488 
 434   0.0000      13.272828       361.1720 
 435   0.0000      13.420533       365.1913 
 436   0.0000      13.420633       365.1940 
 437   0.0000      13.553544       368.8107 
 438   0.0000      13.553619       368.8127 
 439   0.0000      13.563775       369.0891 
 440   0.0000      13.657750       371.6463 
 441   0.0000      13.657800       371.6476 
 442   0.0000      13.716572       373.2469 
 443   0.0000      14.074404       382.9840 
 444   0.0000      14.133211       384.5842 
 445   0.0000      14.133298       384.5866 
 446   0.0000      14.186463       386.0333 
 447   0.0000      14.186534       386.0352 
 448   0.0000      14.216605       386.8535 
 449   0.0000      14.576672       396.6514 
 450   0.0000      14.615255       397.7013 
 451   0.0000      14.732331       400.8871 
 452   0.0000      14.732361       400.8879 
 453   0.0000      14.881832       404.9552 
 454   0.0000      14.881944       404.9583 
 455   0.0000      15.111246       411.1979 
 456   0.0000      15.124455       411.5573 
 457   0.0000      15.165141       412.6645 
 458   0.0000      15.165259       412.6677 
 459   0.0000      15.266826       415.4315 
 460   0.0000      15.528037       422.5394 
 461   0.0000      15.603127       424.5827 
 462   0.0000      15.603199       424.5846 
 463   0.0000      15.939088       433.7246 
 464   0.0000      16.032004       436.2530 
 465   0.0000      16.032186       436.2580 
 466   0.0000      16.247333       442.1124 
 467   0.0000      16.332049       444.4176 
 468   0.0000      16.332340       444.4256 
 469   0.0000      16.709635       454.6923 
 470   0.0000      16.709636       454.6923 
 471   0.0000      16.727058       455.1664 
 472   0.0000      16.805728       457.3071 
 473   0.0000      16.805735       457.3073 
 474   0.0000      16.825906       457.8562 
 475   0.0000      16.898998       459.8451 
 476   0.0000      16.926909       460.6046 
 477   0.0000      16.926992       460.6069 
 478   0.0000      17.109192       465.5648 
 479   0.0000      17.336141       471.7404 
 480   0.0000      17.336262       471.7437 
 481   0.0000      17.455655       474.9925 
 482   0.0000      17.455784       474.9960 
 483   0.0000      17.531690       477.0615 
 484   0.0000      18.478368       502.8220 
 485   0.0000      18.564295       505.1602 
 486   0.0000      18.564513       505.1661 
 487   0.0000      18.593850       505.9644 
 488   0.0000      19.008807       517.2559 
 489   0.0000      19.009076       517.2633 
 490   0.0000      19.178359       521.8697 
 491   0.0000      19.770963       537.9952 
 492   0.0000      20.002456       544.2945 
 493   0.0000      20.002672       544.3004 
 494   0.0000      20.148214       548.2608 
 495   0.0000      20.148893       548.2793 
 496   0.0000      20.148959       548.2810 
 497   0.0000      20.234512       550.6091 
 498   0.0000      20.234861       550.6186 
 499   0.0000      20.434489       556.0507 
 500   0.0000      20.539146       558.8986 
 501   0.0000      20.803465       566.0911 
 502   0.0000      20.803570       566.0939 
 503   0.0000      21.041178       572.5596 
 504   0.0000      21.041192       572.5599 
 505   0.0000      21.242661       578.0422 
 506   0.0000      21.514017       585.4262 
 507   0.0000      21.642427       588.9204 
 508   0.0000      21.642701       588.9278 
 509   0.0000      22.212965       604.4455 
 510   0.0000      22.212967       604.4456 
 511   0.0000      23.137783       629.6111 
 512   0.0000      23.370518       635.9441 
 513   0.0000      23.666886       644.0087 
 514   0.0000      23.666908       644.0093 
 515   0.0000      24.011949       653.3983 
 516   0.0000      24.107801       656.0066 
 517   0.0000      24.107862       656.0083 
 518   0.0000      25.654806       698.1028 
 519   0.0000      25.795606       701.9341 
 520   0.0000      25.796124       701.9482 
 521   0.0000      30.500252       829.9540 
 522   0.0000      30.500258       829.9542 
 523   0.0000      30.958937       842.4355 
 524   0.0000      30.958949       842.4358 
 525   0.0000      31.621641       860.4686 
 526   0.0000      32.679434       889.2526 
 527   0.0000      32.679451       889.2531 
 528   0.0000      34.011453       925.4987 
 529   0.0000      34.011628       925.5034 
 530   0.0000      34.028035       925.9499 
 531   0.0000      41.245039      1122.3346 
 532   0.0000      41.245247      1122.3402 
 533   0.0000      41.767771      1136.5588 
 534   0.0000      41.896717      1140.0676 
 535   0.0000      41.896717      1140.0676 
 536   0.0000      42.201293      1148.3556 
 537   0.0000      44.089165      1199.7272 
 538   0.0000      78.462277      2135.0671 
 539   0.0000      90.970144      2475.4235 
 540   0.0000      91.162058      2480.6457 
 541   0.0000      91.162063      2480.6459 
 542   0.0000      91.354208      2485.8744 
 543   0.0000      91.389275      2486.8286 
 544   0.0000      91.389286      2486.8289 
 545   0.0000      91.465763      2488.9100 
 546   0.0000      91.465798      2488.9109 
 547   0.0000      91.714712      2495.6842 
 548   0.0000      91.714718      2495.6843 
 549   0.0000      92.370113      2513.5186 
 550   0.0000      92.491698      2516.8271 
 551   0.0000      92.533765      2517.9718 
 552   0.0000      92.534001      2517.9782 
 553   0.0000     202.671201      5514.9638 

                    ********************************
                    * MULLIKEN POPULATION ANALYSIS *
                    ********************************

--------------------------------------------
MULLIKEN ATOMIC CHARGES AND SPIN POPULATIONS
--------------------------------------------
   0 C :    0.574777   -0.000000
   1 F :   -0.498955   -0.000000
   2 H :   -0.025221    0.000000
   3 H :   -0.025354    0.000000
   4 H :   -0.025247   -0.000000
Sum of atomic charges         :   -0.0000000
Sum of atomic spin populations:    0.0000000

-----------------------------------------------------
MULLIKEN REDUCED ORBITAL CHARGES AND SPIN POPULATIONS
-----------------------------------------------------
CHARGE
  0 C s       :     2.847835  s :     2.847835
      pz      :     0.543908  p :     2.476137
      px      :     0.966091
      py      :     0.966138
      dz2     :     0.019152  d :     0.093690
      dxz     :     0.029429
      dyz     :     0.029424
      dx2y2   :     0.007840
      dxy     :     0.007843
      f0      :     0.003325  f :     0.003180
      f+1     :    -0.000453
      f-1     :    -0.000452
      f+2     :    -0.000072
      f-2     :    -0.000072
      f+3     :    -0.000000
      f-3     :     0.000906
      g0      :     0.000991  g :     0.004329
      g+1     :     0.001628
      g-1     :     0.001628
      g+2     :    -0.000011
      g-2     :    -0.000011
      g+3     :     0.000000
      g-3     :     0.000133
      g+4     :    -0.000014
      g-4     :    -0.000014
      h0      :     0.000187  h :     0.000052
      h+1     :    -0.000068
      h-1     :    -0.000068
      h+2     :     0.000004
      h-2     :     0.000004
      h+3     :     0.000000
      h-3     :    -0.000001
      h+4     :    -0.000006
      h-4     :    -0.000006
      h+5     :     0.000003
      h-5     :     0.000003
  1 F s       :     4.002310  s :     4.002310
      pz      :     1.465773  p :     5.420585
      px      :     1.977402
      py      :     1.977411
      dz2     :     0.010573  d :     0.059554
      dxz     :     0.024720
      dyz     :     0.024723
      dx2y2   :    -0.000231
      dxy     :    -0.000231
      f0      :     0.002317  f :     0.013908
      f+1     :     0.005965
      f-1     :     0.005966
      f+2     :    -0.000132
      f-2     :    -0.000132
      f+3     :    -0.000000
      f-3     :    -0.000077
      g0      :     0.000475  g :     0.002307
      g+1     :     0.001068
      g-1     :     0.001068
      g+2     :    -0.000107
      g-2     :    -0.000107
      g+3     :    -0.000000
      g-3     :    -0.000071
      g+4     :    -0.000010
      g-4     :    -0.000010
      h0      :     0.000036  h :     0.000290
      h+1     :     0.000181
      h-1     :     0.000181
      h+2     :    -0.000030
      h-2     :    -0.000030
      h+3     :    -0.000000
      h-3     :    -0.000026
      h+4     :    -0.000011
      h-4     :    -0.000011
      h+5     :    -0.000000
      h-5     :    -0.000000
  2 H s       :     0.956077  s :     0.956077
      pz      :     0.015988  p :     0.063229
      px      :     0.020252
      py      :     0.026989
      dz2     :     0.003934  d :     0.003956
      dxz     :    -0.005683
      dyz     :     0.001048
      dx2y2   :     0.000367
      dxy     :     0.004290
      f0      :    -0.000002  f :     0.002066
      f+1     :     0.001640
      f-1     :    -0.000312
      f+2     :    -0.000071
      f-2     :    -0.002047
      f+3     :     0.002265
      f-3     :     0.000593
      g0      :    -0.000110  g :    -0.000107
      g+1     :    -0.000021
      g-1     :     0.000008
      g+2     :    -0.000129
      g-2     :     0.000187
      g+3     :    -0.000234
      g-3     :    -0.000048
      g+4     :     0.000023
      g-4     :     0.000217
  3 H s       :     0.956170  s :     0.956170
      pz      :     0.015986  p :     0.063252
      px      :     0.025326
      py      :     0.021940
      dz2     :     0.003933  d :     0.003969
      dxz     :    -0.000636
      dyz     :    -0.003999
      dx2y2   :     0.003317
      dxy     :     0.001353
      f0      :    -0.000002  f :     0.002070
      f+1     :     0.000177
      f-1     :     0.001153
      f+2     :    -0.001553
      f-2     :    -0.000565
      f+3     :     0.002266
      f-3     :     0.000593
      g0      :    -0.000110  g :    -0.000106
      g+1     :     0.000001
      g-1     :    -0.000014
      g+2     :     0.000108
      g-2     :    -0.000050
      g+3     :    -0.000234
      g-3     :    -0.000048
      g+4     :     0.000169
      g-4     :     0.000072
  4 H s       :     0.956081  s :     0.956081
      pz      :     0.015991  p :     0.063237
      px      :     0.025315
      py      :     0.021931
      dz2     :     0.003934  d :     0.003967
      dxz     :    -0.000633
      dyz     :    -0.003998
      dx2y2   :     0.003315
      dxy     :     0.001349
      f0      :    -0.000002  f :     0.002069
      f+1     :     0.000177
      f-1     :     0.001153
      f+2     :    -0.001553
      f-2     :    -0.000564
      f+3     :     0.002265
      f-3     :     0.000593
      g0      :    -0.000110  g :    -0.000106
      g+1     :     0.000001
      g-1     :    -0.000014
      g+2     :     0.000108
      g-2     :    -0.000050
      g+3     :    -0.000234
      g-3     :    -0.000048
      g+4     :     0.000169
      g-4     :     0.000072

SPIN
  0 C s       :    -0.000000  s :    -0.000000
      pz      :    -0.000000  p :    -0.000000
      px      :     0.000000
      py      :    -0.000000
      dz2     :    -0.000000  d :    -0.000000
      dxz     :     0.000000
      dyz     :    -0.000000
      dx2y2   :    -0.000000
      dxy     :     0.000000
      f0      :     0.000000  f :     0.000000
      f+1     :     0.000000
      f-1     :    -0.000000
      f+2     :    -0.000000
      f-2     :     0.000000
      f+3     :    -0.000000
      f-3     :     0.000000
      g0      :     0.000000  g :     0.000000
      g+1     :    -0.000000
      g-1     :     0.000000
      g+2     :    -0.000000
      g-2     :    -0.000000
      g+3     :     0.000000
      g-3     :     0.000000
      g+4     :    -0.000000
      g-4     :     0.000000
      h0      :     0.000000  h :     0.000000
      h+1     :     0.000000
      h-1     :    -0.000000
      h+2     :     0.000000
      h-2     :    -0.000000
      h+3     :     0.000000
      h-3     :    -0.000000
      h+4     :     0.000000
      h-4     :     0.000000
      h+5     :    -0.000000
      h-5     :    -0.000000
  1 F s       :    -0.000000  s :    -0.000000
      pz      :    -0.000000  p :    -0.000000
      px      :     0.000000
      py      :    -0.000000
      dz2     :    -0.000000  d :    -0.000000
      dxz     :    -0.000000
      dyz     :    -0.000000
      dx2y2   :     0.000000
      dxy     :    -0.000000
      f0      :    -0.000000  f :    -0.000000
      f+1     :    -0.000000
      f-1     :    -0.000000
      f+2     :     0.000000
      f-2     :    -0.000000
      f+3     :    -0.000000
      f-3     :    -0.000000
      g0      :     0.000000  g :    -0.000000
      g+1     :    -0.000000
      g-1     :    -0.000000
      g+2     :     0.000000
      g-2     :    -0.000000
      g+3     :     0.000000
      g-3     :    -0.000000
      g+4     :    -0.000000
      g-4     :     0.000000
      h0      :     0.000000  h :     0.000000
      h+1     :    -0.000000
      h-1     :    -0.000000
      h+2     :     0.000000
      h-2     :    -0.000000
      h+3     :     0.000000
      h-3     :    -0.000000
      h+4     :    -0.000000
      h-4     :    -0.000000
      h+5     :     0.000000
      h-5     :    -0.000000
  2 H s       :     0.000000  s :     0.000000
      pz      :     0.000000  p :     0.000000
      px      :     0.000000
      py      :     0.000000
      dz2     :     0.000000  d :    -0.000000
      dxz     :    -0.000000
      dyz     :    -0.000000
      dx2y2   :    -0.000000
      dxy     :    -0.000000
      f0      :     0.000000  f :    -0.000000
      f+1     :    -0.000000
      f-1     :     0.000000
      f+2     :    -0.000000
      f-2     :    -0.000000
      f+3     :    -0.000000
      f-3     :    -0.000000
      g0      :     0.000000  g :     0.000000
      g+1     :     0.000000
      g-1     :     0.000000
      g+2     :     0.000000
      g-2     :    -0.000000
      g+3     :     0.000000
      g-3     :    -0.000000
      g+4     :    -0.000000
      g-4     :    -0.000000
  3 H s       :    -0.000000  s :    -0.000000
      pz      :     0.000000  p :     0.000000
      px      :     0.000000
      py      :    -0.000000
      dz2     :     0.000000  d :     0.000000
      dxz     :     0.000000
      dyz     :     0.000000
      dx2y2   :     0.000000
      dxy     :    -0.000000
      f0      :     0.000000  f :     0.000000
      f+1     :    -0.000000
      f-1     :    -0.000000
      f+2     :     0.000000
      f-2     :     0.000000
      f+3     :     0.000000
      f-3     :     0.000000
      g0      :    -0.000000  g :     0.000000
      g+1     :     0.000000
      g-1     :    -0.000000
      g+2     :    -0.000000
      g-2     :    -0.000000
      g+3     :     0.000000
      g-3     :     0.000000
      g+4     :    -0.000000
      g-4     :     0.000000
  4 H s       :    -0.000000  s :    -0.000000
      pz      :    -0.000000  p :     0.000000
      px      :     0.000000
      py      :    -0.000000
      dz2     :     0.000000  d :     0.000000
      dxz     :    -0.000000
      dyz     :    -0.000000
      dx2y2   :     0.000000
      dxy     :    -0.000000
      f0      :     0.000000  f :     0.000000
      f+1     :     0.000000
      f-1     :    -0.000000
      f+2     :     0.000000
      f-2     :    -0.000000
      f+3     :     0.000000
      f-3     :     0.000000
      g0      :    -0.000000  g :    -0.000000
      g+1     :    -0.000000
      g-1     :     0.000000
      g+2     :     0.000000
      g-2     :    -0.000000
      g+3     :     0.000000
      g-3     :    -0.000000
      g+4     :     0.000000
      g-4     :     0.000000


                     *******************************
                     * LOEWDIN POPULATION ANALYSIS *
                     *******************************

-------------------------------------------
LOEWDIN ATOMIC CHARGES AND SPIN POPULATIONS
-------------------------------------------
   0 C :    0.663491   -0.000000
   1 F :    0.376196   -0.000000
   2 H :   -0.346610    0.000000
   3 H :   -0.346539   -0.000000
   4 H :   -0.346539    0.000000

----------------------------------------------------
LOEWDIN REDUCED ORBITAL CHARGES AND SPIN POPULATIONS
----------------------------------------------------
CHARGE
  0 C s       :     2.443058  s :     2.443058
      pz      :     0.542475  p :     2.008587
      px      :     0.733045
      py      :     0.733067
      dz2     :     0.204676  d :     0.581766
      dxz     :     0.145712
      dyz     :     0.145714
      dx2y2   :     0.042830
      dxy     :     0.042834
      f0      :     0.080256  f :     0.244964
      f+1     :     0.071909
      f-1     :     0.071908
      f+2     :     0.006336
      f-2     :     0.006336
      f+3     :     0.000000
      f-3     :     0.008219
      g0      :     0.016955  g :     0.049211
      g+1     :     0.015384
      g-1     :     0.015384
      g+2     :     0.000013
      g-2     :     0.000013
      g+3     :     0.000000
      g-3     :     0.000636
      g+4     :     0.000412
      g-4     :     0.000412
      h0      :     0.002780  h :     0.008922
      h+1     :     0.002487
      h-1     :     0.002487
      h+2     :     0.000142
      h-2     :     0.000142
      h+3     :     0.000000
      h-3     :     0.000470
      h+4     :     0.000157
      h-4     :     0.000157
      h+5     :     0.000049
      h-5     :     0.000049
  1 F s       :     3.297365  s :     3.297365
      pz      :     1.445288  p :     4.743345
      px      :     1.649029
      py      :     1.649029
      dz2     :     0.085191  d :     0.283772
      dxz     :     0.097925
      dyz     :     0.097923
      dx2y2   :     0.001366
      dxy     :     0.001367
      f0      :     0.026545  f :     0.173473
      f+1     :     0.069299
      f-1     :     0.069299
      f+2     :     0.004058
      f-2     :     0.004058
      f+3     :     0.000000
      f-3     :     0.000213
      g0      :     0.006356  g :     0.089092
      g+1     :     0.035100
      g-1     :     0.035102
      g+2     :     0.005801
      g-2     :     0.005802
      g+3     :     0.000000
      g-3     :     0.000856
      g+4     :     0.000037
      g-4     :     0.000037
      h0      :     0.002095  h :     0.036757
      h+1     :     0.012196
      h-1     :     0.012198
      h+2     :     0.004289
      h-2     :     0.004290
      h+3     :     0.000000
      h-3     :     0.001042
      h+4     :     0.000322
      h-4     :     0.000322
      h+5     :     0.000002
      h-5     :     0.000002
  2 H s       :     0.623898  s :     0.623898
      pz      :     0.055496  p :     0.282100
      px      :     0.080108
      py      :     0.146497
      dz2     :     0.046517  d :     0.236422
      dxz     :     0.012102
      dyz     :     0.052306
      dx2y2   :     0.041383
      dxy     :     0.084114
      f0      :     0.017217  f :     0.123245
      f+1     :     0.011943
      f-1     :     0.033966
      f+2     :     0.015579
      f-2     :     0.010780
      f+3     :     0.026795
      f-3     :     0.006966
      g0      :     0.012345  g :     0.080944
      g+1     :     0.004050
      g-1     :     0.019166
      g+2     :     0.014334
      g-2     :     0.014912
      g+3     :     0.004688
      g-3     :     0.004213
      g+4     :     0.000784
      g-4     :     0.006452
  3 H s       :     0.623879  s :     0.623879
      pz      :     0.055487  p :     0.282069
      px      :     0.129891
      py      :     0.096691
      dz2     :     0.046511  d :     0.236404
      dxz     :     0.042252
      dyz     :     0.022151
      dx2y2   :     0.073426
      dxy     :     0.052064
      f0      :     0.017215  f :     0.123240
      f+1     :     0.028459
      f-1     :     0.017447
      f+2     :     0.011979
      f-2     :     0.014379
      f+3     :     0.026795
      f-3     :     0.006965
      g0      :     0.012344  g :     0.080947
      g+1     :     0.015387
      g-1     :     0.007829
      g+2     :     0.014768
      g-2     :     0.014479
      g+3     :     0.004689
      g-3     :     0.004214
      g+4     :     0.005036
      g-4     :     0.002201
  4 H s       :     0.623879  s :     0.623879
      pz      :     0.055487  p :     0.282069
      px      :     0.129891
      py      :     0.096691
      dz2     :     0.046511  d :     0.236404
      dxz     :     0.042252
      dyz     :     0.022151
      dx2y2   :     0.073426
      dxy     :     0.052064
      f0      :     0.017215  f :     0.123240
      f+1     :     0.028459
      f-1     :     0.017447
      f+2     :     0.011979
      f-2     :     0.014379
      f+3     :     0.026795
      f-3     :     0.006965
      g0      :     0.012344  g :     0.080947
      g+1     :     0.015387
      g-1     :     0.007829
      g+2     :     0.014768
      g-2     :     0.014479
      g+3     :     0.004689
      g-3     :     0.004214
      g+4     :     0.005036
      g-4     :     0.002201

SPIN
  0 C s       :    -0.000000  s :    -0.000000
      pz      :    -0.000000  p :     0.000000
      px      :     0.000000
      py      :     0.000000
      dz2     :     0.000000  d :    -0.000000
      dxz     :    -0.000000
      dyz     :    -0.000000
      dx2y2   :    -0.000000
      dxy     :    -0.000000
      f0      :     0.000000  f :    -0.000000
      f+1     :     0.000000
      f-1     :    -0.000000
      f+2     :    -0.000000
      f-2     :    -0.000000
      f+3     :     0.000000
      f-3     :     0.000000
      g0      :    -0.000000  g :    -0.000000
      g+1     :    -0.000000
      g-1     :    -0.000000
      g+2     :    -0.000000
      g-2     :     0.000000
      g+3     :    -0.000000
      g-3     :    -0.000000
      g+4     :     0.000000
      g-4     :     0.000000
      h0      :     0.000000  h :     0.000000
      h+1     :     0.000000
      h-1     :     0.000000
      h+2     :     0.000000
      h-2     :     0.000000
      h+3     :    -0.000000
      h-3     :    -0.000000
      h+4     :     0.000000
      h-4     :     0.000000
      h+5     :    -0.000000
      h-5     :     0.000000
  1 F s       :    -0.000000  s :    -0.000000
      pz      :    -0.000000  p :     0.000000
      px      :     0.000000
      py      :    -0.000000
      dz2     :    -0.000000  d :     0.000000
      dxz     :     0.000000
      dyz     :     0.000000
      dx2y2   :    -0.000000
      dxy     :     0.000000
      f0      :     0.000000  f :    -0.000000
      f+1     :    -0.000000
      f-1     :    -0.000000
      f+2     :    -0.000000
      f-2     :    -0.000000
      f+3     :     0.000000
      f-3     :     0.000000
      g0      :     0.000000  g :    -0.000000
      g+1     :    -0.000000
      g-1     :    -0.000000
      g+2     :    -0.000000
      g-2     :    -0.000000
      g+3     :     0.000000
      g-3     :    -0.000000
      g+4     :    -0.000000
      g-4     :     0.000000
      h0      :     0.000000  h :     0.000000
      h+1     :    -0.000000
      h-1     :     0.000000
      h+2     :     0.000000
      h-2     :     0.000000
      h+3     :    -0.000000
      h-3     :    -0.000000
      h+4     :     0.000000
      h-4     :     0.000000
      h+5     :     0.000000
      h-5     :    -0.000000
  2 H s       :     0.000000  s :     0.000000
      pz      :     0.000000  p :     0.000000
      px      :     0.000000
      py      :    -0.000000
      dz2     :    -0.000000  d :    -0.000000
      dxz     :    -0.000000
      dyz     :    -0.000000
      dx2y2   :    -0.000000
      dxy     :     0.000000
      f0      :     0.000000  f :    -0.000000
      f+1     :     0.000000
      f-1     :     0.000000
      f+2     :    -0.000000
      f-2     :     0.000000
      f+3     :    -0.000000
      f-3     :    -0.000000
      g0      :    -0.000000  g :    -0.000000
      g+1     :     0.000000
      g-1     :    -0.000000
      g+2     :    -0.000000
      g-2     :    -0.000000
      g+3     :     0.000000
      g-3     :    -0.000000
      g+4     :    -0.000000
      g-4     :    -0.000000
  3 H s       :    -0.000000  s :    -0.000000
      pz      :    -0.000000  p :    -0.000000
      px      :     0.000000
      py      :    -0.000000
      dz2     :     0.000000  d :     0.000000
      dxz     :     0.000000
      dyz     :     0.000000
      dx2y2   :     0.000000
      dxy     :     0.000000
      f0      :    -0.000000  f :    -0.000000
      f+1     :     0.000000
      f-1     :    -0.000000
      f+2     :     0.000000
      f-2     :    -0.000000
      f+3     :    -0.000000
      f-3     :    -0.000000
      g0      :     0.000000  g :     0.000000
      g+1     :     0.000000
      g-1     :     0.000000
      g+2     :    -0.000000
      g-2     :    -0.000000
      g+3     :    -0.000000
      g-3     :    -0.000000
      g+4     :    -0.000000
      g-4     :     0.000000
  4 H s       :    -0.000000  s :    -0.000000
      pz      :    -0.000000  p :     0.000000
      px      :     0.000000
      py      :     0.000000
      dz2     :    -0.000000  d :     0.000000
      dxz     :    -0.000000
      dyz     :     0.000000
      dx2y2   :     0.000000
      dxy     :     0.000000
      f0      :    -0.000000  f :     0.000000
      f+1     :     0.000000
      f-1     :     0.000000
      f+2     :     0.000000
      f-2     :     0.000000
      f+3     :     0.000000
      f-3     :     0.000000
      g0      :    -0.000000  g :     0.000000
      g+1     :     0.000000
      g-1     :     0.000000
      g+2     :    -0.000000
      g-2     :     0.000000
      g+3     :    -0.000000
      g-3     :     0.000000
      g+4     :    -0.000000
      g-4     :     0.000000


                      *****************************
                      * MAYER POPULATION ANALYSIS *
                      *****************************

  NA   - Mulliken gross atomic population
  ZA   - Total nuclear charge
  QA   - Mulliken gross atomic charge
  VA   - Mayer's total valence
  BVA  - Mayer's bonded valence
  FA   - Mayer's free valence

  ATOM       NA         ZA         QA         VA         BVA        FA
  0 C      5.4252     6.0000     0.5748     3.7265     3.7265    -0.0000
  1 F      9.4990     9.0000    -0.4990     0.9078     0.9078     0.0000
  2 H      1.0252     1.0000    -0.0252     1.0965     1.0965    -0.0000
  3 H      1.0254     1.0000    -0.0254     1.0966     1.0966    -0.0000
  4 H      1.0252     1.0000    -0.0252     1.0965     1.0965    -0.0000

  Mayer bond orders larger than 0.1
B(  0-C ,  1-F ) :   0.8005 B(  0-C ,  2-H ) :   0.9753 B(  0-C ,  3-H ) :   0.9754 
B(  0-C ,  4-H ) :   0.9753 

-------
TIMINGS
-------

Total SCF time: 0 days 0 hours 42 min 6 sec 

Total time                  ....    2526.136 sec
Sum of individual times     ....    2524.493 sec  ( 99.9%)

Fock matrix formation       ....    2512.499 sec  ( 99.5%)
  XC integration            ....      83.399 sec  (  3.3% of F)
    Basis function eval.    ....       4.571 sec  (  5.5% of XC)
    Density eval.           ....      25.182 sec  ( 30.2% of XC)
    XC-Functional eval.     ....       0.365 sec  (  0.4% of XC)
    XC-Potential eval.      ....      49.740 sec  ( 59.6% of XC)
Diagonalization             ....       3.968 sec  (  0.2%)
Density matrix formation    ....       0.049 sec  (  0.0%)
Population analysis         ....       0.311 sec  (  0.0%)
Initial guess               ....       3.389 sec  (  0.1%)
Orbital Transformation      ....       0.000 sec  (  0.0%)
Orbital Orthonormalization  ....       0.000 sec  (  0.0%)
DIIS solution               ....       1.682 sec  (  0.1%)
Grid generation             ....       2.596 sec  (  0.1%)

-------------------------   --------------------
FINAL SINGLE POINT ENERGY      -139.658054242759
-------------------------   --------------------


                            ***************************************
                            *     ORCA property calculations      *
                            ***************************************

                                    ---------------------
                                    Active property flags
                                    ---------------------
   (+) Dipole Moment
   (+) Polarizability


------------------------------------------------------------------------------
                       ORCA ELECTRIC PROPERTIES CALCULATION
------------------------------------------------------------------------------

Dipole Moment Calculation                       ... on
Quadrupole Moment Calculation                   ... off
Polarizability Calculation                      ... Analytic (CP-SCF)
GBWName                                         ... ch3f_pbe.gbw
Electron density file                           ... ch3f_pbe.scfp.tmp
The origin for moment calculation is the CENTER OF MASS  = ( 0.000000, -0.000006  0.201223)

-------------
DIPOLE MOMENT
-------------
                                X             Y             Z
Electronic contribution:     -0.00000       0.00010       2.97797
Nuclear contribution   :      0.00000      -0.00009      -3.62202
                        -----------------------------------------
Total Dipole Moment    :     -0.00000       0.00001      -0.64405
                        -----------------------------------------
Magnitude (a.u.)       :      0.64405
Magnitude (Debye)      :      1.63703



--------------------
Rotational spectrum 
--------------------
 
Rotational constants in cm-1:     5.310668     0.880351     0.880346 
Rotational constants in MHz : 159209.828292 26392.246338 26392.107754 

 Dipole components along the rotational axes: 
x,y,z [a.u.] :     0.644046    -0.000000    -0.000019 
x,y,z [Debye]:     1.637035    -0.000000    -0.000047 

 
Transforming and storing MO dipole integrals   ... done

                ... starting polarizability calculation

Opening the Dipole integral file               ... (ch3f_pbe.dmo.tmp) done
Reading Dipole-MO integrals                    ... done
Solving CP-SCF equations                       ... 

           ************************************************************
           *        Program running with 4 parallel MPI-processes     *
           *              working on a common directory               *
           ************************************************************

------------------------------------------------------------------------------
                           ORCA CP-SCF CALCULATION
------------------------------------------------------------------------------

Input orbitals are from        ... ch3f_pbe.gbw
Input Perturbation             ... ch3f_pbe.cpv.tmp
Wavefunction output            ... ch3f_pbe.cpu.tmp
Perturbation mode              ... Real perturbation (singlet)
Solver                         ... POPLE
Max. number of iterations      ... 200
Convergence tolerance          ... 1.000e-06
Integral handling              ... Direct
Number of perturbations        ... 3
Number of operators            ... 2
Orbital ranges used for CP-SCF:
 Operator 0:  Orbitals   0...  8  to   9...553
 Operator 1:  Orbitals   0...  8  to   9...553
DFT calculation                         ... on
Exchange functional (SCF)               ... PBE
Exchange functional (CP-SCF)            ... PBE
   PBE kappa parameter  XKappa (SCF)    ...  0.804000
   PBE kappa parameter  XKappa (CP-SCF) ...  0.804000
   PBE mue parameter   XMuePBE (SCF)    ...  0.219520
   PBE mue parameter   XMuePBE (CP-SCF) ...  0.219520
Correlation functional (SCF)            ... PBE
Correlation functional (CP-SCF)         ... PBE
   PBE beta parameter CBetaPBE (SCF)    ...  0.066725
   PBE beta parameter CBetaPBE (CP-SCF) ...  0.066725
 LDA part of GGA corr.  LDAOpt (SCF)    ... PW91-LDA
 LDA part of GGA corr.  LDAOpt (CP-SCF) ... PW91-LDA
Variables per vector in CP-SCF ... 9810
Number of vectors sought       ... 3
Recalculating density on grid  ... done
Calculating the xc-kernel      ... done
     CP-SCF ITERATION   0: 
     CP-SCF ITERATION   1:      0.107346829280
     CP-SCF ITERATION   2:      0.009594322808
     CP-SCF ITERATION   3:      0.000282889575
     CP-SCF ITERATION   4:      0.000004433135
     CP-SCF ITERATION   5:      0.000000590673
done
Reading CP-SCF coefficients                    ... done
Doing the polarizability tensor   ... done
Cleaning up                                    ... done

-------------------------
THE POLARIZABILITY TENSOR
-------------------------

The raw cartesian tensor (atomic units):
   17.30761     -0.00000      0.00000  
   -0.00000     17.30676      0.00033  
    0.00000      0.00033     18.66649  
diagonalized tensor: 
   17.30676     17.30761     18.66649  

    0.00002      1.00000      0.00000  
    1.00000     -0.00002      0.00024  
   -0.00024     -0.00000      1.00000  

Isotropic polarizability :  17.76029


Timings for individual modules:

Sum of individual times         ...     4534.280 sec (=  75.571 min)
GTO integral calculation        ...        9.983 sec (=   0.166 min)   0.2 %
SCF iterations                  ...     2534.058 sec (=  42.234 min)  55.9 %
Solution of CP-SCF eqns.        ...     1990.238 sec (=  33.171 min)  43.9 %
                             ****ORCA TERMINATED NORMALLY****
TOTAL RUN TIME: 0 days 1 hours 15 minutes 38 seconds 186 msec
