
                                 *****************
                                 * O   R   C   A *
                                 *****************

           --- An Ab Initio, DFT and Semiempirical electronic structure package ---

                  #######################################################
                  #                        -***-                        #
                  #          Department of theory and spectroscopy      #
                  #               Directorship: Frank Neese             #
                  #        Max Planck Institute fuer Kohlenforschung    #
                  #                Kaiser Wilhelm Platz 1               #
                  #                 D-45470 Muelheim/Ruhr               #
                  #                      Germany                        #
                  #                                                     #
                  #                  All rights reserved                #
                  #                        -***-                        #
                  #######################################################


                         Program Version 4.1.2  - RELEASE  -


 With contributions from (in alphabetic order):
   Daniel Aravena         : Magnetic Properties
   Michael Atanasov       : Ab Initio Ligand Field Theory
   Alexander A. Auer      : GIAO ZORA
   Ute Becker             : Parallelization
   Giovanni Bistoni       : ED, Open-shell LED
   Martin Brehm           : Molecular dynamics
   Dmytro Bykov           : SCF Hessian
   Vijay G. Chilkuri      : MRCI spin determinant printing
   Dipayan Datta          : RHF DLPNO-CCSD density
   Achintya Kumar Dutta   : EOM-CC, STEOM-CC
   Dmitry Ganyushin       : Spin-Orbit,Spin-Spin,Magnetic field MRCI
   Miquel Garcia          : C-PCM Hessian
   Yang Guo               : DLPNO-NEVPT2, CIM, IAO-localization
   Andreas Hansen         : Spin unrestricted coupled pair/coupled cluster methods
   Benjamin Helmich-Paris : CASSCF linear response (MC-RPA)
   Lee Huntington         : MR-EOM, pCC
   Robert Izsak           : Overlap fitted RIJCOSX, COSX-SCS-MP3, EOM
   Christian Kollmar      : KDIIS, OOCD, Brueckner-CCSD(T), CCSD density
   Simone Kossmann        : Meta GGA functionals, TD-DFT gradient, OOMP2, MP2 Hessian
   Martin Krupicka        : AUTO-CI
   Lucas Lang             : DCDCAS
   Dagmar Lenk            : GEPOL surface, SMD
   Dimitrios Liakos       : Extrapolation schemes; parallel MDCI
   Dimitrios Manganas     : ROCIS; embedding schemes
   Dimitrios Pantazis     : SARC Basis sets
   Taras Petrenko         : DFT Hessian,TD-DFT gradient, ASA, ECA, R-Raman, ABS, FL, XAS/XES, NRVS
   Peter Pinski           : DLPNO-MP2, DLPNO-MP2 Gradient
   Christoph Reimann      : Effective Core Potentials
   Marius Retegan         : Local ZFS, SOC
   Christoph Riplinger    : Optimizer, TS searches, QM/MM, DLPNO-CCSD(T), (RO)-DLPNO pert. Triples
   Tobias Risthaus        : Range-separated hybrids, TD-DFT gradient, RPA, STAB
   Michael Roemelt        : Restricted open shell CIS
   Masaaki Saitow         : Open-shell DLPNO
   Barbara Sandhoefer     : DKH picture change effects
   Avijit Sen             : IP-ROCIS
   Kantharuban Sivalingam : CASSCF convergence, NEVPT2, FIC-MRCI
   Bernardo de Souza      : ESD, SOC TD-DFT
   Georgi Stoychev        : AutoAux, RI-MP2 NMR
   Willem Van den Heuvel  : Paramagnetic NMR
   Boris Wezisla          : Elementary symmetry handling
   Frank Wennmohs         : Technical directorship


 We gratefully acknowledge several colleagues who have allowed us to
 interface, adapt or use parts of their codes:
   Stefan Grimme, W. Hujo, H. Kruse,             : VdW corrections, initial TS optimization,
                  C. Bannwarth                     DFT functionals, gCP, sTDA/sTD-DF
   Ed Valeev                                     : LibInt (2-el integral package), F12 methods
   Garnet Chan, S. Sharma, J. Yang, R. Olivares  : DMRG
   Ulf Ekstrom                                   : XCFun DFT Library
   Mihaly Kallay                                 : mrcc  (arbitrary order and MRCC methods)
   Andreas Klamt, Michael Diedenhofen            : otool_cosmo (COSMO solvation model)
   Jiri Pittner, Ondrej Demel                    : Mk-CCSD
   Frank Weinhold                                : gennbo (NPA and NBO analysis)
   Christopher J. Cramer and Donald G. Truhlar   : smd solvation model
   Lars Goerigk                                  : TD-DFT with DH, B97 family of functionals
   V. Asgeirsson, H. Jonsson                     : NEB implementation
   FAccTs GmbH                                   : IRC, NEB, NEB-TS, Multilevel


 Your calculation uses the libint2 library for the computation of 2-el integrals
 For citations please refer to: http://libint.valeyev.net

 This ORCA versions uses:
   CBLAS   interface :  Fast vector & matrix operations
   LAPACKE interface :  Fast linear algebra routines
   SCALAPACK package :  Parallel linear algebra routines


----- Orbital basis set information -----
Your calculation utilizes the basis: aug-pc-4
   H, C-F              : F. Jensen, J. Chem. Phys. 115, 9113 (2001).
                         F. Jensen, J. Chem. Phys. 116, 7372 (2002).
                         F. Jensen, J. Chem. Phys. 117, 9234 (2002).
   Si-Cl               : F. Jensen, T. Helgaker, J. Chem. Phys. 121, 3463 (2004).
   He-B, Ne-Mg, Al, Ar : F. Jensen, J. Phys. Chem. A 111, 11198 (2007).
   K, Ca, Ga-Kr        : F. Jensen, J. Chem. Phys. 136, 094110 (2012).
   Sc-Zn               : F. Jensen, J. Chem. Phys. 138, 014107 (2013).

================================================================================
                                        WARNINGS
                       Please study these warnings very carefully!
================================================================================


INFO   : the flag for use of LIBINT has been found!

================================================================================
                                       INPUT FILE
================================================================================
NAME = ch3nh2_pbe.inp
|  1> !uks pbe nori aug-pc-4 grid7 nofinalgrid verytightscf
|  2> 
|  3> %maxcore 1500
|  4> 
|  5> %pal nprocs 4 end
|  6> 
|  7> %scf
|  8> 	maxiter 200
|  9> end
| 10> %elprop
| 11> 	dipole true
| 12> 	 polar 1
| 13> 	 maxiter 200
| 14> end
| 15> 
| 16> * xyz 0 1
| 17> N 0.7505020558 -0.1263257432 -0.0000000014
| 18> H 1.1371866572 0.3468207227 -0.8058999300
| 19> H 1.1371866572 0.3468207227 0.8058999300
| 20> C -0.7051562913 0.0180439780 -0.0000000014
| 21> H -1.1126045962 -0.4830900647 0.8751002462
| 22> H -1.1126045962 -0.4830900647 -0.8751002462
| 23> H -1.0717407540 1.0485550259 0.0000000000
| 24> *
| 25> 
| 26>                          ****END OF INPUT****
================================================================================

                       ****************************
                       * Single Point Calculation *
                       ****************************

---------------------------------
CARTESIAN COORDINATES (ANGSTROEM)
---------------------------------
  N      0.750502   -0.126326   -0.000000
  H      1.137187    0.346821   -0.805900
  H      1.137187    0.346821    0.805900
  C     -0.705156    0.018044   -0.000000
  H     -1.112605   -0.483090    0.875100
  H     -1.112605   -0.483090   -0.875100
  H     -1.071741    1.048555    0.000000

----------------------------
CARTESIAN COORDINATES (A.U.)
----------------------------
  NO LB      ZA    FRAG     MASS         X           Y           Z
   0 N     7.0000    0    14.007    1.418243   -0.238721   -0.000000
   1 H     1.0000    0     1.008    2.148971    0.655396   -1.522930
   2 H     1.0000    0     1.008    2.148971    0.655396    1.522930
   3 C     6.0000    0    12.011   -1.332552    0.034098   -0.000000
   4 H     1.0000    0     1.008   -2.102518   -0.912908    1.653700
   5 H     1.0000    0     1.008   -2.102518   -0.912908   -1.653700
   6 H     1.0000    0     1.008   -2.025297    1.981482    0.000000

--------------------------------
INTERNAL COORDINATES (ANGSTROEM)
--------------------------------
 N      0   0   0     0.000000000000     0.00000000     0.00000000
 H      1   0   0     1.011368999956     0.00000000     0.00000000
 H      1   2   0     1.011369002187   105.65891354     0.00000000
 C      1   2   3     1.462799999959   109.52993600   117.89210384
 H      4   1   2     1.087635000020   109.10593500   180.65078100
 H      4   1   2     1.087634997767   109.10593504    63.90157880
 H      4   1   2     1.093772000070   115.24601200   302.27617978

---------------------------
INTERNAL COORDINATES (A.U.)
---------------------------
 N      0   0   0     0.000000000000     0.00000000     0.00000000
 H      1   0   0     1.911210430254     0.00000000     0.00000000
 H      1   2   0     1.911210434470   105.65891354     0.00000000
 C      1   2   3     2.764291388623   109.52993600   117.89210384
 H      4   1   2     2.055332283705   109.10593500   180.65078100
 H      4   1   2     2.055332279448   109.10593504    63.90157880
 H      4   1   2     2.066929533083   115.24601200   302.27617978

---------------------
BASIS SET INFORMATION
---------------------
There are 3 groups of distinct atoms

 Group   1 Type N   : 27s12p7d4f3g2h contracted to 9s8p7d4f3g2h pattern {1191111111/51111111/1111111/1111/111/11}
 Group   2 Type H   : 12s7p4d3f2g contracted to 8s7p4d3f2g pattern {51111111/1111111/1111/111/11}
 Group   3 Type C   : 28s12p7d4f3g2h contracted to 9s8p7d4f3g2h pattern {11101111111/51111111/1111111/1111/111/11}

Atom   0N    basis set group =>   1
Atom   1H    basis set group =>   2
Atom   2H    basis set group =>   2
Atom   3C    basis set group =>   3
Atom   4H    basis set group =>   2
Atom   5H    basis set group =>   2
Atom   6H    basis set group =>   2


           ************************************************************
           *        Program running with 4 parallel MPI-processes     *
           *              working on a common directory               *
           ************************************************************
------------------------------------------------------------------------------
                           ORCA GTO INTEGRAL CALCULATION
------------------------------------------------------------------------------

                         BASIS SET STATISTICS AND STARTUP INFO

 # of primitive gaussian shells          ...  251
 # of primitive gaussian functions       ...  811
 # of contracted shells                  ...  186
 # of contracted basis functions         ...  730
 Highest angular momentum                ...    5
 Maximum contraction depth               ...   11
 Integral package used                   ... LIBINT
 Integral threshhold            Thresh   ...  1.000e-12
 Primitive cut-off              TCut     ...  1.000e-14


------------------------------ INTEGRAL EVALUATION ----------------------------


 * One electron integrals 
 Pre-screening matrix                    ... done
 Shell pair data                         ... done (   0.005 sec)



           ************************************************************
           *        Program running with 4 parallel MPI-processes     *
           *              working on a common directory               *
           ************************************************************
-------------------------------------------------------------------------------
                                 ORCA SCF
-------------------------------------------------------------------------------

------------
SCF SETTINGS
------------
Hamiltonian:
 Density Functional     Method          .... DFT(GTOs)
 Exchange Functional    Exchange        .... PBE
   PBE kappa parameter   XKappa         ....  0.804000
   PBE mue parameter    XMuePBE         ....  0.219520
 Correlation Functional Correlation     .... PBE
   PBE beta parameter  CBetaPBE         ....  0.066725
 LDA part of GGA corr.  LDAOpt          .... PW91-LDA
 Gradients option       PostSCFGGA      .... off
   Density functional embedding theory  .... OFF
   NL short-range parameter             ....  6.400000


General Settings:
 Integral files         IntName         .... ch3nh2_pbe
 Hartree-Fock type      HFTyp           .... UHF
 Total Charge           Charge          ....    0
 Multiplicity           Mult            ....    1
 Number of Electrons    NEL             ....   18
 Basis Dimension        Dim             ....  730
 Nuclear Repulsion      ENuc            ....     42.0958925003 Eh

Convergence Acceleration:
 DIIS                   CNVDIIS         .... on
   Start iteration      DIISMaxIt       ....    12
   Startup error        DIISStart       ....  0.200000
   # of expansion vecs  DIISMaxEq       ....     5
   Bias factor          DIISBfac        ....   1.050
   Max. coefficient     DIISMaxC        ....  10.000
 Newton-Raphson         CNVNR           .... off
 SOSCF                  CNVSOSCF        .... off
 Level Shifting         CNVShift        .... on
   Level shift para.    LevelShift      ....    0.2500
   Turn off err/grad.   ShiftErr        ....    0.0010
 Zerner damping         CNVZerner       .... off
 Static damping         CNVDamp         .... on
   Fraction old density DampFac         ....    0.7000
   Max. Damping (<1)    DampMax         ....    0.9800
   Min. Damping (>=0)   DampMin         ....    0.0000
   Turn off err/grad.   DampErr         ....    0.1000
 Fernandez-Rico         CNVRico         .... off

SCF Procedure:
 Maximum # iterations   MaxIter         ....   200
 SCF integral mode      SCFMode         .... Direct
   Integral package                     .... LIBINT
 Reset frequency        DirectResetFreq ....    20
 Integral Threshold     Thresh          ....  1.000e-12 Eh
 Primitive CutOff       TCut            ....  1.000e-14 Eh

Convergence Tolerance:
 Convergence Check Mode ConvCheckMode   .... Total+1el-Energy
 Convergence forced     ConvForced      .... 0
 Energy Change          TolE            ....  1.000e-09 Eh
 1-El. energy change                    ....  1.000e-06 Eh
 DIIS Error             TolErr          ....  1.000e-08


Diagonalization of the overlap matrix:
Smallest eigenvalue                        ... 5.531e-08
Time for diagonalization                   ...    0.142 sec
Threshold for overlap eigenvalues          ... 1.000e-08
Number of eigenvalues below threshold      ... 0
Time for construction of square roots      ...    0.090 sec
Total time needed                          ...    0.235 sec

-------------------
DFT GRID GENERATION
-------------------

General Integration Accuracy     IntAcc      ...  5.670
Radial Grid Type                 RadialGrid  ... Gauss-Chebyshev
Angular Grid (max. acc.)         AngularGrid ... Lebedev-770
Angular grid pruning method      GridPruning ... 3 (G Style)
Weight generation scheme         WeightScheme... Becke
Basis function cutoff            BFCut       ...    1.0000e-12
Integration weight cutoff        WCut        ...    1.0000e-14
Grids for H and He will be reduced by one unit

# of grid points (after initial pruning)     ... 139248 (   0.0 sec)
# of grid points (after weights+screening)   ... 132991 (   0.0 sec)
nearest neighbour list constructed           ...    0.0 sec
Grid point re-assignment to atoms done       ...    0.0 sec
Grid point division into batches done        ...    2.2 sec
Reduced shell lists constructed in    2.9 sec

Total number of grid points                  ...   132991
Total number of batches                      ...     2082
Average number of points per batch           ...       63
Average number of grid points per atom       ...    18999
Average number of shells per batch           ...   136.15 (73.20%)
Average number of basis functions per batch  ...   548.17 (75.09%)
Average number of large shells per batch     ...   119.79 (87.99%)
Average number of large basis fcns per batch ...   483.83 (88.26%)
Maximum spatial batch extension              ...  12.54, 14.04, 14.49 au
Average spatial batch extension              ...   0.42,  0.43,  0.40 au

Time for grid setup =    3.021 sec

------------------------------
INITIAL GUESS: MODEL POTENTIAL
------------------------------
Loading Hartree-Fock densities                     ... done
Calculating cut-offs                               ... done
Setting up the integral package                    ... done
Initializing the effective Hamiltonian             ... done
Starting the Coulomb interaction                   ... done (   0.1 sec)
Reading the grid                                   ... done
Mapping shells                                     ... done
Starting the XC term evaluation                    ... done (   6.4 sec)
  promolecular density results
     # of electrons  =     17.997551883
     EX              =    -13.111023140
     EC              =     -0.566150598
     EX+EC           =    -13.677173739
Transforming the Hamiltonian                       ... done (   0.1 sec)
Diagonalizing the Hamiltonian                      ... done (   0.2 sec)
Back transforming the eigenvectors                 ... done (   0.0 sec)
Now organizing SCF variables                       ... done
                      ------------------
                      INITIAL GUESS DONE (   9.9 sec)
                      ------------------
--------------
SCF ITERATIONS
--------------
ITER       Energy         Delta-E        Max-DP      RMS-DP      [F,P]     Damp
               ***  Starting incremental Fock matrix formation  ***
  0    -95.6529870875   0.000000000000 0.04764995  0.00017393  0.2755697 0.7000
  1    -95.7170376100  -0.064050522452 0.03260641  0.00010838  0.1024582 0.7000
                               ***Turning on DIIS***
  2    -95.7354809908  -0.018443380822 0.01234022  0.00010878  0.0208532 0.0000
  3    -95.7675481130  -0.032067122208 0.03057772  0.00008484  0.0673363 0.0000
  4    -95.7759171498  -0.008369036853 0.00550350  0.00002355  0.0133276 0.0000
  5    -95.7764298564  -0.000512706575 0.00214117  0.00001211  0.0045671 0.0000
  6    -95.7764757502  -0.000045893784 0.00570282  0.00002645  0.0008168 0.0000
  7    -95.7764805655  -0.000004815318 0.00063820  0.00000214  0.0002409 0.0000
  8    -95.7764807116  -0.000000146031 0.00006060  0.00000057  0.0000441 0.0000
  9    -95.7764807154  -0.000000003843 0.00006626  0.00000063  0.0000135 0.0000
 10    -95.7764807160  -0.000000000562 0.00011674  0.00000113  0.0000045 0.0000
 11    -95.7764807160  -0.000000000044 0.00030055  0.00000199  0.0000023 0.0000
 12    -95.7764807160  -0.000000000002 0.00032342  0.00000278  0.0000006 0.0000
 13    -95.7764807160  -0.000000000003 0.00055493  0.00000416  0.0000001 0.0000
                 **** Energy Check signals convergence ****

               *****************************************************
               *                     SUCCESS                       *
               *           SCF CONVERGED AFTER  14 CYCLES          *
               *****************************************************


----------------
TOTAL SCF ENERGY
----------------

Total Energy       :          -95.77648072 Eh           -2606.21054 eV

Components:
Nuclear Repulsion  :           42.09589250 Eh            1145.48747 eV
Electronic Energy  :         -137.87237322 Eh           -3751.69801 eV
One Electron Energy:         -211.72517830 Eh           -5761.33500 eV
Two Electron Energy:           73.85280508 Eh            2009.63699 eV

Virial components:
Potential Energy   :         -191.18009659 Eh           -5202.27491 eV
Kinetic Energy     :           95.40361588 Eh            2596.06437 eV
Virial Ratio       :            2.00390829


DFT components:
N(Alpha)           :        9.000000023585 electrons
N(Beta)            :        9.000000023585 electrons
N(Total)           :       18.000000047170 electrons
E(X)               :      -13.507320184735 Eh       
E(C)               :       -0.572571413074 Eh       
E(XC)              :      -14.079891597810 Eh       
DFET-embed. en.    :        0.000000000000 Eh       

---------------
SCF CONVERGENCE
---------------

  Last Energy change         ...   -4.1211e-12  Tolerance :   1.0000e-09
  Last MAX-Density change    ...    2.6115e-04  Tolerance :   1.0000e-08
  Last RMS-Density change    ...    1.7956e-06  Tolerance :   1.0000e-09
  Last DIIS Error            ...    3.1367e-08  Tolerance :   1.0000e-08

             **** THE GBW FILE WAS UPDATED (ch3nh2_pbe.gbw) ****
             **** DENSITY FILE WAS UPDATED (ch3nh2_pbe.scfp.tmp) ****
             **** ENERGY FILE WAS UPDATED (ch3nh2_pbe.en.tmp) ****
----------------------
UHF SPIN CONTAMINATION
----------------------

Warning: in a DFT calculation there is little theoretical justification to 
         calculate <S**2> as in Hartree-Fock theory. We will do it anyways
         but you should keep in mind that the values have only limited relevance

Expectation value of <S**2>     :     0.000000
Ideal value S*(S+1) for S=0.0   :     0.000000
Deviation                       :     0.000000

----------------
ORBITAL ENERGIES
----------------
                 SPIN UP ORBITALS
  NO   OCC          E(Eh)            E(eV) 
   0   1.0000     -13.965252      -380.0138 
   1   1.0000      -9.895373      -269.2668 
   2   1.0000      -0.800886       -21.7932 
   3   1.0000      -0.596648       -16.2356 
   4   1.0000      -0.441396       -12.0110 
   5   1.0000      -0.395570       -10.7640 
   6   1.0000      -0.358146        -9.7456 
   7   1.0000      -0.323858        -8.8126 
   8   1.0000      -0.201082        -5.4717 
   9   0.0000      -0.022829        -0.6212 
  10   0.0000      -0.000173        -0.0047 
  11   0.0000       0.007973         0.2169 
  12   0.0000       0.013704         0.3729 
  13   0.0000       0.027606         0.7512 
  14   0.0000       0.032741         0.8909 
  15   0.0000       0.035530         0.9668 
  16   0.0000       0.036959         1.0057 
  17   0.0000       0.037284         1.0145 
  18   0.0000       0.041636         1.1330 
  19   0.0000       0.046507         1.2655 
  20   0.0000       0.049445         1.3455 
  21   0.0000       0.064942         1.7672 
  22   0.0000       0.070591         1.9209 
  23   0.0000       0.071660         1.9500 
  24   0.0000       0.079883         2.1737 
  25   0.0000       0.082106         2.2342 
  26   0.0000       0.086915         2.3651 
  27   0.0000       0.092915         2.5284 
  28   0.0000       0.098776         2.6878 
  29   0.0000       0.106390         2.8950 
  30   0.0000       0.107867         2.9352 
  31   0.0000       0.111106         3.0233 
  32   0.0000       0.112368         3.0577 
  33   0.0000       0.114772         3.1231 
  34   0.0000       0.124118         3.3774 
  35   0.0000       0.135860         3.6969 
  36   0.0000       0.138219         3.7611 
  37   0.0000       0.151059         4.1105 
  38   0.0000       0.151140         4.1127 
  39   0.0000       0.153638         4.1807 
  40   0.0000       0.156683         4.2636 
  41   0.0000       0.156742         4.2652 
  42   0.0000       0.158003         4.2995 
  43   0.0000       0.158375         4.3096 
  44   0.0000       0.160200         4.3593 
  45   0.0000       0.167129         4.5478 
  46   0.0000       0.167228         4.5505 
  47   0.0000       0.169757         4.6193 
  48   0.0000       0.170779         4.6471 
  49   0.0000       0.175479         4.7750 
  50   0.0000       0.179656         4.8887 
  51   0.0000       0.194985         5.3058 
  52   0.0000       0.196123         5.3368 
  53   0.0000       0.215851         5.8736 
  54   0.0000       0.223329         6.0771 
  55   0.0000       0.226377         6.1600 
  56   0.0000       0.229163         6.2359 
  57   0.0000       0.237438         6.4610 
  58   0.0000       0.241182         6.5629 
  59   0.0000       0.241328         6.5669 
  60   0.0000       0.242376         6.5954 
  61   0.0000       0.249972         6.8021 
  62   0.0000       0.252151         6.8614 
  63   0.0000       0.260584         7.0908 
  64   0.0000       0.262454         7.1417 
  65   0.0000       0.265398         7.2218 
  66   0.0000       0.266231         7.2445 
  67   0.0000       0.273788         7.4501 
  68   0.0000       0.277362         7.5474 
  69   0.0000       0.279421         7.6034 
  70   0.0000       0.283054         7.7023 
  71   0.0000       0.286951         7.8083 
  72   0.0000       0.287250         7.8165 
  73   0.0000       0.289732         7.8840 
  74   0.0000       0.291991         7.9455 
  75   0.0000       0.305031         8.3003 
  76   0.0000       0.306967         8.3530 
  77   0.0000       0.309838         8.4311 
  78   0.0000       0.314629         8.5615 
  79   0.0000       0.317766         8.6468 
  80   0.0000       0.322006         8.7622 
  81   0.0000       0.325987         8.8706 
  82   0.0000       0.329988         8.9794 
  83   0.0000       0.334971         9.1150 
  84   0.0000       0.340553         9.2669 
  85   0.0000       0.345714         9.4074 
  86   0.0000       0.346457         9.4276 
  87   0.0000       0.352011         9.5787 
  88   0.0000       0.352138         9.5822 
  89   0.0000       0.354986         9.6597 
  90   0.0000       0.357295         9.7225 
  91   0.0000       0.366948         9.9852 
  92   0.0000       0.374779        10.1983 
  93   0.0000       0.380550        10.3553 
  94   0.0000       0.382865        10.4183 
  95   0.0000       0.393140        10.6979 
  96   0.0000       0.397120        10.8062 
  97   0.0000       0.406773        11.0689 
  98   0.0000       0.415228        11.2989 
  99   0.0000       0.423956        11.5364 
 100   0.0000       0.427461        11.6318 
 101   0.0000       0.429364        11.6836 
 102   0.0000       0.439820        11.9681 
 103   0.0000       0.443131        12.0582 
 104   0.0000       0.446553        12.1513 
 105   0.0000       0.448596        12.2069 
 106   0.0000       0.451461        12.2849 
 107   0.0000       0.459274        12.4975 
 108   0.0000       0.466289        12.6884 
 109   0.0000       0.472906        12.8684 
 110   0.0000       0.476303        12.9609 
 111   0.0000       0.478215        13.0129 
 112   0.0000       0.482723        13.1356 
 113   0.0000       0.486884        13.2488 
 114   0.0000       0.491142        13.3647 
 115   0.0000       0.496797        13.5185 
 116   0.0000       0.500748        13.6260 
 117   0.0000       0.503085        13.6896 
 118   0.0000       0.510159        13.8821 
 119   0.0000       0.511587        13.9210 
 120   0.0000       0.512267        13.9395 
 121   0.0000       0.512904        13.9568 
 122   0.0000       0.517990        14.0952 
 123   0.0000       0.522220        14.2103 
 124   0.0000       0.525314        14.2945 
 125   0.0000       0.525707        14.3052 
 126   0.0000       0.528821        14.3899 
 127   0.0000       0.530549        14.4370 
 128   0.0000       0.534353        14.5405 
 129   0.0000       0.541932        14.7467 
 130   0.0000       0.544366        14.8130 
 131   0.0000       0.544640        14.8204 
 132   0.0000       0.546590        14.8735 
 133   0.0000       0.555040        15.1034 
 134   0.0000       0.558656        15.2018 
 135   0.0000       0.564347        15.3567 
 136   0.0000       0.567310        15.4373 
 137   0.0000       0.572619        15.5818 
 138   0.0000       0.574741        15.6395 
 139   0.0000       0.574911        15.6441 
 140   0.0000       0.584048        15.8927 
 141   0.0000       0.600336        16.3360 
 142   0.0000       0.603763        16.4292 
 143   0.0000       0.604707        16.4549 
 144   0.0000       0.608810        16.5666 
 145   0.0000       0.616408        16.7733 
 146   0.0000       0.619510        16.8577 
 147   0.0000       0.624733        16.9998 
 148   0.0000       0.626686        17.0530 
 149   0.0000       0.630213        17.1490 
 150   0.0000       0.633361        17.2346 
 151   0.0000       0.643802        17.5187 
 152   0.0000       0.645225        17.5575 
 153   0.0000       0.648773        17.6540 
 154   0.0000       0.653345        17.7784 
 155   0.0000       0.657982        17.9046 
 156   0.0000       0.659089        17.9347 
 157   0.0000       0.668380        18.1875 
 158   0.0000       0.673526        18.3276 
 159   0.0000       0.676939        18.4204 
 160   0.0000       0.707555        19.2535 
 161   0.0000       0.710028        19.3208 
 162   0.0000       0.722453        19.6589 
 163   0.0000       0.727229        19.7889 
 164   0.0000       0.735430        20.0121 
 165   0.0000       0.739623        20.1262 
 166   0.0000       0.754281        20.5250 
 167   0.0000       0.764484        20.8027 
 168   0.0000       0.769468        20.9383 
 169   0.0000       0.770026        20.9535 
 170   0.0000       0.775173        21.0935 
 171   0.0000       0.793572        21.5942 
 172   0.0000       0.799227        21.7481 
 173   0.0000       0.805034        21.9061 
 174   0.0000       0.808141        21.9906 
 175   0.0000       0.808565        22.0022 
 176   0.0000       0.816406        22.2155 
 177   0.0000       0.826880        22.5005 
 178   0.0000       0.831605        22.6291 
 179   0.0000       0.839401        22.8413 
 180   0.0000       0.839816        22.8526 
 181   0.0000       0.847697        23.0670 
 182   0.0000       0.850910        23.1544 
 183   0.0000       0.855428        23.2774 
 184   0.0000       0.859081        23.3768 
 185   0.0000       0.861129        23.4325 
 186   0.0000       0.865041        23.5390 
 187   0.0000       0.865649        23.5555 
 188   0.0000       0.871802        23.7229 
 189   0.0000       0.875195        23.8153 
 190   0.0000       0.877460        23.8769 
 191   0.0000       0.878655        23.9094 
 192   0.0000       0.885140        24.0859 
 193   0.0000       0.885849        24.1052 
 194   0.0000       0.890627        24.2352 
 195   0.0000       0.892641        24.2900 
 196   0.0000       0.893201        24.3052 
 197   0.0000       0.903022        24.5725 
 198   0.0000       0.911676        24.8080 
 199   0.0000       0.913865        24.8675 
 200   0.0000       0.916737        24.9457 
 201   0.0000       0.920395        25.0452 
 202   0.0000       0.924599        25.1596 
 203   0.0000       0.928974        25.2787 
 204   0.0000       0.931631        25.3510 
 205   0.0000       0.939314        25.5600 
 206   0.0000       0.939637        25.5688 
 207   0.0000       0.940441        25.5907 
 208   0.0000       0.941953        25.6319 
 209   0.0000       0.944607        25.7041 
 210   0.0000       0.949837        25.8464 
 211   0.0000       0.951304        25.8863 
 212   0.0000       0.961419        26.1615 
 213   0.0000       0.962418        26.1887 
 214   0.0000       0.965729        26.2788 
 215   0.0000       0.966578        26.3019 
 216   0.0000       0.974735        26.5239 
 217   0.0000       0.983087        26.7512 
 218   0.0000       0.986085        26.8327 
 219   0.0000       0.987423        26.8692 
 220   0.0000       0.991330        26.9755 
 221   0.0000       0.999127        27.1876 
 222   0.0000       1.000979        27.2380 
 223   0.0000       1.004646        27.3378 
 224   0.0000       1.005628        27.3645 
 225   0.0000       1.010822        27.5059 
 226   0.0000       1.016771        27.6677 
 227   0.0000       1.019763        27.7492 
 228   0.0000       1.022298        27.8182 
 229   0.0000       1.029350        28.0100 
 230   0.0000       1.031846        28.0779 
 231   0.0000       1.034966        28.1629 
 232   0.0000       1.054577        28.6965 
 233   0.0000       1.059200        28.8223 
 234   0.0000       1.065117        28.9833 
 235   0.0000       1.074536        29.2396 
 236   0.0000       1.083945        29.4956 
 237   0.0000       1.086115        29.5547 
 238   0.0000       1.090139        29.6642 
 239   0.0000       1.100410        29.9437 
 240   0.0000       1.105033        30.0695 
 241   0.0000       1.115437        30.3526 
 242   0.0000       1.118503        30.4360 
 243   0.0000       1.124949        30.6114 
 244   0.0000       1.131798        30.7978 
 245   0.0000       1.140514        31.0350 
 246   0.0000       1.144356        31.1395 
 247   0.0000       1.161184        31.5974 
 248   0.0000       1.161854        31.6157 
 249   0.0000       1.171432        31.8763 
 250   0.0000       1.182361        32.1737 
 251   0.0000       1.212797        33.0019 
 252   0.0000       1.218736        33.1635 
 253   0.0000       1.235241        33.6126 
 254   0.0000       1.236806        33.6552 
 255   0.0000       1.249537        34.0016 
 256   0.0000       1.276349        34.7312 
 257   0.0000       1.285016        34.9671 
 258   0.0000       1.305858        35.5342 
 259   0.0000       1.309505        35.6334 
 260   0.0000       1.325281        36.0627 
 261   0.0000       1.351659        36.7805 
 262   0.0000       1.361203        37.0402 
 263   0.0000       1.378805        37.5192 
 264   0.0000       1.384192        37.6658 
 265   0.0000       1.436869        39.0992 
 266   0.0000       1.440367        39.1944 
 267   0.0000       1.531186        41.6657 
 268   0.0000       1.540181        41.9105 
 269   0.0000       1.544478        42.0274 
 270   0.0000       1.565474        42.5987 
 271   0.0000       1.572799        42.7980 
 272   0.0000       1.587087        43.1868 
 273   0.0000       1.601211        43.5712 
 274   0.0000       1.609601        43.7995 
 275   0.0000       1.627086        44.2753 
 276   0.0000       1.630675        44.3729 
 277   0.0000       1.644255        44.7425 
 278   0.0000       1.651778        44.9472 
 279   0.0000       1.652365        44.9631 
 280   0.0000       1.660686        45.1896 
 281   0.0000       1.669410        45.4269 
 282   0.0000       1.675955        45.6051 
 283   0.0000       1.683069        45.7986 
 284   0.0000       1.699032        46.2330 
 285   0.0000       1.699643        46.2497 
 286   0.0000       1.706677        46.4410 
 287   0.0000       1.729743        47.0687 
 288   0.0000       1.735973        47.2382 
 289   0.0000       1.749400        47.6036 
 290   0.0000       1.760416        47.9034 
 291   0.0000       1.771395        48.2021 
 292   0.0000       1.775263        48.3074 
 293   0.0000       1.802534        49.0494 
 294   0.0000       1.824780        49.6548 
 295   0.0000       1.842889        50.1476 
 296   0.0000       1.851415        50.3796 
 297   0.0000       1.883107        51.2419 
 298   0.0000       1.886225        51.3268 
 299   0.0000       1.906643        51.8824 
 300   0.0000       1.916710        52.1563 
 301   0.0000       1.930080        52.5201 
 302   0.0000       1.934924        52.6520 
 303   0.0000       1.954331        53.1801 
 304   0.0000       1.954345        53.1804 
 305   0.0000       1.981553        53.9208 
 306   0.0000       1.996020        54.3145 
 307   0.0000       2.006211        54.5918 
 308   0.0000       2.024685        55.0945 
 309   0.0000       2.067917        56.2709 
 310   0.0000       2.140826        58.2548 
 311   0.0000       2.160897        58.8010 
 312   0.0000       2.163505        58.8720 
 313   0.0000       2.172864        59.1266 
 314   0.0000       2.245215        61.0954 
 315   0.0000       2.249031        61.1993 
 316   0.0000       2.301307        62.6218 
 317   0.0000       2.315745        63.0146 
 318   0.0000       2.354409        64.0667 
 319   0.0000       2.376473        64.6671 
 320   0.0000       2.400970        65.3337 
 321   0.0000       2.427027        66.0428 
 322   0.0000       2.440014        66.3962 
 323   0.0000       2.450792        66.6894 
 324   0.0000       2.487035        67.6757 
 325   0.0000       2.530821        68.8671 
 326   0.0000       2.544187        69.2308 
 327   0.0000       2.579468        70.1909 
 328   0.0000       2.585744        70.3617 
 329   0.0000       2.649922        72.1080 
 330   0.0000       2.694936        73.3329 
 331   0.0000       2.695991        73.3616 
 332   0.0000       2.702823        73.5475 
 333   0.0000       2.729300        74.2680 
 334   0.0000       2.801644        76.2366 
 335   0.0000       2.818314        76.6902 
 336   0.0000       2.842941        77.3604 
 337   0.0000       2.910885        79.2092 
 338   0.0000       2.911655        79.2302 
 339   0.0000       2.954589        80.3985 
 340   0.0000       3.004626        81.7600 
 341   0.0000       3.008920        81.8769 
 342   0.0000       3.049071        82.9694 
 343   0.0000       3.093428        84.1764 
 344   0.0000       3.185312        86.6767 
 345   0.0000       3.252075        88.4935 
 346   0.0000       3.255200        88.5785 
 347   0.0000       3.290110        89.5285 
 348   0.0000       3.303030        89.8800 
 349   0.0000       3.306555        89.9759 
 350   0.0000       3.340143        90.8899 
 351   0.0000       3.374504        91.8249 
 352   0.0000       3.377638        91.9102 
 353   0.0000       3.389541        92.2341 
 354   0.0000       3.443289        93.6967 
 355   0.0000       3.459867        94.1478 
 356   0.0000       3.484918        94.8294 
 357   0.0000       3.507986        95.4572 
 358   0.0000       3.519016        95.7573 
 359   0.0000       3.547351        96.5283 
 360   0.0000       3.548698        96.5650 
 361   0.0000       3.599832        97.9564 
 362   0.0000       3.624442        98.6261 
 363   0.0000       3.639590        99.0383 
 364   0.0000       3.643032        99.1319 
 365   0.0000       3.693415       100.5029 
 366   0.0000       3.736076       101.6638 
 367   0.0000       3.748210       101.9940 
 368   0.0000       3.767076       102.5073 
 369   0.0000       3.769971       102.5861 
 370   0.0000       3.825878       104.1074 
 371   0.0000       3.835414       104.3669 
 372   0.0000       3.847762       104.7029 
 373   0.0000       3.876802       105.4932 
 374   0.0000       3.894898       105.9856 
 375   0.0000       3.912389       106.4615 
 376   0.0000       3.922151       106.7272 
 377   0.0000       3.951920       107.5372 
 378   0.0000       3.957929       107.7007 
 379   0.0000       3.989640       108.5636 
 380   0.0000       4.008559       109.0784 
 381   0.0000       4.040785       109.9554 
 382   0.0000       4.065092       110.6168 
 383   0.0000       4.089661       111.2853 
 384   0.0000       4.107527       111.7715 
 385   0.0000       4.112409       111.9043 
 386   0.0000       4.150199       112.9327 
 387   0.0000       4.162764       113.2746 
 388   0.0000       4.198872       114.2571 
 389   0.0000       4.244011       115.4854 
 390   0.0000       4.258617       115.8829 
 391   0.0000       4.296542       116.9149 
 392   0.0000       4.299383       116.9922 
 393   0.0000       4.305925       117.1702 
 394   0.0000       4.339713       118.0896 
 395   0.0000       4.381970       119.2395 
 396   0.0000       4.398861       119.6991 
 397   0.0000       4.400390       119.7407 
 398   0.0000       4.441536       120.8604 
 399   0.0000       4.470817       121.6571 
 400   0.0000       4.474391       121.7544 
 401   0.0000       4.511183       122.7555 
 402   0.0000       4.545261       123.6828 
 403   0.0000       4.555099       123.9505 
 404   0.0000       4.655413       126.6802 
 405   0.0000       4.743658       129.0815 
 406   0.0000       4.792641       130.4144 
 407   0.0000       4.801781       130.6631 
 408   0.0000       4.820562       131.1742 
 409   0.0000       4.828698       131.3956 
 410   0.0000       4.845807       131.8611 
 411   0.0000       4.894908       133.1972 
 412   0.0000       4.897586       133.2701 
 413   0.0000       4.953384       134.7884 
 414   0.0000       4.954814       134.8273 
 415   0.0000       4.990179       135.7897 
 416   0.0000       5.022856       136.6789 
 417   0.0000       5.050626       137.4345 
 418   0.0000       5.087020       138.4249 
 419   0.0000       5.261354       143.1687 
 420   0.0000       5.285869       143.8358 
 421   0.0000       5.287145       143.8705 
 422   0.0000       5.297226       144.1449 
 423   0.0000       5.298788       144.1873 
 424   0.0000       5.335443       145.1848 
 425   0.0000       5.401617       146.9855 
 426   0.0000       5.406410       147.1159 
 427   0.0000       5.490924       149.4156 
 428   0.0000       5.491948       149.4435 
 429   0.0000       5.544860       150.8833 
 430   0.0000       5.568803       151.5348 
 431   0.0000       5.586422       152.0143 
 432   0.0000       5.640878       153.4961 
 433   0.0000       5.678981       154.5329 
 434   0.0000       5.687387       154.7617 
 435   0.0000       5.749873       156.4620 
 436   0.0000       5.767806       156.9500 
 437   0.0000       5.781286       157.3168 
 438   0.0000       5.844525       159.0376 
 439   0.0000       5.902455       160.6140 
 440   0.0000       5.969027       162.4255 
 441   0.0000       6.013550       163.6370 
 442   0.0000       6.071925       165.2255 
 443   0.0000       6.084757       165.5747 
 444   0.0000       6.134958       166.9407 
 445   0.0000       6.213324       169.0731 
 446   0.0000       6.302305       171.4944 
 447   0.0000       6.309365       171.6865 
 448   0.0000       6.337144       172.4425 
 449   0.0000       6.382449       173.6753 
 450   0.0000       6.419930       174.6952 
 451   0.0000       6.460133       175.7892 
 452   0.0000       6.536639       177.8710 
 453   0.0000       6.629657       180.4021 
 454   0.0000       6.639269       180.6637 
 455   0.0000       6.675669       181.6542 
 456   0.0000       6.691048       182.0727 
 457   0.0000       6.737715       183.3425 
 458   0.0000       6.779979       184.4926 
 459   0.0000       6.804852       185.1694 
 460   0.0000       6.833729       185.9552 
 461   0.0000       6.942436       188.9133 
 462   0.0000       6.959207       189.3696 
 463   0.0000       6.997464       190.4107 
 464   0.0000       6.997479       190.4111 
 465   0.0000       7.073079       192.4683 
 466   0.0000       7.147225       194.4859 
 467   0.0000       7.239148       196.9872 
 468   0.0000       7.279529       198.0861 
 469   0.0000       7.447311       202.6516 
 470   0.0000       7.476139       203.4361 
 471   0.0000       7.541907       205.2257 
 472   0.0000       7.545022       205.3105 
 473   0.0000       7.752377       210.9529 
 474   0.0000       7.898963       214.9417 
 475   0.0000       7.937314       215.9853 
 476   0.0000       7.951890       216.3819 
 477   0.0000       7.986325       217.3190 
 478   0.0000       8.034659       218.6342 
 479   0.0000       8.094646       220.2665 
 480   0.0000       8.269030       225.0118 
 481   0.0000       8.592212       233.8060 
 482   0.0000       8.598362       233.9733 
 483   0.0000       8.697203       236.6629 
 484   0.0000       8.724855       237.4154 
 485   0.0000       8.772814       238.7204 
 486   0.0000       8.829651       240.2670 
 487   0.0000       8.906189       242.3497 
 488   0.0000       8.987475       244.5616 
 489   0.0000       9.002574       244.9725 
 490   0.0000       9.077040       246.9988 
 491   0.0000       9.084541       247.2029 
 492   0.0000       9.120869       248.1915 
 493   0.0000       9.141673       248.7576 
 494   0.0000       9.154011       249.0933 
 495   0.0000       9.183530       249.8966 
 496   0.0000       9.204760       250.4742 
 497   0.0000       9.222153       250.9475 
 498   0.0000       9.238686       251.3974 
 499   0.0000       9.273841       252.3540 
 500   0.0000       9.279088       252.4968 
 501   0.0000       9.366932       254.8872 
 502   0.0000       9.380494       255.2562 
 503   0.0000       9.382308       255.3056 
 504   0.0000       9.444316       256.9929 
 505   0.0000       9.648972       262.5619 
 506   0.0000       9.693497       263.7735 
 507   0.0000       9.710540       264.2372 
 508   0.0000       9.726492       264.6713 
 509   0.0000       9.798572       266.6327 
 510   0.0000       9.806743       266.8550 
 511   0.0000       9.859794       268.2986 
 512   0.0000       9.945672       270.6355 
 513   0.0000       9.989580       271.8303 
 514   0.0000      10.026059       272.8229 
 515   0.0000      10.077746       274.2294 
 516   0.0000      10.205862       277.7156 
 517   0.0000      10.214956       277.9631 
 518   0.0000      10.246473       278.8207 
 519   0.0000      10.408592       283.2322 
 520   0.0000      10.642222       289.5896 
 521   0.0000      10.830025       294.7000 
 522   0.0000      10.913003       296.9579 
 523   0.0000      10.928219       297.3719 
 524   0.0000      10.995944       299.2148 
 525   0.0000      11.028256       300.0941 
 526   0.0000      11.072925       301.3096 
 527   0.0000      11.099392       302.0298 
 528   0.0000      11.150852       303.4301 
 529   0.0000      11.251049       306.1566 
 530   0.0000      11.276580       306.8513 
 531   0.0000      11.326926       308.2213 
 532   0.0000      11.481856       312.4372 
 533   0.0000      11.483303       312.4766 
 534   0.0000      11.557161       314.4863 
 535   0.0000      11.580233       315.1142 
 536   0.0000      11.613020       316.0063 
 537   0.0000      11.651086       317.0422 
 538   0.0000      11.732644       319.2615 
 539   0.0000      11.817756       321.5775 
 540   0.0000      11.838021       322.1289 
 541   0.0000      11.885778       323.4285 
 542   0.0000      11.947612       325.1111 
 543   0.0000      11.948662       325.1396 
 544   0.0000      11.965671       325.6025 
 545   0.0000      12.031953       327.4061 
 546   0.0000      12.079332       328.6953 
 547   0.0000      12.118046       329.7488 
 548   0.0000      12.133282       330.1634 
 549   0.0000      12.192316       331.7698 
 550   0.0000      12.238628       333.0300 
 551   0.0000      12.306962       334.8895 
 552   0.0000      12.319097       335.2197 
 553   0.0000      12.337422       335.7183 
 554   0.0000      12.410125       337.6967 
 555   0.0000      12.470243       339.3326 
 556   0.0000      12.514320       340.5320 
 557   0.0000      12.523411       340.7793 
 558   0.0000      12.597117       342.7850 
 559   0.0000      12.626828       343.5935 
 560   0.0000      12.645551       344.1029 
 561   0.0000      12.733191       346.4877 
 562   0.0000      12.740935       346.6985 
 563   0.0000      12.744775       346.8030 
 564   0.0000      12.809898       348.5750 
 565   0.0000      12.811036       348.6060 
 566   0.0000      12.881751       350.5303 
 567   0.0000      12.901218       351.0600 
 568   0.0000      12.915444       351.4471 
 569   0.0000      12.965516       352.8096 
 570   0.0000      12.994129       353.5882 
 571   0.0000      13.025221       354.4343 
 572   0.0000      13.037599       354.7711 
 573   0.0000      13.093607       356.2951 
 574   0.0000      13.136835       357.4715 
 575   0.0000      13.163344       358.1928 
 576   0.0000      13.202589       359.2607 
 577   0.0000      13.246991       360.4689 
 578   0.0000      13.275423       361.2426 
 579   0.0000      13.365208       363.6858 
 580   0.0000      13.407833       364.8457 
 581   0.0000      13.429080       365.4238 
 582   0.0000      13.440192       365.7262 
 583   0.0000      13.522362       367.9622 
 584   0.0000      13.570417       369.2698 
 585   0.0000      13.668903       371.9498 
 586   0.0000      13.763984       374.5371 
 587   0.0000      13.838133       376.5547 
 588   0.0000      13.910286       378.5181 
 589   0.0000      14.057704       382.5296 
 590   0.0000      14.119757       384.2181 
 591   0.0000      14.183329       385.9480 
 592   0.0000      14.239962       387.4891 
 593   0.0000      14.289620       388.8403 
 594   0.0000      14.362609       390.8265 
 595   0.0000      14.414786       392.2463 
 596   0.0000      14.531914       395.4335 
 597   0.0000      14.535074       395.5195 
 598   0.0000      14.772421       401.9780 
 599   0.0000      14.798846       402.6971 
 600   0.0000      14.818970       403.2447 
 601   0.0000      15.077449       410.2782 
 602   0.0000      15.278499       415.7491 
 603   0.0000      15.285174       415.9307 
 604   0.0000      15.387083       418.7038 
 605   0.0000      15.448240       420.3680 
 606   0.0000      15.582622       424.0247 
 607   0.0000      15.584574       424.0778 
 608   0.0000      15.707194       427.4145 
 609   0.0000      15.758393       428.8077 
 610   0.0000      15.760270       428.8588 
 611   0.0000      15.891128       432.4196 
 612   0.0000      15.923644       433.3044 
 613   0.0000      16.019871       435.9228 
 614   0.0000      16.054014       436.8519 
 615   0.0000      16.116402       438.5496 
 616   0.0000      16.198873       440.7937 
 617   0.0000      16.231801       441.6898 
 618   0.0000      16.388124       445.9435 
 619   0.0000      16.389248       445.9741 
 620   0.0000      16.493934       448.8228 
 621   0.0000      16.700993       454.4571 
 622   0.0000      16.731445       455.2858 
 623   0.0000      16.750457       455.8031 
 624   0.0000      16.766389       456.2366 
 625   0.0000      16.774825       456.4662 
 626   0.0000      16.792635       456.9508 
 627   0.0000      16.802281       457.2133 
 628   0.0000      16.814793       457.5538 
 629   0.0000      16.842013       458.2945 
 630   0.0000      16.848057       458.4589 
 631   0.0000      16.901024       459.9003 
 632   0.0000      16.906444       460.0477 
 633   0.0000      16.953446       461.3267 
 634   0.0000      17.143862       466.5082 
 635   0.0000      17.232285       468.9143 
 636   0.0000      17.246520       469.3017 
 637   0.0000      17.257600       469.6032 
 638   0.0000      17.358644       472.3527 
 639   0.0000      17.419878       474.0190 
 640   0.0000      17.453194       474.9256 
 641   0.0000      17.487632       475.8627 
 642   0.0000      17.687844       481.3107 
 643   0.0000      17.713548       482.0101 
 644   0.0000      17.787739       484.0290 
 645   0.0000      17.840512       485.4650 
 646   0.0000      17.868714       486.2324 
 647   0.0000      18.030106       490.6241 
 648   0.0000      18.247322       496.5349 
 649   0.0000      18.459457       502.3074 
 650   0.0000      18.646610       507.4001 
 651   0.0000      18.683446       508.4024 
 652   0.0000      18.735784       509.8266 
 653   0.0000      18.847219       512.8589 
 654   0.0000      18.872558       513.5484 
 655   0.0000      18.909710       514.5594 
 656   0.0000      19.089677       519.4565 
 657   0.0000      19.108898       519.9795 
 658   0.0000      19.244456       523.6683 
 659   0.0000      19.652590       534.7742 
 660   0.0000      19.796487       538.6898 
 661   0.0000      19.940968       542.6213 
 662   0.0000      19.972448       543.4779 
 663   0.0000      20.020319       544.7806 
 664   0.0000      20.173906       548.9599 
 665   0.0000      20.223623       550.3128 
 666   0.0000      20.318768       552.9018 
 667   0.0000      20.744684       564.4916 
 668   0.0000      20.768092       565.1285 
 669   0.0000      20.868661       567.8651 
 670   0.0000      20.937432       569.7365 
 671   0.0000      21.047088       572.7204 
 672   0.0000      21.128210       574.9278 
 673   0.0000      21.317415       580.0763 
 674   0.0000      21.395560       582.2028 
 675   0.0000      21.703093       590.5712 
 676   0.0000      21.834814       594.1555 
 677   0.0000      21.899265       595.9093 
 678   0.0000      22.144473       602.5817 
 679   0.0000      23.492309       639.2582 
 680   0.0000      23.678792       644.3327 
 681   0.0000      23.690541       644.6524 
 682   0.0000      23.733236       645.8142 
 683   0.0000      23.794263       647.4748 
 684   0.0000      23.814517       648.0259 
 685   0.0000      23.985807       652.6870 
 686   0.0000      24.094351       655.6406 
 687   0.0000      24.160651       657.4447 
 688   0.0000      24.182704       658.0448 
 689   0.0000      24.542598       667.8380 
 690   0.0000      25.689314       699.0418 
 691   0.0000      25.700120       699.3358 
 692   0.0000      25.757935       700.9090 
 693   0.0000      25.790678       701.8000 
 694   0.0000      26.122967       710.8421 
 695   0.0000      27.623086       751.6624 
 696   0.0000      28.725815       781.6692 
 697   0.0000      29.037063       790.1387 
 698   0.0000      32.698961       889.7840 
 699   0.0000      32.743348       890.9918 
 700   0.0000      33.670113       916.2103 
 701   0.0000      34.104497       928.0306 
 702   0.0000      34.160318       929.5495 
 703   0.0000      41.317195      1124.2980 
 704   0.0000      41.394348      1126.3975 
 705   0.0000      41.716973      1135.1765 
 706   0.0000      41.786661      1137.0729 
 707   0.0000      41.787376      1137.0923 
 708   0.0000      48.360323      1315.9513 
 709   0.0000      48.422520      1317.6437 
 710   0.0000      48.430611      1317.8639 
 711   0.0000      49.123829      1336.7273 
 712   0.0000      49.528208      1347.7310 
 713   0.0000      78.766662      2143.3498 
 714   0.0000      91.061629      2477.9129 
 715   0.0000      91.129186      2479.7512 
 716   0.0000      91.187604      2481.3408 
 717   0.0000      91.204049      2481.7883 
 718   0.0000      91.224913      2482.3561 
 719   0.0000      91.240491      2482.7800 
 720   0.0000      91.340501      2485.5014 
 721   0.0000      91.447570      2488.4149 
 722   0.0000      91.506477      2490.0178 
 723   0.0000      91.523782      2490.4887 
 724   0.0000      92.514304      2517.4422 
 725   0.0000      92.561506      2518.7266 
 726   0.0000      92.570814      2518.9799 
 727   0.0000      92.965351      2529.7158 
 728   0.0000      93.084197      2532.9498 
 729   0.0000     106.155009      2888.6247 

                 SPIN DOWN ORBITALS
  NO   OCC          E(Eh)            E(eV) 
   0   1.0000     -13.965252      -380.0138 
   1   1.0000      -9.895373      -269.2668 
   2   1.0000      -0.800886       -21.7932 
   3   1.0000      -0.596648       -16.2356 
   4   1.0000      -0.441396       -12.0110 
   5   1.0000      -0.395570       -10.7640 
   6   1.0000      -0.358146        -9.7456 
   7   1.0000      -0.323858        -8.8126 
   8   1.0000      -0.201082        -5.4717 
   9   0.0000      -0.022829        -0.6212 
  10   0.0000      -0.000173        -0.0047 
  11   0.0000       0.007973         0.2169 
  12   0.0000       0.013704         0.3729 
  13   0.0000       0.027606         0.7512 
  14   0.0000       0.032741         0.8909 
  15   0.0000       0.035530         0.9668 
  16   0.0000       0.036959         1.0057 
  17   0.0000       0.037284         1.0145 
  18   0.0000       0.041636         1.1330 
  19   0.0000       0.046507         1.2655 
  20   0.0000       0.049445         1.3455 
  21   0.0000       0.064942         1.7672 
  22   0.0000       0.070591         1.9209 
  23   0.0000       0.071660         1.9500 
  24   0.0000       0.079883         2.1737 
  25   0.0000       0.082106         2.2342 
  26   0.0000       0.086915         2.3651 
  27   0.0000       0.092915         2.5284 
  28   0.0000       0.098776         2.6878 
  29   0.0000       0.106390         2.8950 
  30   0.0000       0.107867         2.9352 
  31   0.0000       0.111106         3.0233 
  32   0.0000       0.112368         3.0577 
  33   0.0000       0.114772         3.1231 
  34   0.0000       0.124118         3.3774 
  35   0.0000       0.135860         3.6969 
  36   0.0000       0.138219         3.7611 
  37   0.0000       0.151059         4.1105 
  38   0.0000       0.151140         4.1127 
  39   0.0000       0.153638         4.1807 
  40   0.0000       0.156683         4.2636 
  41   0.0000       0.156742         4.2652 
  42   0.0000       0.158003         4.2995 
  43   0.0000       0.158375         4.3096 
  44   0.0000       0.160200         4.3593 
  45   0.0000       0.167129         4.5478 
  46   0.0000       0.167228         4.5505 
  47   0.0000       0.169757         4.6193 
  48   0.0000       0.170779         4.6471 
  49   0.0000       0.175479         4.7750 
  50   0.0000       0.179656         4.8887 
  51   0.0000       0.194985         5.3058 
  52   0.0000       0.196123         5.3368 
  53   0.0000       0.215851         5.8736 
  54   0.0000       0.223329         6.0771 
  55   0.0000       0.226377         6.1600 
  56   0.0000       0.229163         6.2359 
  57   0.0000       0.237438         6.4610 
  58   0.0000       0.241182         6.5629 
  59   0.0000       0.241328         6.5669 
  60   0.0000       0.242376         6.5954 
  61   0.0000       0.249972         6.8021 
  62   0.0000       0.252151         6.8614 
  63   0.0000       0.260584         7.0908 
  64   0.0000       0.262454         7.1417 
  65   0.0000       0.265398         7.2218 
  66   0.0000       0.266231         7.2445 
  67   0.0000       0.273788         7.4501 
  68   0.0000       0.277362         7.5474 
  69   0.0000       0.279421         7.6034 
  70   0.0000       0.283054         7.7023 
  71   0.0000       0.286951         7.8083 
  72   0.0000       0.287250         7.8165 
  73   0.0000       0.289732         7.8840 
  74   0.0000       0.291991         7.9455 
  75   0.0000       0.305031         8.3003 
  76   0.0000       0.306967         8.3530 
  77   0.0000       0.309838         8.4311 
  78   0.0000       0.314629         8.5615 
  79   0.0000       0.317766         8.6468 
  80   0.0000       0.322006         8.7622 
  81   0.0000       0.325987         8.8706 
  82   0.0000       0.329988         8.9794 
  83   0.0000       0.334971         9.1150 
  84   0.0000       0.340553         9.2669 
  85   0.0000       0.345714         9.4074 
  86   0.0000       0.346457         9.4276 
  87   0.0000       0.352011         9.5787 
  88   0.0000       0.352138         9.5822 
  89   0.0000       0.354986         9.6597 
  90   0.0000       0.357295         9.7225 
  91   0.0000       0.366948         9.9852 
  92   0.0000       0.374779        10.1983 
  93   0.0000       0.380550        10.3553 
  94   0.0000       0.382865        10.4183 
  95   0.0000       0.393140        10.6979 
  96   0.0000       0.397120        10.8062 
  97   0.0000       0.406773        11.0689 
  98   0.0000       0.415228        11.2989 
  99   0.0000       0.423956        11.5364 
 100   0.0000       0.427461        11.6318 
 101   0.0000       0.429364        11.6836 
 102   0.0000       0.439820        11.9681 
 103   0.0000       0.443131        12.0582 
 104   0.0000       0.446553        12.1513 
 105   0.0000       0.448596        12.2069 
 106   0.0000       0.451461        12.2849 
 107   0.0000       0.459274        12.4975 
 108   0.0000       0.466289        12.6884 
 109   0.0000       0.472906        12.8684 
 110   0.0000       0.476303        12.9609 
 111   0.0000       0.478215        13.0129 
 112   0.0000       0.482723        13.1356 
 113   0.0000       0.486884        13.2488 
 114   0.0000       0.491142        13.3647 
 115   0.0000       0.496797        13.5185 
 116   0.0000       0.500748        13.6260 
 117   0.0000       0.503085        13.6896 
 118   0.0000       0.510159        13.8821 
 119   0.0000       0.511587        13.9210 
 120   0.0000       0.512267        13.9395 
 121   0.0000       0.512904        13.9568 
 122   0.0000       0.517990        14.0952 
 123   0.0000       0.522220        14.2103 
 124   0.0000       0.525314        14.2945 
 125   0.0000       0.525707        14.3052 
 126   0.0000       0.528821        14.3899 
 127   0.0000       0.530549        14.4370 
 128   0.0000       0.534353        14.5405 
 129   0.0000       0.541932        14.7467 
 130   0.0000       0.544366        14.8130 
 131   0.0000       0.544640        14.8204 
 132   0.0000       0.546590        14.8735 
 133   0.0000       0.555040        15.1034 
 134   0.0000       0.558656        15.2018 
 135   0.0000       0.564347        15.3567 
 136   0.0000       0.567310        15.4373 
 137   0.0000       0.572619        15.5818 
 138   0.0000       0.574741        15.6395 
 139   0.0000       0.574911        15.6441 
 140   0.0000       0.584048        15.8927 
 141   0.0000       0.600336        16.3360 
 142   0.0000       0.603763        16.4292 
 143   0.0000       0.604707        16.4549 
 144   0.0000       0.608810        16.5666 
 145   0.0000       0.616408        16.7733 
 146   0.0000       0.619510        16.8577 
 147   0.0000       0.624733        16.9998 
 148   0.0000       0.626686        17.0530 
 149   0.0000       0.630213        17.1490 
 150   0.0000       0.633361        17.2346 
 151   0.0000       0.643802        17.5187 
 152   0.0000       0.645225        17.5575 
 153   0.0000       0.648773        17.6540 
 154   0.0000       0.653345        17.7784 
 155   0.0000       0.657982        17.9046 
 156   0.0000       0.659089        17.9347 
 157   0.0000       0.668380        18.1875 
 158   0.0000       0.673526        18.3276 
 159   0.0000       0.676939        18.4204 
 160   0.0000       0.707555        19.2535 
 161   0.0000       0.710028        19.3208 
 162   0.0000       0.722453        19.6589 
 163   0.0000       0.727229        19.7889 
 164   0.0000       0.735430        20.0121 
 165   0.0000       0.739623        20.1262 
 166   0.0000       0.754281        20.5250 
 167   0.0000       0.764484        20.8027 
 168   0.0000       0.769468        20.9383 
 169   0.0000       0.770026        20.9535 
 170   0.0000       0.775173        21.0935 
 171   0.0000       0.793572        21.5942 
 172   0.0000       0.799227        21.7481 
 173   0.0000       0.805034        21.9061 
 174   0.0000       0.808141        21.9906 
 175   0.0000       0.808565        22.0022 
 176   0.0000       0.816406        22.2155 
 177   0.0000       0.826880        22.5005 
 178   0.0000       0.831605        22.6291 
 179   0.0000       0.839401        22.8413 
 180   0.0000       0.839816        22.8526 
 181   0.0000       0.847697        23.0670 
 182   0.0000       0.850910        23.1544 
 183   0.0000       0.855428        23.2774 
 184   0.0000       0.859081        23.3768 
 185   0.0000       0.861129        23.4325 
 186   0.0000       0.865041        23.5390 
 187   0.0000       0.865649        23.5555 
 188   0.0000       0.871802        23.7229 
 189   0.0000       0.875195        23.8153 
 190   0.0000       0.877460        23.8769 
 191   0.0000       0.878655        23.9094 
 192   0.0000       0.885140        24.0859 
 193   0.0000       0.885849        24.1052 
 194   0.0000       0.890627        24.2352 
 195   0.0000       0.892641        24.2900 
 196   0.0000       0.893201        24.3052 
 197   0.0000       0.903022        24.5725 
 198   0.0000       0.911676        24.8080 
 199   0.0000       0.913865        24.8675 
 200   0.0000       0.916737        24.9457 
 201   0.0000       0.920395        25.0452 
 202   0.0000       0.924599        25.1596 
 203   0.0000       0.928974        25.2787 
 204   0.0000       0.931631        25.3510 
 205   0.0000       0.939314        25.5600 
 206   0.0000       0.939637        25.5688 
 207   0.0000       0.940441        25.5907 
 208   0.0000       0.941953        25.6319 
 209   0.0000       0.944607        25.7041 
 210   0.0000       0.949837        25.8464 
 211   0.0000       0.951304        25.8863 
 212   0.0000       0.961419        26.1615 
 213   0.0000       0.962418        26.1887 
 214   0.0000       0.965729        26.2788 
 215   0.0000       0.966578        26.3019 
 216   0.0000       0.974735        26.5239 
 217   0.0000       0.983087        26.7512 
 218   0.0000       0.986085        26.8327 
 219   0.0000       0.987423        26.8692 
 220   0.0000       0.991330        26.9755 
 221   0.0000       0.999127        27.1876 
 222   0.0000       1.000979        27.2380 
 223   0.0000       1.004646        27.3378 
 224   0.0000       1.005628        27.3645 
 225   0.0000       1.010822        27.5059 
 226   0.0000       1.016771        27.6677 
 227   0.0000       1.019763        27.7492 
 228   0.0000       1.022298        27.8182 
 229   0.0000       1.029350        28.0100 
 230   0.0000       1.031846        28.0779 
 231   0.0000       1.034966        28.1629 
 232   0.0000       1.054577        28.6965 
 233   0.0000       1.059200        28.8223 
 234   0.0000       1.065117        28.9833 
 235   0.0000       1.074536        29.2396 
 236   0.0000       1.083945        29.4956 
 237   0.0000       1.086115        29.5547 
 238   0.0000       1.090139        29.6642 
 239   0.0000       1.100410        29.9437 
 240   0.0000       1.105033        30.0695 
 241   0.0000       1.115437        30.3526 
 242   0.0000       1.118503        30.4360 
 243   0.0000       1.124949        30.6114 
 244   0.0000       1.131798        30.7978 
 245   0.0000       1.140514        31.0350 
 246   0.0000       1.144356        31.1395 
 247   0.0000       1.161184        31.5974 
 248   0.0000       1.161854        31.6157 
 249   0.0000       1.171432        31.8763 
 250   0.0000       1.182361        32.1737 
 251   0.0000       1.212797        33.0019 
 252   0.0000       1.218736        33.1635 
 253   0.0000       1.235241        33.6126 
 254   0.0000       1.236806        33.6552 
 255   0.0000       1.249537        34.0016 
 256   0.0000       1.276349        34.7312 
 257   0.0000       1.285016        34.9671 
 258   0.0000       1.305858        35.5342 
 259   0.0000       1.309505        35.6334 
 260   0.0000       1.325281        36.0627 
 261   0.0000       1.351659        36.7805 
 262   0.0000       1.361203        37.0402 
 263   0.0000       1.378805        37.5192 
 264   0.0000       1.384192        37.6658 
 265   0.0000       1.436869        39.0992 
 266   0.0000       1.440367        39.1944 
 267   0.0000       1.531186        41.6657 
 268   0.0000       1.540181        41.9105 
 269   0.0000       1.544478        42.0274 
 270   0.0000       1.565474        42.5987 
 271   0.0000       1.572799        42.7980 
 272   0.0000       1.587087        43.1868 
 273   0.0000       1.601211        43.5712 
 274   0.0000       1.609601        43.7995 
 275   0.0000       1.627086        44.2753 
 276   0.0000       1.630675        44.3729 
 277   0.0000       1.644255        44.7425 
 278   0.0000       1.651778        44.9472 
 279   0.0000       1.652365        44.9631 
 280   0.0000       1.660686        45.1896 
 281   0.0000       1.669410        45.4269 
 282   0.0000       1.675955        45.6051 
 283   0.0000       1.683069        45.7986 
 284   0.0000       1.699032        46.2330 
 285   0.0000       1.699643        46.2497 
 286   0.0000       1.706677        46.4410 
 287   0.0000       1.729743        47.0687 
 288   0.0000       1.735973        47.2382 
 289   0.0000       1.749400        47.6036 
 290   0.0000       1.760416        47.9034 
 291   0.0000       1.771395        48.2021 
 292   0.0000       1.775263        48.3074 
 293   0.0000       1.802534        49.0494 
 294   0.0000       1.824780        49.6548 
 295   0.0000       1.842889        50.1476 
 296   0.0000       1.851415        50.3796 
 297   0.0000       1.883107        51.2419 
 298   0.0000       1.886225        51.3268 
 299   0.0000       1.906643        51.8824 
 300   0.0000       1.916710        52.1563 
 301   0.0000       1.930080        52.5201 
 302   0.0000       1.934924        52.6520 
 303   0.0000       1.954331        53.1801 
 304   0.0000       1.954345        53.1804 
 305   0.0000       1.981553        53.9208 
 306   0.0000       1.996020        54.3145 
 307   0.0000       2.006211        54.5918 
 308   0.0000       2.024685        55.0945 
 309   0.0000       2.067917        56.2709 
 310   0.0000       2.140826        58.2548 
 311   0.0000       2.160897        58.8010 
 312   0.0000       2.163505        58.8720 
 313   0.0000       2.172864        59.1266 
 314   0.0000       2.245215        61.0954 
 315   0.0000       2.249031        61.1993 
 316   0.0000       2.301307        62.6218 
 317   0.0000       2.315745        63.0146 
 318   0.0000       2.354409        64.0667 
 319   0.0000       2.376473        64.6671 
 320   0.0000       2.400970        65.3337 
 321   0.0000       2.427027        66.0428 
 322   0.0000       2.440014        66.3962 
 323   0.0000       2.450792        66.6894 
 324   0.0000       2.487035        67.6757 
 325   0.0000       2.530821        68.8671 
 326   0.0000       2.544187        69.2308 
 327   0.0000       2.579468        70.1909 
 328   0.0000       2.585744        70.3617 
 329   0.0000       2.649922        72.1080 
 330   0.0000       2.694936        73.3329 
 331   0.0000       2.695991        73.3616 
 332   0.0000       2.702823        73.5475 
 333   0.0000       2.729300        74.2680 
 334   0.0000       2.801644        76.2366 
 335   0.0000       2.818314        76.6902 
 336   0.0000       2.842941        77.3604 
 337   0.0000       2.910885        79.2092 
 338   0.0000       2.911655        79.2302 
 339   0.0000       2.954589        80.3985 
 340   0.0000       3.004626        81.7600 
 341   0.0000       3.008920        81.8769 
 342   0.0000       3.049071        82.9694 
 343   0.0000       3.093428        84.1764 
 344   0.0000       3.185312        86.6767 
 345   0.0000       3.252075        88.4935 
 346   0.0000       3.255200        88.5785 
 347   0.0000       3.290110        89.5285 
 348   0.0000       3.303030        89.8800 
 349   0.0000       3.306555        89.9759 
 350   0.0000       3.340143        90.8899 
 351   0.0000       3.374504        91.8249 
 352   0.0000       3.377638        91.9102 
 353   0.0000       3.389541        92.2341 
 354   0.0000       3.443289        93.6967 
 355   0.0000       3.459867        94.1478 
 356   0.0000       3.484918        94.8294 
 357   0.0000       3.507986        95.4572 
 358   0.0000       3.519016        95.7573 
 359   0.0000       3.547351        96.5283 
 360   0.0000       3.548698        96.5650 
 361   0.0000       3.599832        97.9564 
 362   0.0000       3.624442        98.6261 
 363   0.0000       3.639590        99.0383 
 364   0.0000       3.643032        99.1319 
 365   0.0000       3.693415       100.5029 
 366   0.0000       3.736076       101.6638 
 367   0.0000       3.748210       101.9940 
 368   0.0000       3.767076       102.5073 
 369   0.0000       3.769971       102.5861 
 370   0.0000       3.825878       104.1074 
 371   0.0000       3.835414       104.3669 
 372   0.0000       3.847762       104.7029 
 373   0.0000       3.876802       105.4932 
 374   0.0000       3.894898       105.9856 
 375   0.0000       3.912389       106.4615 
 376   0.0000       3.922151       106.7272 
 377   0.0000       3.951920       107.5372 
 378   0.0000       3.957929       107.7007 
 379   0.0000       3.989640       108.5636 
 380   0.0000       4.008559       109.0784 
 381   0.0000       4.040785       109.9554 
 382   0.0000       4.065092       110.6168 
 383   0.0000       4.089661       111.2853 
 384   0.0000       4.107527       111.7715 
 385   0.0000       4.112409       111.9043 
 386   0.0000       4.150199       112.9327 
 387   0.0000       4.162764       113.2746 
 388   0.0000       4.198872       114.2571 
 389   0.0000       4.244011       115.4854 
 390   0.0000       4.258617       115.8829 
 391   0.0000       4.296542       116.9149 
 392   0.0000       4.299383       116.9922 
 393   0.0000       4.305925       117.1702 
 394   0.0000       4.339713       118.0896 
 395   0.0000       4.381970       119.2395 
 396   0.0000       4.398861       119.6991 
 397   0.0000       4.400390       119.7407 
 398   0.0000       4.441536       120.8604 
 399   0.0000       4.470817       121.6571 
 400   0.0000       4.474391       121.7544 
 401   0.0000       4.511183       122.7555 
 402   0.0000       4.545261       123.6828 
 403   0.0000       4.555099       123.9505 
 404   0.0000       4.655413       126.6802 
 405   0.0000       4.743658       129.0815 
 406   0.0000       4.792641       130.4144 
 407   0.0000       4.801781       130.6631 
 408   0.0000       4.820562       131.1742 
 409   0.0000       4.828698       131.3956 
 410   0.0000       4.845807       131.8611 
 411   0.0000       4.894908       133.1972 
 412   0.0000       4.897586       133.2701 
 413   0.0000       4.953384       134.7884 
 414   0.0000       4.954814       134.8273 
 415   0.0000       4.990179       135.7897 
 416   0.0000       5.022856       136.6789 
 417   0.0000       5.050626       137.4345 
 418   0.0000       5.087020       138.4249 
 419   0.0000       5.261354       143.1687 
 420   0.0000       5.285869       143.8358 
 421   0.0000       5.287145       143.8705 
 422   0.0000       5.297226       144.1449 
 423   0.0000       5.298788       144.1873 
 424   0.0000       5.335443       145.1848 
 425   0.0000       5.401617       146.9855 
 426   0.0000       5.406410       147.1159 
 427   0.0000       5.490924       149.4156 
 428   0.0000       5.491948       149.4435 
 429   0.0000       5.544860       150.8833 
 430   0.0000       5.568803       151.5348 
 431   0.0000       5.586422       152.0143 
 432   0.0000       5.640878       153.4961 
 433   0.0000       5.678981       154.5329 
 434   0.0000       5.687387       154.7617 
 435   0.0000       5.749873       156.4620 
 436   0.0000       5.767806       156.9500 
 437   0.0000       5.781286       157.3168 
 438   0.0000       5.844525       159.0376 
 439   0.0000       5.902455       160.6140 
 440   0.0000       5.969027       162.4255 
 441   0.0000       6.013550       163.6370 
 442   0.0000       6.071925       165.2255 
 443   0.0000       6.084757       165.5747 
 444   0.0000       6.134958       166.9407 
 445   0.0000       6.213324       169.0731 
 446   0.0000       6.302305       171.4944 
 447   0.0000       6.309365       171.6865 
 448   0.0000       6.337144       172.4425 
 449   0.0000       6.382449       173.6753 
 450   0.0000       6.419930       174.6952 
 451   0.0000       6.460133       175.7892 
 452   0.0000       6.536639       177.8710 
 453   0.0000       6.629657       180.4021 
 454   0.0000       6.639269       180.6637 
 455   0.0000       6.675669       181.6542 
 456   0.0000       6.691048       182.0727 
 457   0.0000       6.737715       183.3425 
 458   0.0000       6.779979       184.4926 
 459   0.0000       6.804852       185.1694 
 460   0.0000       6.833729       185.9552 
 461   0.0000       6.942436       188.9133 
 462   0.0000       6.959207       189.3696 
 463   0.0000       6.997464       190.4107 
 464   0.0000       6.997479       190.4111 
 465   0.0000       7.073079       192.4683 
 466   0.0000       7.147225       194.4859 
 467   0.0000       7.239148       196.9872 
 468   0.0000       7.279529       198.0861 
 469   0.0000       7.447311       202.6516 
 470   0.0000       7.476139       203.4361 
 471   0.0000       7.541907       205.2257 
 472   0.0000       7.545022       205.3105 
 473   0.0000       7.752377       210.9529 
 474   0.0000       7.898963       214.9417 
 475   0.0000       7.937314       215.9853 
 476   0.0000       7.951890       216.3819 
 477   0.0000       7.986325       217.3190 
 478   0.0000       8.034659       218.6342 
 479   0.0000       8.094646       220.2665 
 480   0.0000       8.269030       225.0118 
 481   0.0000       8.592212       233.8060 
 482   0.0000       8.598362       233.9733 
 483   0.0000       8.697203       236.6629 
 484   0.0000       8.724855       237.4154 
 485   0.0000       8.772814       238.7204 
 486   0.0000       8.829651       240.2670 
 487   0.0000       8.906189       242.3497 
 488   0.0000       8.987475       244.5616 
 489   0.0000       9.002574       244.9725 
 490   0.0000       9.077040       246.9988 
 491   0.0000       9.084541       247.2029 
 492   0.0000       9.120869       248.1915 
 493   0.0000       9.141673       248.7576 
 494   0.0000       9.154011       249.0933 
 495   0.0000       9.183530       249.8966 
 496   0.0000       9.204760       250.4742 
 497   0.0000       9.222153       250.9475 
 498   0.0000       9.238686       251.3974 
 499   0.0000       9.273841       252.3540 
 500   0.0000       9.279088       252.4968 
 501   0.0000       9.366932       254.8872 
 502   0.0000       9.380494       255.2562 
 503   0.0000       9.382308       255.3056 
 504   0.0000       9.444316       256.9929 
 505   0.0000       9.648972       262.5619 
 506   0.0000       9.693497       263.7735 
 507   0.0000       9.710540       264.2372 
 508   0.0000       9.726492       264.6713 
 509   0.0000       9.798572       266.6327 
 510   0.0000       9.806743       266.8550 
 511   0.0000       9.859794       268.2986 
 512   0.0000       9.945672       270.6355 
 513   0.0000       9.989580       271.8303 
 514   0.0000      10.026059       272.8229 
 515   0.0000      10.077746       274.2294 
 516   0.0000      10.205862       277.7156 
 517   0.0000      10.214956       277.9631 
 518   0.0000      10.246473       278.8207 
 519   0.0000      10.408592       283.2322 
 520   0.0000      10.642222       289.5896 
 521   0.0000      10.830025       294.7000 
 522   0.0000      10.913003       296.9579 
 523   0.0000      10.928219       297.3719 
 524   0.0000      10.995944       299.2148 
 525   0.0000      11.028256       300.0941 
 526   0.0000      11.072925       301.3096 
 527   0.0000      11.099392       302.0298 
 528   0.0000      11.150852       303.4301 
 529   0.0000      11.251049       306.1566 
 530   0.0000      11.276580       306.8513 
 531   0.0000      11.326926       308.2213 
 532   0.0000      11.481856       312.4372 
 533   0.0000      11.483303       312.4766 
 534   0.0000      11.557161       314.4863 
 535   0.0000      11.580233       315.1142 
 536   0.0000      11.613020       316.0063 
 537   0.0000      11.651086       317.0422 
 538   0.0000      11.732644       319.2615 
 539   0.0000      11.817756       321.5775 
 540   0.0000      11.838021       322.1289 
 541   0.0000      11.885778       323.4285 
 542   0.0000      11.947612       325.1111 
 543   0.0000      11.948662       325.1396 
 544   0.0000      11.965671       325.6025 
 545   0.0000      12.031953       327.4061 
 546   0.0000      12.079332       328.6953 
 547   0.0000      12.118046       329.7488 
 548   0.0000      12.133282       330.1634 
 549   0.0000      12.192316       331.7698 
 550   0.0000      12.238628       333.0300 
 551   0.0000      12.306962       334.8895 
 552   0.0000      12.319097       335.2197 
 553   0.0000      12.337422       335.7183 
 554   0.0000      12.410125       337.6967 
 555   0.0000      12.470243       339.3326 
 556   0.0000      12.514320       340.5320 
 557   0.0000      12.523411       340.7793 
 558   0.0000      12.597117       342.7850 
 559   0.0000      12.626828       343.5935 
 560   0.0000      12.645551       344.1029 
 561   0.0000      12.733191       346.4877 
 562   0.0000      12.740935       346.6985 
 563   0.0000      12.744775       346.8030 
 564   0.0000      12.809898       348.5750 
 565   0.0000      12.811036       348.6060 
 566   0.0000      12.881751       350.5303 
 567   0.0000      12.901218       351.0600 
 568   0.0000      12.915444       351.4471 
 569   0.0000      12.965516       352.8096 
 570   0.0000      12.994129       353.5882 
 571   0.0000      13.025221       354.4343 
 572   0.0000      13.037599       354.7711 
[...]
      g-1     :     0.000402
      g+2     :     0.002282
      g-2     :     0.004856
      g+3     :     0.014808
      g-3     :     0.001144
      g+4     :     0.011872
      g-4     :     0.020330
      h0      :     0.002219  h :     0.033746
      h+1     :     0.002442
      h-1     :     0.000572
      h+2     :     0.004878
      h-2     :     0.000174
      h+3     :     0.000451
      h-3     :     0.002636
      h+4     :     0.006261
      h-4     :     0.001063
      h+5     :     0.005798
      h-5     :     0.007251
  1 H s       :     0.559993  s :     0.559993
      pz      :     0.135256  p :     0.387023
      px      :     0.110070
      py      :     0.141697
      dz2     :     0.097269  d :     0.337938
      dxz     :     0.070147
      dyz     :     0.070710
      dx2y2   :     0.059853
      dxy     :     0.039960
      f0      :     0.032113  f :     0.158543
      f+1     :     0.026964
      f-1     :     0.011312
      f+2     :     0.029648
      f-2     :     0.017478
      f+3     :     0.013963
      f-3     :     0.027064
      g0      :     0.013132  g :     0.084306
      g+1     :     0.007071
      g-1     :     0.002131
      g+2     :     0.011967
      g-2     :     0.004298
      g+3     :     0.008593
      g-3     :     0.013123
      g+4     :     0.005245
      g-4     :     0.018747
  2 H s       :     0.559993  s :     0.559993
      pz      :     0.135256  p :     0.387023
      px      :     0.110070
      py      :     0.141697
      dz2     :     0.097269  d :     0.337938
      dxz     :     0.070147
      dyz     :     0.070710
      dx2y2   :     0.059853
      dxy     :     0.039960
      f0      :     0.032113  f :     0.158543
      f+1     :     0.026964
      f-1     :     0.011312
      f+2     :     0.029648
      f-2     :     0.017478
      f+3     :     0.013963
      f-3     :     0.027064
      g0      :     0.013132  g :     0.084306
      g+1     :     0.007071
      g-1     :     0.002131
      g+2     :     0.011967
      g-2     :     0.004298
      g+3     :     0.008593
      g-3     :     0.013123
      g+4     :     0.005245
      g-4     :     0.018747
  3 C s       :     2.385638  s :     2.385638
      pz      :     0.691190  p :     1.996853
      px      :     0.621511
      py      :     0.684153
      dz2     :     0.068893  d :     0.493240
      dxz     :     0.115636
      dyz     :     0.037674
      dx2y2   :     0.116319
      dxy     :     0.154719
      f0      :     0.015786  f :     0.146601
      f+1     :     0.015558
      f-1     :     0.011514
      f+2     :     0.026234
      f-2     :     0.007779
      f+3     :     0.023887
      f-3     :     0.045844
      g0      :     0.001348  g :     0.038618
      g+1     :     0.008086
      g-1     :     0.000289
      g+2     :     0.002290
      g-2     :     0.001954
      g+3     :     0.007183
      g-3     :     0.000520
      g+4     :     0.005850
      g-4     :     0.011099
      h0      :     0.001299  h :     0.014645
      h+1     :     0.000352
      h-1     :     0.000120
      h+2     :     0.002510
      h-2     :     0.000146
      h+3     :     0.000476
      h-3     :     0.000617
      h+4     :     0.003023
      h-4     :     0.000165
      h+5     :     0.001897
      h-5     :     0.004039
  4 H s       :     0.578375  s :     0.578375
      pz      :     0.111635  p :     0.268028
      px      :     0.071840
      py      :     0.084553
      dz2     :     0.076262  d :     0.246256
      dxz     :     0.048372
      dyz     :     0.045733
      dx2y2   :     0.047123
      dxy     :     0.028766
      f0      :     0.030226  f :     0.139078
      f+1     :     0.021128
      f-1     :     0.007791
      f+2     :     0.025462
      f-2     :     0.014935
      f+3     :     0.016741
      f-3     :     0.022795
      g0      :     0.015507  g :     0.089787
      g+1     :     0.006087
      g-1     :     0.001646
      g+2     :     0.012257
      g-2     :     0.004707
      g+3     :     0.011234
      g-3     :     0.014450
      g+4     :     0.011449
      g-4     :     0.012450
  5 H s       :     0.578375  s :     0.578375
      pz      :     0.111635  p :     0.268028
      px      :     0.071840
      py      :     0.084553
      dz2     :     0.076262  d :     0.246256
      dxz     :     0.048372
      dyz     :     0.045733
      dx2y2   :     0.047123
      dxy     :     0.028766
      f0      :     0.030226  f :     0.139078
      f+1     :     0.021128
      f-1     :     0.007791
      f+2     :     0.025462
      f-2     :     0.014935
      f+3     :     0.016741
      f-3     :     0.022795
      g0      :     0.015507  g :     0.089787
      g+1     :     0.006087
      g-1     :     0.001646
      g+2     :     0.012257
      g-2     :     0.004707
      g+3     :     0.011234
      g-3     :     0.014450
      g+4     :     0.011449
      g-4     :     0.012450
  6 H s       :     0.577189  s :     0.577189
      pz      :     0.071216  p :     0.265960
      px      :     0.068483
      py      :     0.126261
      dz2     :     0.017662  d :     0.238061
      dxz     :     0.014257
      dyz     :     0.076788
      dx2y2   :     0.068754
      dxy     :     0.060599
      f0      :     0.016485  f :     0.139416
      f+1     :     0.008244
      f-1     :     0.007141
      f+2     :     0.027903
      f-2     :     0.010739
      f+3     :     0.032781
      f-3     :     0.036123
      g0      :     0.002886  g :     0.091328
      g+1     :     0.013437
      g-1     :     0.005206
      g+2     :     0.002672
      g-2     :     0.006100
      g+3     :     0.001288
      g-3     :     0.018930
      g+4     :     0.024493
      g-4     :     0.016317

SPIN
  0 N s       :     0.000000  s :     0.000000
      pz      :     0.000000  p :    -0.000000
      px      :    -0.000000
      py      :    -0.000000
      dz2     :    -0.000000  d :    -0.000000
      dxz     :     0.000000
      dyz     :    -0.000000
      dx2y2   :    -0.000000
      dxy     :     0.000000
      f0      :    -0.000000  f :    -0.000000
      f+1     :     0.000000
      f-1     :    -0.000000
      f+2     :    -0.000000
      f-2     :    -0.000000
      f+3     :    -0.000000
      f-3     :    -0.000000
      g0      :     0.000000  g :     0.000000
      g+1     :     0.000000
      g-1     :     0.000000
      g+2     :     0.000000
      g-2     :    -0.000000
      g+3     :    -0.000000
      g-3     :    -0.000000
      g+4     :     0.000000
      g-4     :     0.000000
      h0      :     0.000000  h :     0.000000
      h+1     :     0.000000
      h-1     :     0.000000
      h+2     :     0.000000
      h-2     :     0.000000
      h+3     :    -0.000000
      h-3     :     0.000000
      h+4     :    -0.000000
      h-4     :    -0.000000
      h+5     :     0.000000
      h-5     :     0.000000
  1 H s       :     0.000000  s :     0.000000
      pz      :    -0.000000  p :     0.000000
      px      :     0.000000
      py      :     0.000000
      dz2     :     0.000000  d :    -0.000000
      dxz     :     0.000000
      dyz     :    -0.000000
      dx2y2   :    -0.000000
      dxy     :    -0.000000
      f0      :     0.000000  f :    -0.000000
      f+1     :     0.000000
      f-1     :     0.000000
      f+2     :    -0.000000
      f-2     :     0.000000
      f+3     :    -0.000000
      f-3     :     0.000000
      g0      :    -0.000000  g :    -0.000000
      g+1     :    -0.000000
      g-1     :    -0.000000
      g+2     :    -0.000000
      g-2     :    -0.000000
      g+3     :     0.000000
      g-3     :    -0.000000
      g+4     :    -0.000000
      g-4     :     0.000000
  2 H s       :     0.000000  s :     0.000000
      pz      :    -0.000000  p :    -0.000000
      px      :    -0.000000
      py      :     0.000000
      dz2     :     0.000000  d :    -0.000000
      dxz     :     0.000000
      dyz     :    -0.000000
      dx2y2   :    -0.000000
      dxy     :    -0.000000
      f0      :    -0.000000  f :     0.000000
      f+1     :     0.000000
      f-1     :     0.000000
      f+2     :     0.000000
      f-2     :    -0.000000
      f+3     :     0.000000
      f-3     :    -0.000000
      g0      :    -0.000000  g :    -0.000000
      g+1     :    -0.000000
      g-1     :    -0.000000
      g+2     :    -0.000000
      g-2     :    -0.000000
      g+3     :    -0.000000
      g-3     :     0.000000
      g+4     :    -0.000000
      g-4     :    -0.000000
  3 C s       :     0.000000  s :     0.000000
      pz      :     0.000000  p :     0.000000
      px      :     0.000000
      py      :     0.000000
      dz2     :    -0.000000  d :    -0.000000
      dxz     :    -0.000000
      dyz     :    -0.000000
      dx2y2   :     0.000000
      dxy     :     0.000000
      f0      :     0.000000  f :     0.000000
      f+1     :     0.000000
      f-1     :    -0.000000
      f+2     :     0.000000
      f-2     :    -0.000000
      f+3     :    -0.000000
      f-3     :     0.000000
      g0      :     0.000000  g :     0.000000
      g+1     :    -0.000000
      g-1     :    -0.000000
      g+2     :    -0.000000
      g-2     :     0.000000
      g+3     :     0.000000
      g-3     :    -0.000000
      g+4     :     0.000000
      g-4     :     0.000000
      h0      :     0.000000  h :    -0.000000
      h+1     :     0.000000
      h-1     :     0.000000
      h+2     :    -0.000000
      h-2     :     0.000000
      h+3     :    -0.000000
      h-3     :    -0.000000
      h+4     :    -0.000000
      h-4     :     0.000000
      h+5     :    -0.000000
      h-5     :    -0.000000
  4 H s       :    -0.000000  s :    -0.000000
      pz      :     0.000000  p :    -0.000000
      px      :     0.000000
      py      :    -0.000000
      dz2     :     0.000000  d :     0.000000
      dxz     :     0.000000
      dyz     :    -0.000000
      dx2y2   :    -0.000000
      dxy     :    -0.000000
      f0      :     0.000000  f :     0.000000
      f+1     :     0.000000
      f-1     :    -0.000000
      f+2     :    -0.000000
      f-2     :     0.000000
      f+3     :    -0.000000
      f-3     :     0.000000
      g0      :    -0.000000  g :     0.000000
      g+1     :    -0.000000
      g-1     :     0.000000
      g+2     :     0.000000
      g-2     :    -0.000000
      g+3     :     0.000000
      g-3     :    -0.000000
      g+4     :    -0.000000
      g-4     :     0.000000
  5 H s       :    -0.000000  s :    -0.000000
      pz      :     0.000000  p :     0.000000
      px      :    -0.000000
      py      :    -0.000000
      dz2     :    -0.000000  d :     0.000000
      dxz     :     0.000000
      dyz     :    -0.000000
      dx2y2   :     0.000000
      dxy     :     0.000000
      f0      :     0.000000  f :    -0.000000
      f+1     :     0.000000
      f-1     :     0.000000
      f+2     :    -0.000000
      f-2     :    -0.000000
      f+3     :    -0.000000
      f-3     :    -0.000000
      g0      :     0.000000  g :     0.000000
      g+1     :     0.000000
      g-1     :    -0.000000
      g+2     :    -0.000000
      g-2     :     0.000000
      g+3     :     0.000000
      g-3     :    -0.000000
      g+4     :    -0.000000
      g-4     :     0.000000
  6 H s       :    -0.000000  s :    -0.000000
      pz      :     0.000000  p :     0.000000
      px      :     0.000000
      py      :     0.000000
      dz2     :     0.000000  d :     0.000000
      dxz     :     0.000000
      dyz     :    -0.000000
      dx2y2   :    -0.000000
      dxy     :     0.000000
      f0      :    -0.000000  f :    -0.000000
      f+1     :    -0.000000
      f-1     :    -0.000000
      f+2     :    -0.000000
      f-2     :    -0.000000
      f+3     :     0.000000
      f-3     :    -0.000000
      g0      :    -0.000000  g :     0.000000
      g+1     :    -0.000000
      g-1     :     0.000000
      g+2     :     0.000000
      g-2     :    -0.000000
      g+3     :     0.000000
      g-3     :     0.000000
      g+4     :     0.000000
      g-4     :     0.000000


                      *****************************
                      * MAYER POPULATION ANALYSIS *
                      *****************************

  NA   - Mulliken gross atomic population
  ZA   - Total nuclear charge
  QA   - Mulliken gross atomic charge
  VA   - Mayer's total valence
  BVA  - Mayer's bonded valence
  FA   - Mayer's free valence

  ATOM       NA         ZA         QA         VA         BVA        FA
  0 N      7.3799     7.0000    -0.3799     3.0631     3.0631     0.0000
  1 H      0.8997     1.0000     0.1003     1.1107     1.1107    -0.0000
  2 H      0.9000     1.0000     0.1000     1.1113     1.1113    -0.0000
  3 C      6.0004     6.0000    -0.0004     4.0028     4.0028     0.0000
  4 H      0.9811     1.0000     0.0189     1.1685     1.1685     0.0000
  5 H      0.9798     1.0000     0.0202     1.1672     1.1672     0.0000
  6 H      0.8590     1.0000     0.1410     0.9853     0.9853     0.0000

  Mayer bond orders larger than 0.1
B(  0-N ,  1-H ) :   1.0419 B(  0-N ,  2-H ) :   1.0420 B(  0-N ,  3-C ) :   0.9689 
B(  3-C ,  4-H ) :   1.0384 B(  3-C ,  5-H ) :   1.0372 B(  3-C ,  6-H ) :   0.9215 


-------
TIMINGS
-------

Total SCF time: 0 days 2 hours 6 min 8 sec 

Total time                  ....    7568.665 sec
Sum of individual times     ....    7566.564 sec  (100.0%)

Fock matrix formation       ....    7543.731 sec  ( 99.7%)
  XC integration            ....     207.714 sec  (  2.8% of F)
    Basis function eval.    ....       9.633 sec  (  4.6% of XC)
    Density eval.           ....      72.500 sec  ( 34.9% of XC)
    XC-Functional eval.     ....       0.596 sec  (  0.3% of XC)
    XC-Potential eval.      ....     121.302 sec  ( 58.4% of XC)
Diagonalization             ....       8.189 sec  (  0.1%)
Density matrix formation    ....       0.091 sec  (  0.0%)
Population analysis         ....       0.784 sec  (  0.0%)
Initial guess               ....       6.928 sec  (  0.1%)
Orbital Transformation      ....       0.000 sec  (  0.0%)
Orbital Orthonormalization  ....       0.000 sec  (  0.0%)
DIIS solution               ....       3.820 sec  (  0.1%)
Grid generation             ....       3.021 sec  (  0.0%)

-------------------------   --------------------
FINAL SINGLE POINT ENERGY       -95.776480716013
-------------------------   --------------------


                            ***************************************
                            *     ORCA property calculations      *
                            ***************************************

                                    ---------------------
                                    Active property flags
                                    ---------------------
   (+) Dipole Moment
   (+) Polarizability


------------------------------------------------------------------------------
                       ORCA ELECTRIC PROPERTIES CALCULATION
------------------------------------------------------------------------------

Dipole Moment Calculation                       ... on
Quadrupole Moment Calculation                   ... off
Polarizability Calculation                      ... Analytic (CP-SCF)
GBWName                                         ... ch3nh2_pbe.gbw
Electron density file                           ... ch3nh2_pbe.scfp.tmp
The origin for moment calculation is the CENTER OF MASS  = ( 0.061569, -0.046881 -0.000000)

-------------
DIPOLE MOMENT
-------------
                                X             Y             Z
Electronic contribution:      1.00756      -0.33514      -0.00000
Nuclear contribution   :     -1.10824       0.84385       0.00000
                        -----------------------------------------
Total Dipole Moment    :     -0.10068       0.50871      -0.00000
                        -----------------------------------------
Magnitude (a.u.)       :      0.51858
Magnitude (Debye)      :      1.31813



--------------------
Rotational spectrum 
--------------------
 
Rotational constants in cm-1:     3.472289     0.762135     0.733884 
Rotational constants in MHz : 104096.612766 22848.226266 22001.276031 

 Dipole components along the rotational axes: 
x,y,z [a.u.] :     0.120547    -0.000000     0.504375 
x,y,z [Debye]:     0.306405    -0.000000     1.282019 

 
Transforming and storing MO dipole integrals   ... done

                ... starting polarizability calculation

Opening the Dipole integral file               ... (ch3nh2_pbe.dmo.tmp) done
Reading Dipole-MO integrals                    ... done
Solving CP-SCF equations                       ... 

           ************************************************************
           *        Program running with 4 parallel MPI-processes     *
           *              working on a common directory               *
           ************************************************************

------------------------------------------------------------------------------
                           ORCA CP-SCF CALCULATION
------------------------------------------------------------------------------

Input orbitals are from        ... ch3nh2_pbe.gbw
Input Perturbation             ... ch3nh2_pbe.cpv.tmp
Wavefunction output            ... ch3nh2_pbe.cpu.tmp
Perturbation mode              ... Real perturbation (singlet)
Solver                         ... POPLE
Max. number of iterations      ... 200
Convergence tolerance          ... 1.000e-06
Integral handling              ... Direct
Number of perturbations        ... 3
Number of operators            ... 2
Orbital ranges used for CP-SCF:
 Operator 0:  Orbitals   0...  8  to   9...729
 Operator 1:  Orbitals   0...  8  to   9...729
DFT calculation                         ... on
Exchange functional (SCF)               ... PBE
Exchange functional (CP-SCF)            ... PBE
   PBE kappa parameter  XKappa (SCF)    ...  0.804000
   PBE kappa parameter  XKappa (CP-SCF) ...  0.804000
   PBE mue parameter   XMuePBE (SCF)    ...  0.219520
   PBE mue parameter   XMuePBE (CP-SCF) ...  0.219520
Correlation functional (SCF)            ... PBE
Correlation functional (CP-SCF)         ... PBE
   PBE beta parameter CBetaPBE (SCF)    ...  0.066725
   PBE beta parameter CBetaPBE (CP-SCF) ...  0.066725
 LDA part of GGA corr.  LDAOpt (SCF)    ... PW91-LDA
 LDA part of GGA corr.  LDAOpt (CP-SCF) ... PW91-LDA
Variables per vector in CP-SCF ... 12978
Number of vectors sought       ... 3
Recalculating density on grid  ... done
Calculating the xc-kernel      ... done
     CP-SCF ITERATION   0: 
     CP-SCF ITERATION   1:      0.436540735370
     CP-SCF ITERATION   2:      0.007951341975
     CP-SCF ITERATION   3:      0.000868928771
     CP-SCF ITERATION   4:      0.000046740414
     CP-SCF ITERATION   5:      0.000000645325
done
Reading CP-SCF coefficients                    ... done
Doing the polarizability tensor   ... done
Cleaning up                                    ... done

-------------------------
THE POLARIZABILITY TENSOR
-------------------------

The raw cartesian tensor (atomic units):
   30.10592     -0.74970     -0.00000  
   -0.74970     26.47109     -0.00000  
   -0.00000     -0.00000     25.09336  
diagonalized tensor: 
   25.09336     26.32253     30.25448  

    0.00000      0.19438     -0.98093  
    0.00000      0.98093      0.19438  
    1.00000     -0.00000      0.00000  

Isotropic polarizability :  27.22346


Timings for individual modules:

Sum of individual times         ...    12816.373 sec (= 213.606 min)
GTO integral calculation        ...        3.322 sec (=   0.055 min)   0.0 %
SCF iterations                  ...     7568.976 sec (= 126.150 min)  59.1 %
Solution of CP-SCF eqns.        ...     5244.075 sec (=  87.401 min)  40.9 %
                             ****ORCA TERMINATED NORMALLY****
TOTAL RUN TIME: 0 days 3 hours 33 minutes 38 seconds 192 msec
