
                                 *****************
                                 * O   R   C   A *
                                 *****************

           --- An Ab Initio, DFT and Semiempirical electronic structure package ---

                  #######################################################
                  #                        -***-                        #
                  #          Department of theory and spectroscopy      #
                  #               Directorship: Frank Neese             #
                  #        Max Planck Institute fuer Kohlenforschung    #
                  #                Kaiser Wilhelm Platz 1               #
                  #                 D-45470 Muelheim/Ruhr               #
                  #                      Germany                        #
                  #                                                     #
                  #                  All rights reserved                #
                  #                        -***-                        #
                  #######################################################


                         Program Version 4.1.2  - RELEASE  -


 With contributions from (in alphabetic order):
   Daniel Aravena         : Magnetic Properties
   Michael Atanasov       : Ab Initio Ligand Field Theory
   Alexander A. Auer      : GIAO ZORA
   Ute Becker             : Parallelization
   Giovanni Bistoni       : ED, Open-shell LED
   Martin Brehm           : Molecular dynamics
   Dmytro Bykov           : SCF Hessian
   Vijay G. Chilkuri      : MRCI spin determinant printing
   Dipayan Datta          : RHF DLPNO-CCSD density
   Achintya Kumar Dutta   : EOM-CC, STEOM-CC
   Dmitry Ganyushin       : Spin-Orbit,Spin-Spin,Magnetic field MRCI
   Miquel Garcia          : C-PCM Hessian
   Yang Guo               : DLPNO-NEVPT2, CIM, IAO-localization
   Andreas Hansen         : Spin unrestricted coupled pair/coupled cluster methods
   Benjamin Helmich-Paris : CASSCF linear response (MC-RPA)
   Lee Huntington         : MR-EOM, pCC
   Robert Izsak           : Overlap fitted RIJCOSX, COSX-SCS-MP3, EOM
   Christian Kollmar      : KDIIS, OOCD, Brueckner-CCSD(T), CCSD density
   Simone Kossmann        : Meta GGA functionals, TD-DFT gradient, OOMP2, MP2 Hessian
   Martin Krupicka        : AUTO-CI
   Lucas Lang             : DCDCAS
   Dagmar Lenk            : GEPOL surface, SMD
   Dimitrios Liakos       : Extrapolation schemes; parallel MDCI
   Dimitrios Manganas     : ROCIS; embedding schemes
   Dimitrios Pantazis     : SARC Basis sets
   Taras Petrenko         : DFT Hessian,TD-DFT gradient, ASA, ECA, R-Raman, ABS, FL, XAS/XES, NRVS
   Peter Pinski           : DLPNO-MP2, DLPNO-MP2 Gradient
   Christoph Reimann      : Effective Core Potentials
   Marius Retegan         : Local ZFS, SOC
   Christoph Riplinger    : Optimizer, TS searches, QM/MM, DLPNO-CCSD(T), (RO)-DLPNO pert. Triples
   Tobias Risthaus        : Range-separated hybrids, TD-DFT gradient, RPA, STAB
   Michael Roemelt        : Restricted open shell CIS
   Masaaki Saitow         : Open-shell DLPNO
   Barbara Sandhoefer     : DKH picture change effects
   Avijit Sen             : IP-ROCIS
   Kantharuban Sivalingam : CASSCF convergence, NEVPT2, FIC-MRCI
   Bernardo de Souza      : ESD, SOC TD-DFT
   Georgi Stoychev        : AutoAux, RI-MP2 NMR
   Willem Van den Heuvel  : Paramagnetic NMR
   Boris Wezisla          : Elementary symmetry handling
   Frank Wennmohs         : Technical directorship


 We gratefully acknowledge several colleagues who have allowed us to
 interface, adapt or use parts of their codes:
   Stefan Grimme, W. Hujo, H. Kruse,             : VdW corrections, initial TS optimization,
                  C. Bannwarth                     DFT functionals, gCP, sTDA/sTD-DF
   Ed Valeev                                     : LibInt (2-el integral package), F12 methods
   Garnet Chan, S. Sharma, J. Yang, R. Olivares  : DMRG
   Ulf Ekstrom                                   : XCFun DFT Library
   Mihaly Kallay                                 : mrcc  (arbitrary order and MRCC methods)
   Andreas Klamt, Michael Diedenhofen            : otool_cosmo (COSMO solvation model)
   Jiri Pittner, Ondrej Demel                    : Mk-CCSD
   Frank Weinhold                                : gennbo (NPA and NBO analysis)
   Christopher J. Cramer and Donald G. Truhlar   : smd solvation model
   Lars Goerigk                                  : TD-DFT with DH, B97 family of functionals
   V. Asgeirsson, H. Jonsson                     : NEB implementation
   FAccTs GmbH                                   : IRC, NEB, NEB-TS, Multilevel


 Your calculation uses the libint2 library for the computation of 2-el integrals
 For citations please refer to: http://libint.valeyev.net

 This ORCA versions uses:
   CBLAS   interface :  Fast vector & matrix operations
   LAPACKE interface :  Fast linear algebra routines
   SCALAPACK package :  Parallel linear algebra routines


----- Orbital basis set information -----
Your calculation utilizes the basis: aug-pc-4
   H, C-F              : F. Jensen, J. Chem. Phys. 115, 9113 (2001).
                         F. Jensen, J. Chem. Phys. 116, 7372 (2002).
                         F. Jensen, J. Chem. Phys. 117, 9234 (2002).
   Si-Cl               : F. Jensen, T. Helgaker, J. Chem. Phys. 121, 3463 (2004).
   He-B, Ne-Mg, Al, Ar : F. Jensen, J. Phys. Chem. A 111, 11198 (2007).
   K, Ca, Ga-Kr        : F. Jensen, J. Chem. Phys. 136, 094110 (2012).
   Sc-Zn               : F. Jensen, J. Chem. Phys. 138, 014107 (2013).

================================================================================
                                        WARNINGS
                       Please study these warnings very carefully!
================================================================================


INFO   : the flag for use of LIBINT has been found!

================================================================================
                                       INPUT FILE
================================================================================
NAME = ch3oh_pbe.inp
|  1> !uks pbe nori aug-pc-4 grid7 nofinalgrid verytightscf
|  2> 
|  3> %maxcore 1500
|  4> 
|  5> %pal nprocs 4 end
|  6> 
|  7> %scf
|  8> 	maxiter 200
|  9> end
| 10> %elprop
| 11> 	dipole true
| 12> 	 polar 1
| 13> 	 maxiter 200
| 14> end
| 15> 
| 16> * xyz 0 1
| 17> C -0.0503 0.6685 0.0000
| 18> O -0.0503 -0.7585 0.0000
| 19> H -1.0807 1.0417 0.0000
| 20> H 0.4650 1.0417 0.8924
| 21> H 0.4650 1.0417 -0.8924
| 22> H 0.8544 -1.0677 0.0000
| 23> *
| 24> 
| 25>                          ****END OF INPUT****
================================================================================

                       ****************************
                       * Single Point Calculation *
                       ****************************

---------------------------------
CARTESIAN COORDINATES (ANGSTROEM)
---------------------------------
  C     -0.050300    0.668500    0.000000
  O     -0.050300   -0.758500    0.000000
  H     -1.080700    1.041700    0.000000
  H      0.465000    1.041700    0.892400
  H      0.465000    1.041700   -0.892400
  H      0.854400   -1.067700    0.000000

----------------------------
CARTESIAN COORDINATES (A.U.)
----------------------------
  NO LB      ZA    FRAG     MASS         X           Y           Z
   0 C     6.0000    0    12.011   -0.095053    1.263282    0.000000
   1 O     8.0000    0    15.999   -0.095053   -1.433357    0.000000
   2 H     1.0000    0     1.008   -2.042227    1.968528    0.000000
   3 H     1.0000    0     1.008    0.878723    1.968528    1.686392
   4 H     1.0000    0     1.008    0.878723    1.968528   -1.686392
   5 H     1.0000    0     1.008    1.614582   -2.017661    0.000000

--------------------------------
INTERNAL COORDINATES (ANGSTROEM)
--------------------------------
 C      0   0   0     0.000000000000     0.00000000     0.00000000
 O      1   0   0     1.427000000000     0.00000000     0.00000000
 H      1   2   0     1.095902550412   109.90985201     0.00000000
 H      1   2   3     1.095988179681   109.90823068   120.00349674
 H      1   2   3     1.095988179681   109.90823068   239.99650326
 H      2   1   3     0.956078830432   108.86892767   180.00000085

---------------------------
INTERNAL COORDINATES (A.U.)
---------------------------
 C      0   0   0     0.000000000000     0.00000000     0.00000000
 O      1   0   0     2.696639193106     0.00000000     0.00000000
 H      1   2   0     2.070955689745   109.90985201     0.00000000
 H      1   2   3     2.071117505612   109.90823068   120.00349674
 H      1   2   3     2.071117505612   109.90823068   239.99650326
 H      2   1   3     1.806727151956   108.86892767   180.00000085

---------------------
BASIS SET INFORMATION
---------------------
There are 3 groups of distinct atoms

 Group   1 Type C   : 28s12p7d4f3g2h contracted to 9s8p7d4f3g2h pattern {11101111111/51111111/1111111/1111/111/11}
 Group   2 Type O   : 27s12p7d4f3g2h contracted to 9s8p7d4f3g2h pattern {1191111111/51111111/1111111/1111/111/11}
 Group   3 Type H   : 12s7p4d3f2g contracted to 8s7p4d3f2g pattern {51111111/1111111/1111/111/11}

Atom   0C    basis set group =>   1
Atom   1O    basis set group =>   2
Atom   2H    basis set group =>   3
Atom   3H    basis set group =>   3
Atom   4H    basis set group =>   3
Atom   5H    basis set group =>   3


           ************************************************************
           *        Program running with 4 parallel MPI-processes     *
           *              working on a common directory               *
           ************************************************************
------------------------------------------------------------------------------
                           ORCA GTO INTEGRAL CALCULATION
------------------------------------------------------------------------------

                         BASIS SET STATISTICS AND STARTUP INFO

 # of primitive gaussian shells          ...  223
 # of primitive gaussian functions       ...  719
 # of contracted shells                  ...  162
 # of contracted basis functions         ...  642
 Highest angular momentum                ...    5
 Maximum contraction depth               ...   11
 Integral package used                   ... LIBINT
 Integral threshhold            Thresh   ...  1.000e-12
 Primitive cut-off              TCut     ...  1.000e-14


------------------------------ INTEGRAL EVALUATION ----------------------------


 * One electron integrals 
 Pre-screening matrix                    ... done
 Shell pair data                         ... done (   0.004 sec)



           ************************************************************
           *        Program running with 4 parallel MPI-processes     *
           *              working on a common directory               *
           ************************************************************
-------------------------------------------------------------------------------
                                 ORCA SCF
-------------------------------------------------------------------------------

------------
SCF SETTINGS
------------
Hamiltonian:
 Density Functional     Method          .... DFT(GTOs)
 Exchange Functional    Exchange        .... PBE
   PBE kappa parameter   XKappa         ....  0.804000
   PBE mue parameter    XMuePBE         ....  0.219520
 Correlation Functional Correlation     .... PBE
   PBE beta parameter  CBetaPBE         ....  0.066725
 LDA part of GGA corr.  LDAOpt          .... PW91-LDA
 Gradients option       PostSCFGGA      .... off
   Density functional embedding theory  .... OFF
   NL short-range parameter             ....  6.400000


General Settings:
 Integral files         IntName         .... ch3oh_pbe
 Hartree-Fock type      HFTyp           .... UHF
 Total Charge           Charge          ....    0
 Multiplicity           Mult            ....    1
 Number of Electrons    NEL             ....   18
 Basis Dimension        Dim             ....  642
 Nuclear Repulsion      ENuc            ....     40.1934428462 Eh

Convergence Acceleration:
 DIIS                   CNVDIIS         .... on
   Start iteration      DIISMaxIt       ....    12
   Startup error        DIISStart       ....  0.200000
   # of expansion vecs  DIISMaxEq       ....     5
   Bias factor          DIISBfac        ....   1.050
   Max. coefficient     DIISMaxC        ....  10.000
 Newton-Raphson         CNVNR           .... off
 SOSCF                  CNVSOSCF        .... off
 Level Shifting         CNVShift        .... on
   Level shift para.    LevelShift      ....    0.2500
   Turn off err/grad.   ShiftErr        ....    0.0010
 Zerner damping         CNVZerner       .... off
 Static damping         CNVDamp         .... on
   Fraction old density DampFac         ....    0.7000
   Max. Damping (<1)    DampMax         ....    0.9800
   Min. Damping (>=0)   DampMin         ....    0.0000
   Turn off err/grad.   DampErr         ....    0.1000
 Fernandez-Rico         CNVRico         .... off

SCF Procedure:
 Maximum # iterations   MaxIter         ....   200
 SCF integral mode      SCFMode         .... Direct
   Integral package                     .... LIBINT
 Reset frequency        DirectResetFreq ....    20
 Integral Threshold     Thresh          ....  1.000e-12 Eh
 Primitive CutOff       TCut            ....  1.000e-14 Eh

Convergence Tolerance:
 Convergence Check Mode ConvCheckMode   .... Total+1el-Energy
 Convergence forced     ConvForced      .... 0
 Energy Change          TolE            ....  1.000e-09 Eh
 1-El. energy change                    ....  1.000e-06 Eh
 DIIS Error             TolErr          ....  1.000e-08


Diagonalization of the overlap matrix:
Smallest eigenvalue                        ... 7.178e-08
Time for diagonalization                   ...    0.376 sec
Threshold for overlap eigenvalues          ... 1.000e-08
Number of eigenvalues below threshold      ... 0
Time for construction of square roots      ...    0.090 sec
Total time needed                          ...    0.468 sec

-------------------
DFT GRID GENERATION
-------------------

General Integration Accuracy     IntAcc      ...  5.670
Radial Grid Type                 RadialGrid  ... Gauss-Chebyshev
Angular Grid (max. acc.)         AngularGrid ... Lebedev-770
Angular grid pruning method      GridPruning ... 3 (G Style)
Weight generation scheme         WeightScheme... Becke
Basis function cutoff            BFCut       ...    1.0000e-12
Integration weight cutoff        WCut        ...    1.0000e-14
Grids for H and He will be reduced by one unit

# of grid points (after initial pruning)     ... 121388 (   0.0 sec)
# of grid points (after weights+screening)   ... 116960 (   0.0 sec)
nearest neighbour list constructed           ...    0.0 sec
Grid point re-assignment to atoms done       ...    0.0 sec
Grid point division into batches done        ...    2.0 sec
Reduced shell lists constructed in    2.6 sec

Total number of grid points                  ...   116960
Total number of batches                      ...     1831
Average number of points per batch           ...       63
Average number of grid points per atom       ...    19493
Average number of shells per batch           ...   131.51 (81.18%)
Average number of basis functions per batch  ...   537.29 (83.69%)
Average number of large shells per batch     ...   118.76 (90.30%)
Average number of large basis fcns per batch ...   488.50 (90.92%)
Maximum spatial batch extension              ...  15.31, 13.51, 14.30 au
Average spatial batch extension              ...   0.30,  0.29,  0.32 au

Time for grid setup =    2.705 sec

------------------------------
INITIAL GUESS: MODEL POTENTIAL
------------------------------
Loading Hartree-Fock densities                     ... done
Calculating cut-offs                               ... done
Setting up the integral package                    ... done
Initializing the effective Hamiltonian             ... done
Starting the Coulomb interaction                   ... done (   0.1 sec)
Reading the grid                                   ... done
Mapping shells                                     ... done
Starting the XC term evaluation                    ... done (   4.6 sec)
  promolecular density results
     # of electrons  =     17.998041454
     EX              =    -14.424689633
     EC              =     -0.574304714
     EX+EC           =    -14.998994348
Transforming the Hamiltonian                       ... done (   0.1 sec)
Diagonalizing the Hamiltonian                      ... done (   0.1 sec)
Back transforming the eigenvectors                 ... done (   0.0 sec)
Now organizing SCF variables                       ... done
                      ------------------
                      INITIAL GUESS DONE (   7.8 sec)
                      ------------------
--------------
SCF ITERATIONS
--------------
ITER       Energy         Delta-E        Max-DP      RMS-DP      [F,P]     Damp
               ***  Starting incremental Fock matrix formation  ***
  0   -115.5524985096   0.000000000000 0.01665149  0.00016335  0.2668599 0.7000
  1   -115.5983660189  -0.045867509302 0.01014867  0.00009876  0.0831927 0.7000
                               ***Turning on DIIS***
  2   -115.6113823622  -0.013016343293 0.01353903  0.00013674  0.0204648 0.0000
  3   -115.6373712865  -0.025988924343 0.00585121  0.00006230  0.0433546 0.0000
  4   -115.6416771477  -0.004305861222 0.00280095  0.00002281  0.0191417 0.0000
  5   -115.6421611727  -0.000484024993 0.00173536  0.00001032  0.0028310 0.0000
  6   -115.6421849247  -0.000023752020 0.00126682  0.00000981  0.0004833 0.0000
  7   -115.6421862084  -0.000001283680 0.00007120  0.00000084  0.0001039 0.0000
  8   -115.6421862449  -0.000000036484 0.00005713  0.00000038  0.0000341 0.0000
  9   -115.6421862460  -0.000000001056 0.00006669  0.00000046  0.0000226 0.0000
 10   -115.6421862469  -0.000000000963 0.00014904  0.00000080  0.0000050 0.0000
 11   -115.6421862469  -0.000000000015 0.00010308  0.00000093  0.0000023 0.0000
                 **** Energy Check signals convergence ****

               *****************************************************
               *                     SUCCESS                       *
               *           SCF CONVERGED AFTER  12 CYCLES          *
               *****************************************************


----------------
TOTAL SCF ENERGY
----------------

Total Energy       :         -115.64218625 Eh           -3146.78387 eV

Components:
Nuclear Repulsion  :           40.19344285 Eh            1093.71918 eV
Electronic Energy  :         -155.83562909 Eh           -4240.50305 eV
One Electron Energy:         -236.73002686 Eh           -6441.75152 eV
Two Electron Energy:           80.89439777 Eh            2201.24847 eV

Virial components:
Potential Energy   :         -230.85109122 Eh           -6281.77755 eV
Kinetic Energy     :          115.20890497 Eh            3134.99368 eV
Virial Ratio       :            2.00376083


DFT components:
N(Alpha)           :        9.000000045065 electrons
N(Beta)            :        9.000000045065 electrons
N(Total)           :       18.000000090131 electrons
E(X)               :      -14.774787878084 Eh       
E(C)               :       -0.580116982242 Eh       
E(XC)              :      -15.354904860326 Eh       
DFET-embed. en.    :        0.000000000000 Eh       

---------------
SCF CONVERGENCE
---------------

  Last Energy change         ...   -8.4555e-12  Tolerance :   1.0000e-09
  Last MAX-Density change    ...    2.8789e-04  Tolerance :   1.0000e-08
  Last RMS-Density change    ...    2.7803e-06  Tolerance :   1.0000e-09
  Last DIIS Error            ...    3.0892e-07  Tolerance :   1.0000e-08

             **** THE GBW FILE WAS UPDATED (ch3oh_pbe.gbw) ****
             **** DENSITY FILE WAS UPDATED (ch3oh_pbe.scfp.tmp) ****
             **** ENERGY FILE WAS UPDATED (ch3oh_pbe.en.tmp) ****
----------------------
UHF SPIN CONTAMINATION
----------------------

Warning: in a DFT calculation there is little theoretical justification to 
         calculate <S**2> as in Hartree-Fock theory. We will do it anyways
         but you should keep in mind that the values have only limited relevance

Expectation value of <S**2>     :     0.000000
Ideal value S*(S+1) for S=0.0   :     0.000000
Deviation                       :     0.000000

----------------
ORBITAL ENERGIES
----------------
                 SPIN UP ORBITALS
  NO   OCC          E(Eh)            E(eV) 
   0   1.0000     -18.750394      -510.2242 
   1   1.0000      -9.924820      -270.0681 
   2   1.0000      -0.934160       -25.4198 
   3   1.0000      -0.619716       -16.8633 
   4   1.0000      -0.458808       -12.4848 
   5   1.0000      -0.391879       -10.6636 
   6   1.0000      -0.383908       -10.4467 
   7   1.0000      -0.292760        -7.9664 
   8   1.0000      -0.230145        -6.2626 
   9   0.0000      -0.024985        -0.6799 
  10   0.0000      -0.003839        -0.1045 
  11   0.0000       0.013134         0.3574 
  12   0.0000       0.013946         0.3795 
  13   0.0000       0.028670         0.7801 
  14   0.0000       0.034121         0.9285 
  15   0.0000       0.036778         1.0008 
  16   0.0000       0.037909         1.0316 
  17   0.0000       0.043287         1.1779 
  18   0.0000       0.047331         1.2879 
  19   0.0000       0.050489         1.3739 
  20   0.0000       0.062247         1.6938 
  21   0.0000       0.069245         1.8843 
  22   0.0000       0.074617         2.0304 
  23   0.0000       0.078185         2.1275 
  24   0.0000       0.082961         2.2575 
  25   0.0000       0.092176         2.5082 
  26   0.0000       0.104257         2.8370 
  27   0.0000       0.106668         2.9026 
  28   0.0000       0.109272         2.9734 
  29   0.0000       0.112487         3.0609 
  30   0.0000       0.119996         3.2653 
  31   0.0000       0.121296         3.3006 
  32   0.0000       0.122397         3.3306 
  33   0.0000       0.133248         3.6259 
  34   0.0000       0.134346         3.6557 
  35   0.0000       0.138137         3.7589 
  36   0.0000       0.149233         4.0608 
  37   0.0000       0.157233         4.2785 
  38   0.0000       0.162167         4.4128 
  39   0.0000       0.162490         4.4216 
  40   0.0000       0.163903         4.4600 
  41   0.0000       0.165819         4.5122 
  42   0.0000       0.172927         4.7056 
  43   0.0000       0.174277         4.7423 
  44   0.0000       0.181364         4.9352 
  45   0.0000       0.191523         5.2116 
  46   0.0000       0.197979         5.3873 
  47   0.0000       0.204674         5.5695 
  48   0.0000       0.207194         5.6380 
  49   0.0000       0.211286         5.7494 
  50   0.0000       0.219624         5.9763 
  51   0.0000       0.229406         6.2425 
  52   0.0000       0.231362         6.2957 
  53   0.0000       0.235152         6.3988 
  54   0.0000       0.241920         6.5830 
  55   0.0000       0.243729         6.6322 
  56   0.0000       0.250883         6.8269 
  57   0.0000       0.262367         7.1394 
  58   0.0000       0.268934         7.3181 
  59   0.0000       0.270222         7.3531 
  60   0.0000       0.274297         7.4640 
  61   0.0000       0.274363         7.4658 
  62   0.0000       0.278913         7.5896 
  63   0.0000       0.282922         7.6987 
  64   0.0000       0.286289         7.7903 
  65   0.0000       0.289128         7.8676 
  66   0.0000       0.289916         7.8890 
  67   0.0000       0.293080         7.9751 
  68   0.0000       0.306730         8.3465 
  69   0.0000       0.308484         8.3943 
  70   0.0000       0.315372         8.5817 
  71   0.0000       0.316686         8.6175 
  72   0.0000       0.322365         8.7720 
  73   0.0000       0.322561         8.7773 
  74   0.0000       0.327709         8.9174 
  75   0.0000       0.333553         9.0764 
  76   0.0000       0.334052         9.0900 
  77   0.0000       0.339631         9.2418 
  78   0.0000       0.345698         9.4069 
  79   0.0000       0.358771         9.7627 
  80   0.0000       0.363631         9.8949 
  81   0.0000       0.365010         9.9324 
  82   0.0000       0.379937        10.3386 
  83   0.0000       0.380168        10.3449 
  84   0.0000       0.385813        10.4985 
  85   0.0000       0.403596        10.9824 
  86   0.0000       0.403881        10.9902 
  87   0.0000       0.414417        11.2769 
  88   0.0000       0.425894        11.5892 
  89   0.0000       0.432536        11.7699 
  90   0.0000       0.433617        11.7993 
  91   0.0000       0.434961        11.8359 
  92   0.0000       0.438984        11.9454 
  93   0.0000       0.440563        11.9883 
  94   0.0000       0.452628        12.3166 
  95   0.0000       0.454259        12.3610 
  96   0.0000       0.456396        12.4192 
  97   0.0000       0.460720        12.5368 
  98   0.0000       0.460955        12.5432 
  99   0.0000       0.462693        12.5905 
 100   0.0000       0.472383        12.8542 
 101   0.0000       0.474936        12.9237 
 102   0.0000       0.482960        13.1420 
 103   0.0000       0.484863        13.1938 
 104   0.0000       0.485217        13.2034 
 105   0.0000       0.491544        13.3756 
 106   0.0000       0.492825        13.4105 
 107   0.0000       0.498560        13.5665 
 108   0.0000       0.508997        13.8505 
 109   0.0000       0.514631        14.0038 
 110   0.0000       0.520287        14.1577 
 111   0.0000       0.522587        14.2203 
 112   0.0000       0.533172        14.5084 
 113   0.0000       0.534232        14.5372 
 114   0.0000       0.541413        14.7326 
 115   0.0000       0.543883        14.7998 
 116   0.0000       0.545184        14.8352 
 117   0.0000       0.545623        14.8472 
 118   0.0000       0.558203        15.1895 
 119   0.0000       0.562298        15.3009 
 120   0.0000       0.564028        15.3480 
 121   0.0000       0.573327        15.6010 
 122   0.0000       0.577781        15.7222 
 123   0.0000       0.583330        15.8732 
 124   0.0000       0.588612        16.0169 
 125   0.0000       0.589869        16.0511 
 126   0.0000       0.597365        16.2551 
 127   0.0000       0.600656        16.3447 
 128   0.0000       0.609337        16.5809 
 129   0.0000       0.615888        16.7592 
 130   0.0000       0.620082        16.8733 
 131   0.0000       0.628320        17.0975 
 132   0.0000       0.628856        17.1120 
 133   0.0000       0.634657        17.2699 
 134   0.0000       0.641651        17.4602 
 135   0.0000       0.642064        17.4715 
 136   0.0000       0.649385        17.6707 
 137   0.0000       0.670533        18.2461 
 138   0.0000       0.674923        18.3656 
 139   0.0000       0.685530        18.6542 
 140   0.0000       0.694352        18.8943 
 141   0.0000       0.695625        18.9289 
 142   0.0000       0.697734        18.9863 
 143   0.0000       0.708043        19.2668 
 144   0.0000       0.720562        19.6075 
 145   0.0000       0.731267        19.8988 
 146   0.0000       0.734565        19.9885 
 147   0.0000       0.739447        20.1214 
 148   0.0000       0.742130        20.1944 
 149   0.0000       0.749328        20.3903 
 150   0.0000       0.768277        20.9059 
 151   0.0000       0.771555        20.9951 
 152   0.0000       0.793812        21.6007 
 153   0.0000       0.795526        21.6474 
 154   0.0000       0.796908        21.6850 
 155   0.0000       0.798789        21.7362 
 156   0.0000       0.807298        21.9677 
 157   0.0000       0.808302        21.9950 
 158   0.0000       0.817918        22.2567 
 159   0.0000       0.822118        22.3710 
 160   0.0000       0.837651        22.7936 
 161   0.0000       0.840379        22.8679 
 162   0.0000       0.841827        22.9073 
 163   0.0000       0.847229        23.0543 
 164   0.0000       0.850491        23.1430 
 165   0.0000       0.855191        23.2709 
 166   0.0000       0.856470        23.3057 
 167   0.0000       0.862940        23.4818 
 168   0.0000       0.864109        23.5136 
 169   0.0000       0.870943        23.6996 
 170   0.0000       0.873430        23.7672 
 171   0.0000       0.873950        23.7814 
 172   0.0000       0.877847        23.8874 
 173   0.0000       0.883352        24.0372 
 174   0.0000       0.884594        24.0710 
 175   0.0000       0.886512        24.1232 
 176   0.0000       0.894882        24.3510 
 177   0.0000       0.901675        24.5358 
 178   0.0000       0.907695        24.6996 
 179   0.0000       0.908073        24.7099 
 180   0.0000       0.912032        24.8177 
 181   0.0000       0.913348        24.8534 
 182   0.0000       0.924684        25.1619 
 183   0.0000       0.927582        25.2408 
 184   0.0000       0.929255        25.2863 
 185   0.0000       0.930737        25.3266 
 186   0.0000       0.943912        25.6851 
 187   0.0000       0.946997        25.7691 
 188   0.0000       0.952502        25.9189 
 189   0.0000       0.956039        26.0151 
 190   0.0000       0.963622        26.2215 
 191   0.0000       0.971348        26.4317 
 192   0.0000       0.976314        26.5668 
 193   0.0000       0.986154        26.8346 
 194   0.0000       0.988478        26.8979 
 195   0.0000       0.993315        27.0295 
 196   0.0000       0.999340        27.1934 
 197   0.0000       1.000080        27.2136 
 198   0.0000       1.010585        27.4994 
 199   0.0000       1.016223        27.6528 
 200   0.0000       1.016979        27.6734 
 201   0.0000       1.033236        28.1158 
 202   0.0000       1.035014        28.1642 
 203   0.0000       1.043433        28.3933 
 204   0.0000       1.043985        28.4083 
 205   0.0000       1.053568        28.6691 
 206   0.0000       1.065409        28.9913 
 207   0.0000       1.077774        29.3277 
 208   0.0000       1.086572        29.5671 
 209   0.0000       1.092657        29.7327 
 210   0.0000       1.101597        29.9760 
 211   0.0000       1.109250        30.1842 
 212   0.0000       1.142708        31.0947 
 213   0.0000       1.153365        31.3847 
 214   0.0000       1.156322        31.4651 
 215   0.0000       1.184767        32.2392 
 216   0.0000       1.190526        32.3959 
 217   0.0000       1.194817        32.5126 
 218   0.0000       1.201863        32.7044 
 219   0.0000       1.213134        33.0110 
 220   0.0000       1.228272        33.4230 
 221   0.0000       1.254969        34.1495 
 222   0.0000       1.258810        34.2540 
 223   0.0000       1.268769        34.5249 
 224   0.0000       1.273628        34.6572 
 225   0.0000       1.274936        34.6928 
 226   0.0000       1.296680        35.2845 
 227   0.0000       1.304687        35.5023 
 228   0.0000       1.329083        36.1662 
 229   0.0000       1.346933        36.6519 
 230   0.0000       1.349621        36.7250 
 231   0.0000       1.357901        36.9504 
 232   0.0000       1.387078        37.7443 
 233   0.0000       1.399829        38.0913 
 234   0.0000       1.409277        38.3484 
 235   0.0000       1.441841        39.2345 
 236   0.0000       1.522098        41.4184 
 237   0.0000       1.526059        41.5262 
 238   0.0000       1.558307        42.4037 
 239   0.0000       1.572265        42.7835 
 240   0.0000       1.580143        42.9979 
 241   0.0000       1.597798        43.4783 
 242   0.0000       1.606298        43.7096 
 243   0.0000       1.609081        43.7853 
 244   0.0000       1.619437        44.0671 
 245   0.0000       1.632212        44.4147 
 246   0.0000       1.641341        44.6632 
 247   0.0000       1.648370        44.8544 
 248   0.0000       1.662389        45.2359 
 249   0.0000       1.688379        45.9431 
 250   0.0000       1.695196        46.1286 
 251   0.0000       1.702994        46.3408 
 252   0.0000       1.709586        46.5202 
 253   0.0000       1.751610        47.6637 
 254   0.0000       1.759092        47.8673 
 255   0.0000       1.781323        48.4723 
 256   0.0000       1.788288        48.6618 
 257   0.0000       1.828843        49.7654 
 258   0.0000       1.839576        50.0574 
 259   0.0000       1.850260        50.3481 
 260   0.0000       1.878272        51.1104 
 261   0.0000       1.885665        51.3116 
 262   0.0000       1.906966        51.8912 
 263   0.0000       1.907308        51.9005 
 264   0.0000       1.954707        53.1903 
 265   0.0000       1.958265        53.2871 
 266   0.0000       1.979918        53.8763 
 267   0.0000       2.003414        54.5157 
 268   0.0000       2.026728        55.1501 
 269   0.0000       2.044556        55.6352 
 270   0.0000       2.055046        55.9206 
 271   0.0000       2.113590        57.5137 
 272   0.0000       2.160936        58.8021 
 273   0.0000       2.178074        59.2684 
 274   0.0000       2.217078        60.3298 
 275   0.0000       2.221543        60.4513 
 276   0.0000       2.245477        61.1025 
 277   0.0000       2.300656        62.6040 
 278   0.0000       2.304795        62.7166 
 279   0.0000       2.326123        63.2970 
 280   0.0000       2.335162        63.5430 
 281   0.0000       2.366063        64.3839 
 282   0.0000       2.399933        65.3055 
 283   0.0000       2.414242        65.6949 
 284   0.0000       2.440648        66.4134 
 285   0.0000       2.458100        66.8883 
 286   0.0000       2.501728        68.0755 
 287   0.0000       2.516754        68.4844 
 288   0.0000       2.568406        69.8899 
 289   0.0000       2.628684        71.5301 
 290   0.0000       2.657226        72.3068 
 291   0.0000       2.673694        72.7549 
 292   0.0000       2.716414        73.9174 
 293   0.0000       2.727526        74.2198 
 294   0.0000       2.771908        75.4275 
 295   0.0000       2.772423        75.4415 
 296   0.0000       2.823850        76.8409 
 297   0.0000       2.868613        78.0589 
 298   0.0000       2.901480        78.9533 
 299   0.0000       2.967574        80.7518 
 300   0.0000       3.012399        81.9715 
 301   0.0000       3.105506        84.5051 
 302   0.0000       3.142433        85.5099 
 303   0.0000       3.178837        86.5006 
 304   0.0000       3.204695        87.2042 
 305   0.0000       3.239927        88.1629 
 306   0.0000       3.282440        89.3197 
 307   0.0000       3.317868        90.2838 
 308   0.0000       3.335485        90.7632 
 309   0.0000       3.343936        90.9931 
 310   0.0000       3.434621        93.4608 
 311   0.0000       3.436178        93.5032 
 312   0.0000       3.484297        94.8125 
 313   0.0000       3.525593        95.9363 
 314   0.0000       3.548826        96.5685 
 315   0.0000       3.582480        97.4842 
 316   0.0000       3.607631        98.1686 
 317   0.0000       3.650467        99.3343 
 318   0.0000       3.660458        99.6061 
 319   0.0000       3.676182       100.0340 
 320   0.0000       3.720508       101.2402 
 321   0.0000       3.758668       102.2786 
 322   0.0000       3.771874       102.6379 
 323   0.0000       3.780407       102.8701 
 324   0.0000       3.811335       103.7117 
 325   0.0000       3.835983       104.3824 
 326   0.0000       3.857066       104.9561 
 327   0.0000       3.884062       105.6907 
 328   0.0000       3.893315       105.9425 
 329   0.0000       3.921655       106.7137 
 330   0.0000       3.933396       107.0332 
 331   0.0000       3.979241       108.2807 
 332   0.0000       4.018858       109.3587 
 333   0.0000       4.063827       110.5824 
 334   0.0000       4.065184       110.6193 
 335   0.0000       4.118290       112.0644 
 336   0.0000       4.147155       112.8498 
 337   0.0000       4.181306       113.7791 
 338   0.0000       4.187622       113.9510 
 339   0.0000       4.211801       114.6089 
 340   0.0000       4.243599       115.4742 
 341   0.0000       4.276973       116.3823 
 342   0.0000       4.335104       117.9642 
 343   0.0000       4.341661       118.1426 
 344   0.0000       4.377982       119.1309 
 345   0.0000       4.380859       119.2092 
 346   0.0000       4.409941       120.0006 
 347   0.0000       4.458989       121.3353 
 348   0.0000       4.464448       121.4838 
 349   0.0000       4.487737       122.1175 
 350   0.0000       4.593194       124.9872 
 351   0.0000       4.615766       125.6014 
 352   0.0000       4.697719       127.8314 
 353   0.0000       4.699127       127.8697 
 354   0.0000       4.708338       128.1204 
 355   0.0000       4.738265       128.9348 
 356   0.0000       4.765223       129.6683 
 357   0.0000       4.810169       130.8913 
 358   0.0000       4.825965       131.3212 
 359   0.0000       4.854295       132.0921 
 360   0.0000       4.876313       132.6912 
 361   0.0000       4.914041       133.7178 
 362   0.0000       4.937424       134.3541 
 363   0.0000       4.990454       135.7971 
 364   0.0000       5.085562       138.3852 
 365   0.0000       5.111170       139.0820 
 366   0.0000       5.144853       139.9986 
 367   0.0000       5.225826       142.2019 
 368   0.0000       5.230505       142.3293 
 369   0.0000       5.259444       143.1168 
 370   0.0000       5.315212       144.6343 
 371   0.0000       5.319174       144.7421 
 372   0.0000       5.380330       146.4062 
 373   0.0000       5.381881       146.4484 
 374   0.0000       5.460330       148.5831 
 375   0.0000       5.481701       149.1647 
 376   0.0000       5.496891       149.5780 
 377   0.0000       5.530102       150.4817 
 378   0.0000       5.540977       150.7777 
 379   0.0000       5.661392       154.0543 
 380   0.0000       5.679838       154.5562 
 381   0.0000       5.740706       156.2126 
 382   0.0000       5.751752       156.5131 
 383   0.0000       5.783621       157.3803 
 384   0.0000       5.836077       158.8077 
 385   0.0000       5.895564       160.4265 
 386   0.0000       5.977778       162.6636 
 387   0.0000       5.986215       162.8932 
 388   0.0000       6.038775       164.3234 
 389   0.0000       6.136177       166.9739 
 390   0.0000       6.245101       169.9378 
 391   0.0000       6.272250       170.6766 
 392   0.0000       6.298396       171.3881 
 393   0.0000       6.327378       172.1767 
 394   0.0000       6.332850       172.3256 
 395   0.0000       6.443578       175.3387 
 396   0.0000       6.450617       175.5302 
 397   0.0000       6.612098       179.9243 
 398   0.0000       6.713551       182.6850 
 399   0.0000       6.768125       184.1700 
 400   0.0000       6.787071       184.6856 
 401   0.0000       6.845273       186.2693 
 402   0.0000       6.874849       187.0742 
 403   0.0000       6.900209       187.7642 
 404   0.0000       6.946401       189.0212 
 405   0.0000       6.957728       189.3294 
 406   0.0000       7.020945       191.0496 
 407   0.0000       7.041738       191.6154 
 408   0.0000       7.090095       192.9313 
 409   0.0000       7.470802       203.2908 
 410   0.0000       7.537338       205.1014 
 411   0.0000       7.617800       207.2909 
 412   0.0000       7.674108       208.8231 
 413   0.0000       7.686804       209.1686 
 414   0.0000       7.827464       212.9961 
 415   0.0000       7.851567       213.6520 
 416   0.0000       7.910751       215.2625 
 417   0.0000       7.987379       217.3476 
 418   0.0000       8.032032       218.5627 
 419   0.0000       8.093874       220.2455 
 420   0.0000       8.505744       231.4531 
 421   0.0000       8.517647       231.7770 
 422   0.0000       8.551826       232.7070 
 423   0.0000       8.764805       238.5025 
 424   0.0000       8.817953       239.9487 
 425   0.0000       8.994613       244.7559 
 426   0.0000       9.001463       244.9423 
 427   0.0000       9.020834       245.4694 
 428   0.0000       9.052651       246.3351 
 429   0.0000       9.086159       247.2470 
 430   0.0000       9.120213       248.1736 
 431   0.0000       9.131290       248.4750 
 432   0.0000       9.177842       249.7418 
 433   0.0000       9.182916       249.8799 
 434   0.0000       9.238600       251.3951 
 435   0.0000       9.276314       252.4213 
 436   0.0000       9.284779       252.6517 
 437   0.0000       9.296625       252.9740 
 438   0.0000       9.322292       253.6725 
 439   0.0000       9.426315       256.5031 
 440   0.0000       9.594175       261.0708 
 441   0.0000       9.597135       261.1513 
 442   0.0000       9.609863       261.4977 
 443   0.0000       9.697543       263.8836 
 444   0.0000       9.747493       265.2428 
 445   0.0000       9.777409       266.0568 
 446   0.0000       9.927397       270.1382 
 447   0.0000       9.939644       270.4715 
 448   0.0000       9.950492       270.7666 
 449   0.0000       9.996284       272.0127 
 450   0.0000      10.129959       275.6502 
 451   0.0000      10.547387       287.0090 
 452   0.0000      10.604517       288.5636 
 453   0.0000      10.748695       292.4869 
 454   0.0000      10.831570       294.7420 
 455   0.0000      10.836149       294.8666 
 456   0.0000      10.888349       296.2871 
 457   0.0000      10.966944       298.4257 
 458   0.0000      11.047473       300.6170 
 459   0.0000      11.060106       300.9608 
 460   0.0000      11.111278       302.3532 
 461   0.0000      11.157566       303.6128 
 462   0.0000      11.191422       304.5341 
 463   0.0000      11.244658       305.9827 
 464   0.0000      11.270751       306.6927 
 465   0.0000      11.391026       309.9656 
 466   0.0000      11.474404       312.2344 
 467   0.0000      11.510599       313.2193 
 468   0.0000      11.549558       314.2795 
 469   0.0000      11.606956       315.8413 
 470   0.0000      11.615920       316.0853 
 471   0.0000      11.750538       319.7484 
 472   0.0000      11.916969       324.2772 
 473   0.0000      11.944305       325.0211 
 474   0.0000      11.947127       325.0978 
 475   0.0000      11.959833       325.4436 
 476   0.0000      11.990735       326.2845 
 477   0.0000      12.082538       328.7826 
 478   0.0000      12.119313       329.7833 
 479   0.0000      12.138211       330.2975 
 480   0.0000      12.178092       331.3827 
 481   0.0000      12.190674       331.7251 
 482   0.0000      12.246721       333.2502 
 483   0.0000      12.255478       333.4885 
 484   0.0000      12.318163       335.1943 
 485   0.0000      12.392206       337.2091 
 486   0.0000      12.399270       337.4013 
 487   0.0000      12.458924       339.0245 
 488   0.0000      12.515161       340.5548 
 489   0.0000      12.565997       341.9382 
 490   0.0000      12.584650       342.4457 
 491   0.0000      12.634693       343.8075 
 492   0.0000      12.670209       344.7739 
 493   0.0000      12.704922       345.7185 
 494   0.0000      12.705157       345.7249 
 495   0.0000      12.732797       346.4770 
 496   0.0000      12.777866       347.7034 
 497   0.0000      12.809986       348.5774 
 498   0.0000      12.864143       350.0511 
 499   0.0000      12.900679       351.0453 
 500   0.0000      12.943538       352.2116 
 501   0.0000      12.964202       352.7739 
 502   0.0000      13.000312       353.7565 
 503   0.0000      13.025657       354.4461 
 504   0.0000      13.058425       355.3378 
 505   0.0000      13.058617       355.3430 
 506   0.0000      13.146635       357.7381 
 507   0.0000      13.189923       358.9160 
 508   0.0000      13.284098       361.4787 
 509   0.0000      13.294117       361.7513 
 510   0.0000      13.435004       365.5851 
 511   0.0000      13.486423       366.9842 
 512   0.0000      13.490321       367.0903 
 513   0.0000      13.539164       368.4194 
 514   0.0000      13.564310       369.1036 
 515   0.0000      13.650539       371.4501 
 516   0.0000      13.762043       374.4842 
 517   0.0000      13.890827       377.9886 
 518   0.0000      13.898836       378.2065 
 519   0.0000      14.088730       383.3738 
 520   0.0000      14.093317       383.4987 
 521   0.0000      14.145126       384.9084 
 522   0.0000      14.173577       385.6826 
 523   0.0000      14.511146       394.8684 
 524   0.0000      14.533158       395.4673 
 525   0.0000      14.591949       397.0671 
 526   0.0000      14.608264       397.5111 
 527   0.0000      14.658248       398.8712 
 528   0.0000      14.832493       403.6126 
 529   0.0000      14.846173       403.9849 
 530   0.0000      14.908793       405.6889 
 531   0.0000      15.321067       416.9074 
 532   0.0000      15.481146       421.2634 
 533   0.0000      15.512437       422.1149 
 534   0.0000      15.683060       426.7578 
 535   0.0000      15.890538       432.4035 
 536   0.0000      15.936457       433.6530 
 537   0.0000      15.945252       433.8924 
 538   0.0000      16.154076       439.5748 
 539   0.0000      16.217546       441.3019 
 540   0.0000      16.262829       442.5341 
 541   0.0000      16.739079       455.4935 
 542   0.0000      16.757911       456.0059 
 543   0.0000      16.765887       456.2230 
 544   0.0000      16.781593       456.6504 
 545   0.0000      16.792107       456.9365 
 546   0.0000      16.801468       457.1912 
 547   0.0000      16.806608       457.3311 
 548   0.0000      16.823133       457.7807 
 549   0.0000      16.842554       458.3092 
 550   0.0000      17.190613       467.7804 
 551   0.0000      17.208440       468.2655 
 552   0.0000      17.240414       469.1355 
 553   0.0000      17.263808       469.7721 
 554   0.0000      17.378412       472.8906 
 555   0.0000      17.387644       473.1418 
 556   0.0000      17.392787       473.2818 
 557   0.0000      17.426745       474.2059 
 558   0.0000      17.444991       474.7023 
 559   0.0000      17.548390       477.5160 
 560   0.0000      17.601885       478.9716 
 561   0.0000      17.829637       485.1691 
 562   0.0000      17.935019       488.0367 
 563   0.0000      17.940813       488.1943 
 564   0.0000      18.112157       492.8568 
 565   0.0000      18.328594       498.7464 
 566   0.0000      18.411668       501.0070 
 567   0.0000      18.545150       504.6392 
 568   0.0000      18.567016       505.2342 
 569   0.0000      18.604650       506.2583 
 570   0.0000      18.698169       508.8030 
 571   0.0000      18.784631       511.1558 
 572   0.0000      18.854379       513.0537 
 573   0.0000      18.925697       514.9944 
 574   0.0000      19.063389       518.7412 
 575   0.0000      19.453815       529.3652 
 576   0.0000      19.750074       537.4268 
 577   0.0000      19.841892       539.9253 
 578   0.0000      19.898753       541.4726 
 579   0.0000      19.909417       541.7628 
 580   0.0000      19.949233       542.8462 
 581   0.0000      20.108464       547.1791 
 582   0.0000      20.119618       547.4826 
 583   0.0000      20.153246       548.3977 
 584   0.0000      20.748535       564.5964 
 585   0.0000      20.750367       564.6462 
 586   0.0000      20.984327       571.0126 
 587   0.0000      21.093111       573.9727 
 588   0.0000      21.109713       574.4245 
 589   0.0000      21.328038       580.3654 
 590   0.0000      21.627487       588.5139 
 591   0.0000      21.694726       590.3435 
 592   0.0000      21.810589       593.4963 
 593   0.0000      23.423713       637.3916 
 594   0.0000      23.519007       639.9847 
 595   0.0000      23.632667       643.0776 
 596   0.0000      23.693219       644.7253 
 597   0.0000      23.708111       645.1305 
 598   0.0000      23.811369       647.9403 
 599   0.0000      23.965777       652.1419 
 600   0.0000      24.024193       653.7315 
 601   0.0000      24.060976       654.7324 
 602   0.0000      24.096899       655.7100 
 603   0.0000      24.108103       656.0148 
 604   0.0000      24.998383       680.2406 
 605   0.0000      25.607503       696.8156 
 606   0.0000      25.649649       697.9624 
 607   0.0000      25.653806       698.0756 
 608   0.0000      27.109718       737.6929 
 609   0.0000      27.297317       742.7977 
 610   0.0000      31.063887       845.2913 
 611   0.0000      32.337800       879.9563 
 612   0.0000      32.623282       887.7246 
 613   0.0000      32.655273       888.5952 
 614   0.0000      33.193178       903.2323 
 615   0.0000      33.964762       924.2282 
 616   0.0000      34.001678       925.2327 
 617   0.0000      34.237817       931.6584 
 618   0.0000      34.751900       945.6473 
 619   0.0000      41.235780      1122.0826 
 620   0.0000      41.255391      1122.6163 
 621   0.0000      41.647684      1133.2911 
 622   0.0000      41.744944      1135.9377 
 623   0.0000      66.907526      1820.6463 
 624   0.0000      67.046486      1824.4276 
 625   0.0000      67.056316      1824.6951 
 626   0.0000      67.683029      1841.7489 
 627   0.0000      68.962623      1876.5684 
 628   0.0000      78.511512      2136.4069 
 629   0.0000      91.012648      2476.5801 
 630   0.0000      91.076477      2478.3169 
 631   0.0000      91.151956      2480.3708 
 632   0.0000      91.194692      2481.5337 
 633   0.0000      91.306855      2484.5858 
 634   0.0000      91.370674      2486.3224 
 635   0.0000      91.455770      2488.6380 
 636   0.0000      91.468373      2488.9810 
 637   0.0000      92.433361      2515.2396 
 638   0.0000      92.488686      2516.7451 
 639   0.0000      92.496433      2516.9559 
 640   0.0000      93.620127      2547.5332 
 641   0.0000     144.419454      3929.8531 

                 SPIN DOWN ORBITALS
  NO   OCC          E(Eh)            E(eV) 
   0   1.0000     -18.750394      -510.2242 
   1   1.0000      -9.924820      -270.0681 
   2   1.0000      -0.934160       -25.4198 
   3   1.0000      -0.619716       -16.8633 
   4   1.0000      -0.458808       -12.4848 
   5   1.0000      -0.391879       -10.6636 
   6   1.0000      -0.383908       -10.4467 
   7   1.0000      -0.292760        -7.9664 
   8   1.0000      -0.230145        -6.2626 
   9   0.0000      -0.024985        -0.6799 
  10   0.0000      -0.003839        -0.1045 
  11   0.0000       0.013134         0.3574 
  12   0.0000       0.013946         0.3795 
  13   0.0000       0.028670         0.7801 
  14   0.0000       0.034121         0.9285 
  15   0.0000       0.036778         1.0008 
  16   0.0000       0.037909         1.0316 
  17   0.0000       0.043287         1.1779 
  18   0.0000       0.047331         1.2879 
  19   0.0000       0.050489         1.3739 
  20   0.0000       0.062247         1.6938 
  21   0.0000       0.069245         1.8843 
  22   0.0000       0.074617         2.0304 
  23   0.0000       0.078185         2.1275 
  24   0.0000       0.082961         2.2575 
  25   0.0000       0.092176         2.5082 
  26   0.0000       0.104257         2.8370 
  27   0.0000       0.106668         2.9026 
  28   0.0000       0.109272         2.9734 
  29   0.0000       0.112487         3.0609 
  30   0.0000       0.119996         3.2653 
  31   0.0000       0.121296         3.3006 
  32   0.0000       0.122397         3.3306 
  33   0.0000       0.133248         3.6259 
  34   0.0000       0.134346         3.6557 
  35   0.0000       0.138137         3.7589 
  36   0.0000       0.149233         4.0608 
  37   0.0000       0.157233         4.2785 
  38   0.0000       0.162167         4.4128 
  39   0.0000       0.162490         4.4216 
  40   0.0000       0.163903         4.4600 
  41   0.0000       0.165819         4.5122 
  42   0.0000       0.172927         4.7056 
  43   0.0000       0.174277         4.7423 
  44   0.0000       0.181364         4.9352 
  45   0.0000       0.191523         5.2116 
  46   0.0000       0.197979         5.3873 
  47   0.0000       0.204674         5.5695 
  48   0.0000       0.207194         5.6380 
  49   0.0000       0.211286         5.7494 
  50   0.0000       0.219624         5.9763 
  51   0.0000       0.229406         6.2425 
  52   0.0000       0.231362         6.2957 
  53   0.0000       0.235152         6.3988 
  54   0.0000       0.241920         6.5830 
  55   0.0000       0.243729         6.6322 
  56   0.0000       0.250883         6.8269 
  57   0.0000       0.262367         7.1394 
  58   0.0000       0.268934         7.3181 
  59   0.0000       0.270222         7.3531 
  60   0.0000       0.274297         7.4640 
  61   0.0000       0.274363         7.4658 
  62   0.0000       0.278913         7.5896 
  63   0.0000       0.282922         7.6987 
  64   0.0000       0.286289         7.7903 
  65   0.0000       0.289128         7.8676 
  66   0.0000       0.289916         7.8890 
  67   0.0000       0.293080         7.9751 
  68   0.0000       0.306730         8.3465 
  69   0.0000       0.308484         8.3943 
  70   0.0000       0.315372         8.5817 
  71   0.0000       0.316686         8.6175 
  72   0.0000       0.322365         8.7720 
  73   0.0000       0.322561         8.7773 
  74   0.0000       0.327709         8.9174 
  75   0.0000       0.333553         9.0764 
  76   0.0000       0.334052         9.0900 
  77   0.0000       0.339631         9.2418 
  78   0.0000       0.345698         9.4069 
  79   0.0000       0.358771         9.7627 
  80   0.0000       0.363631         9.8949 
  81   0.0000       0.365010         9.9324 
  82   0.0000       0.379937        10.3386 
  83   0.0000       0.380168        10.3449 
  84   0.0000       0.385813        10.4985 
  85   0.0000       0.403596        10.9824 
  86   0.0000       0.403881        10.9902 
  87   0.0000       0.414417        11.2769 
  88   0.0000       0.425894        11.5892 
  89   0.0000       0.432536        11.7699 
  90   0.0000       0.433617        11.7993 
  91   0.0000       0.434961        11.8359 
  92   0.0000       0.438984        11.9454 
  93   0.0000       0.440563        11.9883 
  94   0.0000       0.452628        12.3166 
  95   0.0000       0.454259        12.3610 
  96   0.0000       0.456396        12.4192 
  97   0.0000       0.460720        12.5368 
  98   0.0000       0.460955        12.5432 
  99   0.0000       0.462693        12.5905 
 100   0.0000       0.472383        12.8542 
 101   0.0000       0.474936        12.9237 
 102   0.0000       0.482960        13.1420 
 103   0.0000       0.484863        13.1938 
 104   0.0000       0.485217        13.2034 
 105   0.0000       0.491544        13.3756 
 106   0.0000       0.492825        13.4105 
 107   0.0000       0.498560        13.5665 
 108   0.0000       0.508997        13.8505 
 109   0.0000       0.514631        14.0038 
 110   0.0000       0.520287        14.1577 
 111   0.0000       0.522587        14.2203 
 112   0.0000       0.533172        14.5084 
 113   0.0000       0.534232        14.5372 
 114   0.0000       0.541413        14.7326 
 115   0.0000       0.543883        14.7998 
 116   0.0000       0.545184        14.8352 
 117   0.0000       0.545623        14.8472 
 118   0.0000       0.558203        15.1895 
 119   0.0000       0.562298        15.3009 
 120   0.0000       0.564028        15.3480 
 121   0.0000       0.573327        15.6010 
 122   0.0000       0.577781        15.7222 
 123   0.0000       0.583330        15.8732 
 124   0.0000       0.588612        16.0169 
 125   0.0000       0.589869        16.0511 
 126   0.0000       0.597365        16.2551 
 127   0.0000       0.600656        16.3447 
 128   0.0000       0.609337        16.5809 
 129   0.0000       0.615888        16.7592 
 130   0.0000       0.620082        16.8733 
 131   0.0000       0.628320        17.0975 
 132   0.0000       0.628856        17.1120 
 133   0.0000       0.634657        17.2699 
 134   0.0000       0.641651        17.4602 
 135   0.0000       0.642064        17.4715 
 136   0.0000       0.649385        17.6707 
 137   0.0000       0.670533        18.2461 
 138   0.0000       0.674923        18.3656 
 139   0.0000       0.685530        18.6542 
 140   0.0000       0.694352        18.8943 
 141   0.0000       0.695625        18.9289 
 142   0.0000       0.697734        18.9863 
 143   0.0000       0.708043        19.2668 
 144   0.0000       0.720562        19.6075 
 145   0.0000       0.731267        19.8988 
 146   0.0000       0.734565        19.9885 
 147   0.0000       0.739447        20.1214 
 148   0.0000       0.742130        20.1944 
 149   0.0000       0.749328        20.3903 
 150   0.0000       0.768277        20.9059 
 151   0.0000       0.771555        20.9951 
 152   0.0000       0.793812        21.6007 
 153   0.0000       0.795526        21.6474 
 154   0.0000       0.796908        21.6850 
 155   0.0000       0.798789        21.7362 
 156   0.0000       0.807298        21.9677 
 157   0.0000       0.808302        21.9950 
 158   0.0000       0.817918        22.2567 
 159   0.0000       0.822118        22.3710 
 160   0.0000       0.837651        22.7936 
 161   0.0000       0.840379        22.8679 
 162   0.0000       0.841827        22.9073 
 163   0.0000       0.847229        23.0543 
 164   0.0000       0.850491        23.1430 
 165   0.0000       0.855191        23.2709 
 166   0.0000       0.856470        23.3057 
 167   0.0000       0.862940        23.4818 
 168   0.0000       0.864109        23.5136 
 169   0.0000       0.870943        23.6996 
 170   0.0000       0.873430        23.7672 
 171   0.0000       0.873950        23.7814 
 172   0.0000       0.877847        23.8874 
 173   0.0000       0.883352        24.0372 
 174   0.0000       0.884594        24.0710 
 175   0.0000       0.886512        24.1232 
 176   0.0000       0.894882        24.3510 
 177   0.0000       0.901675        24.5358 
 178   0.0000       0.907695        24.6996 
 179   0.0000       0.908073        24.7099 
 180   0.0000       0.912032        24.8177 
 181   0.0000       0.913348        24.8534 
 182   0.0000       0.924684        25.1619 
 183   0.0000       0.927582        25.2408 
 184   0.0000       0.929255        25.2863 
 185   0.0000       0.930737        25.3266 
 186   0.0000       0.943912        25.6851 
 187   0.0000       0.946997        25.7691 
 188   0.0000       0.952502        25.9189 
 189   0.0000       0.956039        26.0151 
 190   0.0000       0.963622        26.2215 
 191   0.0000       0.971348        26.4317 
 192   0.0000       0.976314        26.5668 
 193   0.0000       0.986154        26.8346 
 194   0.0000       0.988478        26.8979 
 195   0.0000       0.993315        27.0295 
 196   0.0000       0.999340        27.1934 
 197   0.0000       1.000080        27.2136 
 198   0.0000       1.010585        27.4994 
 199   0.0000       1.016223        27.6528 
 200   0.0000       1.016979        27.6734 
 201   0.0000       1.033236        28.1158 
 202   0.0000       1.035014        28.1642 
 203   0.0000       1.043433        28.3933 
 204   0.0000       1.043985        28.4083 
 205   0.0000       1.053568        28.6691 
 206   0.0000       1.065409        28.9913 
 207   0.0000       1.077774        29.3277 
 208   0.0000       1.086572        29.5671 
 209   0.0000       1.092657        29.7327 
 210   0.0000       1.101597        29.9760 
 211   0.0000       1.109250        30.1842 
 212   0.0000       1.142708        31.0947 
 213   0.0000       1.153365        31.3847 
 214   0.0000       1.156322        31.4651 
 215   0.0000       1.184767        32.2392 
 216   0.0000       1.190526        32.3959 
 217   0.0000       1.194817        32.5126 
 218   0.0000       1.201863        32.7044 
 219   0.0000       1.213134        33.0110 
 220   0.0000       1.228272        33.4230 
 221   0.0000       1.254969        34.1495 
 222   0.0000       1.258810        34.2540 
 223   0.0000       1.268769        34.5249 
 224   0.0000       1.273628        34.6572 
 225   0.0000       1.274936        34.6928 
 226   0.0000       1.296680        35.2845 
 227   0.0000       1.304687        35.5023 
 228   0.0000       1.329083        36.1662 
 229   0.0000       1.346933        36.6519 
 230   0.0000       1.349621        36.7250 
 231   0.0000       1.357901        36.9504 
 232   0.0000       1.387078        37.7443 
 233   0.0000       1.399829        38.0913 
 234   0.0000       1.409277        38.3484 
 235   0.0000       1.441841        39.2345 
 236   0.0000       1.522098        41.4184 
 237   0.0000       1.526059        41.5262 
 238   0.0000       1.558307        42.4037 
 239   0.0000       1.572265        42.7835 
 240   0.0000       1.580143        42.9979 
 241   0.0000       1.597798        43.4783 
 242   0.0000       1.606298        43.7096 
 243   0.0000       1.609081        43.7853 
 244   0.0000       1.619437        44.0671 
 245   0.0000       1.632212        44.4147 
 246   0.0000       1.641341        44.6632 
 247   0.0000       1.648370        44.8544 
 248   0.0000       1.662389        45.2359 
 249   0.0000       1.688379        45.9431 
 250   0.0000       1.695196        46.1286 
 251   0.0000       1.702994        46.3408 
 252   0.0000       1.709586        46.5202 
 253   0.0000       1.751610        47.6637 
 254   0.0000       1.759092        47.8673 
 255   0.0000       1.781323        48.4723 
 256   0.0000       1.788288        48.6618 
 257   0.0000       1.828843        49.7654 
 258   0.0000       1.839576        50.0574 
 259   0.0000       1.850260        50.3481 
 260   0.0000       1.878272        51.1104 
 261   0.0000       1.885665        51.3116 
 262   0.0000       1.906966        51.8912 
 263   0.0000       1.907308        51.9005 
 264   0.0000       1.954707        53.1903 
 265   0.0000       1.958265        53.2871 
 266   0.0000       1.979918        53.8763 
 267   0.0000       2.003414        54.5157 
 268   0.0000       2.026728        55.1501 
 269   0.0000       2.044556        55.6352 
 270   0.0000       2.055046        55.9206 
 271   0.0000       2.113590        57.5137 
 272   0.0000       2.160936        58.8021 
 273   0.0000       2.178074        59.2684 
 274   0.0000       2.217078        60.3298 
 275   0.0000       2.221543        60.4513 
 276   0.0000       2.245477        61.1025 
 277   0.0000       2.300656        62.6040 
 278   0.0000       2.304795        62.7166 
 279   0.0000       2.326123        63.2970 
 280   0.0000       2.335162        63.5430 
 281   0.0000       2.366063        64.3839 
 282   0.0000       2.399933        65.3055 
 283   0.0000       2.414242        65.6949 
 284   0.0000       2.440648        66.4134 
 285   0.0000       2.458100        66.8883 
 286   0.0000       2.501728        68.0755 
 287   0.0000       2.516754        68.4844 
 288   0.0000       2.568406        69.8899 
 289   0.0000       2.628684        71.5301 
 290   0.0000       2.657226        72.3068 
 291   0.0000       2.673694        72.7549 
 292   0.0000       2.716414        73.9174 
 293   0.0000       2.727526        74.2198 
 294   0.0000       2.771908        75.4275 
 295   0.0000       2.772423        75.4415 
 296   0.0000       2.823850        76.8409 
 297   0.0000       2.868613        78.0589 
 298   0.0000       2.901480        78.9533 
 299   0.0000       2.967574        80.7518 
 300   0.0000       3.012399        81.9715 
 301   0.0000       3.105506        84.5051 
 302   0.0000       3.142433        85.5099 
 303   0.0000       3.178837        86.5006 
 304   0.0000       3.204695        87.2042 
 305   0.0000       3.239927        88.1629 
 306   0.0000       3.282440        89.3197 
 307   0.0000       3.317868        90.2838 
 308   0.0000       3.335485        90.7632 
 309   0.0000       3.343936        90.9931 
 310   0.0000       3.434621        93.4608 
 311   0.0000       3.436178        93.5032 
 312   0.0000       3.484297        94.8125 
 313   0.0000       3.525593        95.9363 
 314   0.0000       3.548826        96.5685 
 315   0.0000       3.582480        97.4842 
 316   0.0000       3.607631        98.1686 
 317   0.0000       3.650467        99.3343 
 318   0.0000       3.660458        99.6061 
 319   0.0000       3.676182       100.0340 
 320   0.0000       3.720508       101.2402 
 321   0.0000       3.758668       102.2786 
 322   0.0000       3.771874       102.6379 
 323   0.0000       3.780407       102.8701 
 324   0.0000       3.811335       103.7117 
 325   0.0000       3.835983       104.3824 
 326   0.0000       3.857066       104.9561 
 327   0.0000       3.884062       105.6907 
 328   0.0000       3.893315       105.9425 
 329   0.0000       3.921655       106.7137 
 330   0.0000       3.933396       107.0332 
 331   0.0000       3.979241       108.2807 
 332   0.0000       4.018858       109.3587 
 333   0.0000       4.063827       110.5824 
 334   0.0000       4.065184       110.6193 
 335   0.0000       4.118290       112.0644 
 336   0.0000       4.147155       112.8498 
 337   0.0000       4.181306       113.7791 
 338   0.0000       4.187622       113.9510 
 339   0.0000       4.211801       114.6089 
 340   0.0000       4.243599       115.4742 
 341   0.0000       4.276973       116.3823 
 342   0.0000       4.335104       117.9642 
 343   0.0000       4.341661       118.1426 
 344   0.0000       4.377982       119.1309 
 345   0.0000       4.380859       119.2092 
 346   0.0000       4.409941       120.0006 
 347   0.0000       4.458989       121.3353 
 348   0.0000       4.464448       121.4838 
 349   0.0000       4.487737       122.1175 
 350   0.0000       4.593194       124.9872 
 351   0.0000       4.615766       125.6014 
 352   0.0000       4.697719       127.8314 
 353   0.0000       4.699127       127.8697 
 354   0.0000       4.708338       128.1204 
 355   0.0000       4.738265       128.9348 
 356   0.0000       4.765223       129.6683 
 357   0.0000       4.810169       130.8913 
 358   0.0000       4.825965       131.3212 
 359   0.0000       4.854295       132.0921 
 360   0.0000       4.876313       132.6912 
 361   0.0000       4.914041       133.7178 
 362   0.0000       4.937424       134.3541 
 363   0.0000       4.990454       135.7971 
 364   0.0000       5.085562       138.3852 
 365   0.0000       5.111170       139.0820 
 366   0.0000       5.144853       139.9986 
 367   0.0000       5.225826       142.2019 
 368   0.0000       5.230505       142.3293 
 369   0.0000       5.259444       143.1168 
 370   0.0000       5.315212       144.6343 
 371   0.0000       5.319174       144.7421 
 372   0.0000       5.380330       146.4062 
 373   0.0000       5.381881       146.4484 
 374   0.0000       5.460330       148.5831 
 375   0.0000       5.481701       149.1647 
 376   0.0000       5.496891       149.5780 
 377   0.0000       5.530102       150.4817 
 378   0.0000       5.540977       150.7777 
 379   0.0000       5.661392       154.0543 
 380   0.0000       5.679838       154.5562 
 381   0.0000       5.740706       156.2126 
 382   0.0000       5.751752       156.5131 
 383   0.0000       5.783621       157.3803 
 384   0.0000       5.836077       158.8077 
 385   0.0000       5.895564       160.4265 
 386   0.0000       5.977778       162.6636 
 387   0.0000       5.986215       162.8932 
 388   0.0000       6.038775       164.3234 
 389   0.0000       6.136177       166.9739 
 390   0.0000       6.245101       169.9378 
 391   0.0000       6.272250       170.6766 
 392   0.0000       6.298396       171.3881 
 393   0.0000       6.327378       172.1767 
 394   0.0000       6.332850       172.3256 
 395   0.0000       6.443578       175.3387 
 396   0.0000       6.450617       175.5302 
 397   0.0000       6.612098       179.9243 
 398   0.0000       6.713551       182.6850 
 399   0.0000       6.768125       184.1700 
 400   0.0000       6.787071       184.6856 
 401   0.0000       6.845273       186.2693 
 402   0.0000       6.874849       187.0742 
 403   0.0000       6.900209       187.7642 
 404   0.0000       6.946401       189.0212 
 405   0.0000       6.957728       189.3294 
 406   0.0000       7.020945       191.0496 
 407   0.0000       7.041738       191.6154 
 408   0.0000       7.090095       192.9313 
 409   0.0000       7.470802       203.2908 
 410   0.0000       7.537338       205.1014 
 411   0.0000       7.617800       207.2909 
 412   0.0000       7.674108       208.8231 
 413   0.0000       7.686804       209.1686 
 414   0.0000       7.827464       212.9961 
 415   0.0000       7.851567       213.6520 
 416   0.0000       7.910751       215.2625 
 417   0.0000       7.987379       217.3476 
 418   0.0000       8.032032       218.5627 
 419   0.0000       8.093874       220.2455 
 420   0.0000       8.505744       231.4531 
 421   0.0000       8.517647       231.7770 
 422   0.0000       8.551826       232.7070 
 423   0.0000       8.764805       238.5025 
 424   0.0000       8.817953       239.9487 
 425   0.0000       8.994613       244.7559 
 426   0.0000       9.001463       244.9423 
 427   0.0000       9.020834       245.4694 
 428   0.0000       9.052651       246.3351 
 429   0.0000       9.086159       247.2470 
 430   0.0000       9.120213       248.1736 
 431   0.0000       9.131290       248.4750 
 432   0.0000       9.177842       249.7418 
 433   0.0000       9.182916       249.8799 
 434   0.0000       9.238600       251.3951 
 435   0.0000       9.276314       252.4213 
 436   0.0000       9.284779       252.6517 
 437   0.0000       9.296625       252.9740 
 438   0.0000       9.322292       253.6725 
 439   0.0000       9.426315       256.5031 
 440   0.0000       9.594175       261.0708 
 441   0.0000       9.597135       261.1513 
 442   0.0000       9.609863       261.4977 
 443   0.0000       9.697543       263.8836 
 444   0.0000       9.747493       265.2428 
 445   0.0000       9.777409       266.0568 
 446   0.0000       9.927397       270.1382 
 447   0.0000       9.939644       270.4715 
 448   0.0000       9.950492       270.7666 
 449   0.0000       9.996284       272.0127 
 450   0.0000      10.129959       275.6502 
 451   0.0000      10.547387       287.0090 
 452   0.0000      10.604517       288.5636 
 453   0.0000      10.748695       292.4869 
 454   0.0000      10.831570       294.7420 
 455   0.0000      10.836149       294.8666 
 456   0.0000      10.888349       296.2871 
 457   0.0000      10.966944       298.4257 
 458   0.0000      11.047473       300.6170 
 459   0.0000      11.060106       300.9608 
 460   0.0000      11.111278       302.3532 
 461   0.0000      11.157566       303.6128 
 462   0.0000      11.191422       304.5341 
 463   0.0000      11.244658       305.9827 
 464   0.0000      11.270751       306.6927 
 465   0.0000      11.391026       309.9656 
 466   0.0000      11.474404       312.2344 
 467   0.0000      11.510599       313.2193 
 468   0.0000      11.549558       314.2795 
 469   0.0000      11.606956       315.8413 
 470   0.0000      11.615920       316.0853 
 471   0.0000      11.750538       319.7484 
 472   0.0000      11.916969       324.2772 
 473   0.0000      11.944305       325.0211 
 474   0.0000      11.947127       325.0978 
 475   0.0000      11.959833       325.4436 
 476   0.0000      11.990735       326.2845 
 477   0.0000      12.082538       328.7826 
 478   0.0000      12.119313       329.7833 
 479   0.0000      12.138211       330.2975 
 480   0.0000      12.178092       331.3827 
 481   0.0000      12.190674       331.7251 
 482   0.0000      12.246721       333.2502 
 483   0.0000      12.255478       333.4885 
 484   0.0000      12.318163       335.1943 
 485   0.0000      12.392206       337.2091 
 486   0.0000      12.399270       337.4013 
 487   0.0000      12.458924       339.0245 
 488   0.0000      12.515161       340.5548 
 489   0.0000      12.565997       341.9382 
 490   0.0000      12.584650       342.4457 
 491   0.0000      12.634693       343.8075 
 492   0.0000      12.670209       344.7739 
 493   0.0000      12.704922       345.7185 
 494   0.0000      12.705157       345.7249 
 495   0.0000      12.732797       346.4770 
 496   0.0000      12.777866       347.7034 
 497   0.0000      12.809986       348.5774 
 498   0.0000      12.864143       350.0511 
 499   0.0000      12.900679       351.0453 
 500   0.0000      12.943538       352.2116 
 501   0.0000      12.964202       352.7739 
 502   0.0000      13.000312       353.7565 
 503   0.0000      13.025657       354.4461 
 504   0.0000      13.058425       355.3378 
 505   0.0000      13.058617       355.3430 
 506   0.0000      13.146635       357.7381 
 507   0.0000      13.189923       358.9160 
 508   0.0000      13.284098       361.4787 
 509   0.0000      13.294117       361.7513 
 510   0.0000      13.435004       365.5851 
 511   0.0000      13.486423       366.9842 
 512   0.0000      13.490321       367.0903 
 513   0.0000      13.539164       368.4194 
 514   0.0000      13.564310       369.1036 
 515   0.0000      13.650539       371.4501 
 516   0.0000      13.762043       374.4842 
 517   0.0000      13.890827       377.9886 
 518   0.0000      13.898836       378.2065 
 519   0.0000      14.088730       383.3738 
 520   0.0000      14.093317       383.4987 
 521   0.0000      14.145126       384.9084 
 522   0.0000      14.173577       385.6826 
 523   0.0000      14.511146       394.8684 
 524   0.0000      14.533158       395.4673 
 525   0.0000      14.591949       397.0671 
 526   0.0000      14.608264       397.5111 
 527   0.0000      14.658248       398.8712 
 528   0.0000      14.832493       403.6126 
 529   0.0000      14.846173       403.9849 
 530   0.0000      14.908793       405.6889 
 531   0.0000      15.321067       416.9074 
 532   0.0000      15.481146       421.2634 
 533   0.0000      15.512437       422.1149 
 534   0.0000      15.683060       426.7578 
 535   0.0000      15.890538       432.4035 
 536   0.0000      15.936457       433.6530 
 537   0.0000      15.945252       433.8924 
 538   0.0000      16.154076       439.5748 
 539   0.0000      16.217546       441.3019 
 540   0.0000      16.262829       442.5341 
 541   0.0000      16.739079       455.4935 
 542   0.0000      16.757911       456.0059 
 543   0.0000      16.765887       456.2230 
 544   0.0000      16.781593       456.6504 
 545   0.0000      16.792107       456.9365 
 546   0.0000      16.801468       457.1912 
 547   0.0000      16.806608       457.3311 
 548   0.0000      16.823133       457.7807 
 549   0.0000      16.842554       458.3092 
 550   0.0000      17.190613       467.7804 
 551   0.0000      17.208440       468.2655 
 552   0.0000      17.240414       469.1355 
 553   0.0000      17.263808       469.7721 
 554   0.0000      17.378412       472.8906 
 555   0.0000      17.387644       473.1418 
 556   0.0000      17.392787       473.2818 
 557   0.0000      17.426745       474.2059 
 558   0.0000      17.444991       474.7023 
 559   0.0000      17.548390       477.5160 
 560   0.0000      17.601885       478.9716 
 561   0.0000      17.829637       485.1691 
 562   0.0000      17.935019       488.0367 
 563   0.0000      17.940813       488.1943 
 564   0.0000      18.112157       492.8568 
 565   0.0000      18.328594       498.7464 
 566   0.0000      18.411668       501.0070 
 567   0.0000      18.545150       504.6392 
 568   0.0000      18.567016       505.2342 
 569   0.0000      18.604650       506.2583 
 570   0.0000      18.698169       508.8030 
 571   0.0000      18.784631       511.1558 
 572   0.0000      18.854379       513.0537 
 573   0.0000      18.925697       514.9944 
 574   0.0000      19.063389       518.7412 
 575   0.0000      19.453815       529.3652 
 576   0.0000      19.750074       537.4268 
 577   0.0000      19.841892       539.9253 
 578   0.0000      19.898753       541.4726 
 579   0.0000      19.909417       541.7628 
 580   0.0000      19.949233       542.8462 
 581   0.0000      20.108464       547.1791 
 582   0.0000      20.119618       547.4826 
 583   0.0000      20.153246       548.3977 
 584   0.0000      20.748535       564.5964 
 585   0.0000      20.750367       564.6462 
 586   0.0000      20.984327       571.0126 
 587   0.0000      21.093111       573.9727 
 588   0.0000      21.109713       574.4245 
 589   0.0000      21.328038       580.3654 
 590   0.0000      21.627487       588.5139 
 591   0.0000      21.694726       590.3435 
 592   0.0000      21.810589       593.4963 
 593   0.0000      23.423713       637.3916 
 594   0.0000      23.519007       639.9847 
 595   0.0000      23.632667       643.0776 
 596   0.0000      23.693219       644.7253 
 597   0.0000      23.708111       645.1305 
 598   0.0000      23.811369       647.9403 
 599   0.0000      23.965777       652.1419 
 600   0.0000      24.024193       653.7315 
 601   0.0000      24.060976       654.7324 
 602   0.0000      24.096899       655.7100 
 603   0.0000      24.108103       656.0148 
 604   0.0000      24.998383       680.2406 
 605   0.0000      25.607503       696.8156 
 606   0.0000      25.649649       697.9624 
 607   0.0000      25.653806       698.0756 
 608   0.0000      27.109718       737.6929 
 609   0.0000      27.297317       742.7977 
 610   0.0000      31.063887       845.2913 
 611   0.0000      32.337800       879.9563 
 612   0.0000      32.623282       887.7246 
 613   0.0000      32.655273       888.5952 
 614   0.0000      33.193178       903.2323 
 615   0.0000      33.964762       924.2282 
 616   0.0000      34.001678       925.2327 
 617   0.0000      34.237817       931.6584 
 618   0.0000      34.751900       945.6473 
 619   0.0000      41.235780      1122.0826 
 620   0.0000      41.255391      1122.6163 
 621   0.0000      41.647684      1133.2911 
 622   0.0000      41.744944      1135.9377 
 623   0.0000      66.907526      1820.6463 
 624   0.0000      67.046486      1824.4276 
 625   0.0000      67.056316      1824.6951 
 626   0.0000      67.683029      1841.7489 
 627   0.0000      68.962623      1876.5684 
 628   0.0000      78.511512      2136.4069 
 629   0.0000      91.012648      2476.5801 
 630   0.0000      91.076477      2478.3169 
 631   0.0000      91.151956      2480.3708 
 632   0.0000      91.194692      2481.5337 
 633   0.0000      91.306855      2484.5858 
 634   0.0000      91.370674      2486.3224 
 635   0.0000      91.455770      2488.6380 
 636   0.0000      91.468373      2488.9810 
 637   0.0000      92.433361      2515.2396 
 638   0.0000      92.488686      2516.7451 
 639   0.0000      92.496433      2516.9559 
 640   0.0000      93.620127      2547.5332 
 641   0.0000     144.419454      3929.8531 

                    ********************************
                    * MULLIKEN POPULATION ANALYSIS *
                    ********************************

--------------------------------------------
MULLIKEN ATOMIC CHARGES AND SPIN POPULATIONS
--------------------------------------------
   0 C :    0.315142   -0.000000
   1 O :   -0.395620    0.000000
   2 H :   -0.108773   -0.000000
   3 H :    0.020593   -0.000000
   4 H :    0.020616    0.000000
   5 H :    0.148043   -0.000000
Sum of atomic charges         :   -0.0000000
Sum of atomic spin populations:    0.0000000

-----------------------------------------------------
MULLIKEN REDUCED ORBITAL CHARGES AND SPIN POPULATIONS
-----------------------------------------------------
CHARGE
  0 C s       :     2.874318  s :     2.874318
      pz      :     1.035889  p :     2.673132
      px      :     0.974945
      py      :     0.662298
      dz2     :     0.011609  d :     0.118251
      dxz     :     0.018360
      dyz     :     0.034765
      dx2y2   :     0.020763
      dxy     :     0.032754
      f0      :     0.003113  f :     0.016982
      f+1     :     0.001746
      f-1     :     0.000499
      f+2     :     0.001440
      f-2     :     0.000197
      f+3     :     0.006311
      f-3     :     0.003674
      g0      :     0.000131  g :     0.001712
      g+1     :    -0.000015
      g-1     :     0.000451
      g+2     :    -0.000145
      g-2     :     0.000339
      g+3     :    -0.000049
[...]
      f+1     :    -0.000000
      f-1     :    -0.000000
      f+2     :    -0.000000
      f-2     :     0.000000
      f+3     :    -0.000000
      f-3     :     0.000000
      g0      :    -0.000000  g :    -0.000000
      g+1     :    -0.000000
      g-1     :    -0.000000
      g+2     :    -0.000000
      g-2     :    -0.000000
      g+3     :     0.000000
      g-3     :    -0.000000
      g+4     :     0.000000
      g-4     :    -0.000000


                     *******************************
                     * LOEWDIN POPULATION ANALYSIS *
                     *******************************

-------------------------------------------
LOEWDIN ATOMIC CHARGES AND SPIN POPULATIONS
-------------------------------------------
   0 C :    0.811709   -0.000000
   1 O :    0.972905    0.000000
   2 H :   -0.321385    0.000000
   3 H :   -0.333724   -0.000000
   4 H :   -0.333724    0.000000
   5 H :   -0.795781   -0.000000

----------------------------------------------------
LOEWDIN REDUCED ORBITAL CHARGES AND SPIN POPULATIONS
----------------------------------------------------
CHARGE
  0 C s       :     2.416123  s :     2.416123
      pz      :     0.708050  p :     1.999543
      px      :     0.716563
      py      :     0.574930
      dz2     :     0.072868  d :     0.535443
      dxz     :     0.043477
      dyz     :     0.152464
      dx2y2   :     0.138537
      dxy     :     0.128096
      f0      :     0.021657  f :     0.185027
      f+1     :     0.011767
      f-1     :     0.025084
      f+2     :     0.035962
      f-2     :     0.007183
      f+3     :     0.050172
      f-3     :     0.033203
      g0      :     0.002179  g :     0.040173
      g+1     :     0.000441
      g-1     :     0.007213
      g+2     :     0.004215
      g-2     :     0.002752
      g+3     :     0.000098
      g-3     :     0.005212
      g+4     :     0.007045
      g-4     :     0.011017
      h0      :     0.000909  h :     0.011982
      h+1     :     0.000295
      h-1     :     0.001023
      h+2     :     0.001423
      h-2     :     0.000311
      h+3     :     0.001443
      h-3     :     0.001125
      h+4     :     0.000666
      h-4     :     0.000314
      h+5     :     0.003082
      h-5     :     0.001393
  1 O s       :     2.866767  s :     2.866767
      pz      :     1.311163  p :     3.600153
      px      :     1.192834
      py      :     1.096156
      dz2     :     0.027691  d :     0.296822
      dxz     :     0.002344
      dyz     :     0.083754
      dx2y2   :     0.083497
      dxy     :     0.099535
      f0      :     0.020574  f :     0.150170
      f+1     :     0.004526
      f-1     :     0.011412
      f+2     :     0.034566
      f-2     :     0.003576
      f+3     :     0.056536
      f-3     :     0.018980
      g0      :     0.003092  g :     0.079377
      g+1     :     0.000414
      g-1     :     0.017441
      g+2     :     0.002975
      g-2     :     0.005076
      g+3     :     0.004657
      g-3     :     0.013417
      g+4     :     0.005633
      g-4     :     0.026672
      h0      :     0.003138  h :     0.033805
      h+1     :     0.000457
      h-1     :     0.002945
      h+2     :     0.005781
      h-2     :     0.000184
      h+3     :     0.002759
      h-3     :     0.000616
      h+4     :     0.003475
      h-4     :     0.003256
      h+5     :     0.008770
      h-5     :     0.002425
  2 H s       :     0.600578  s :     0.600578
      pz      :     0.072560  p :     0.265793
      px      :     0.135642
      py      :     0.057590
      dz2     :     0.018598  d :     0.235017
      dxz     :     0.079355
      dyz     :     0.014572
      dx2y2   :     0.068307
      dxy     :     0.054184
      f0      :     0.014659  f :     0.131091
      f+1     :     0.006551
      f-1     :     0.009084
      f+2     :     0.024895
      f-2     :     0.013041
      f+3     :     0.034623
      f-3     :     0.028238
      g0      :     0.003826  g :     0.088907
      g+1     :     0.005471
      g-1     :     0.009683
      g+2     :     0.004408
      g-2     :     0.006825
      g+3     :     0.018308
      g-3     :     0.000687
      g+4     :     0.022070
      g-4     :     0.017629
  3 H s       :     0.599012  s :     0.599012
      pz      :     0.119812  p :     0.272407
      px      :     0.089092
      py      :     0.063503
      dz2     :     0.075269  d :     0.237547
      dxz     :     0.049341
      dyz     :     0.045555
      dx2y2   :     0.043342
      dxy     :     0.024040
      f0      :     0.030984  f :     0.134932
      f+1     :     0.007843
      f-1     :     0.021591
      f+2     :     0.026380
      f-2     :     0.015562
      f+3     :     0.020965
      f-3     :     0.011607
      g0      :     0.015561  g :     0.089826
      g+1     :     0.002306
      g-1     :     0.009688
      g+2     :     0.010939
      g-2     :     0.003692
      g+3     :     0.017354
      g-3     :     0.011027
      g+4     :     0.008561
      g-4     :     0.010698
  4 H s       :     0.599012  s :     0.599012
      pz      :     0.119812  p :     0.272407
      px      :     0.089092
      py      :     0.063503
      dz2     :     0.075269  d :     0.237547
      dxz     :     0.049341
      dyz     :     0.045555
      dx2y2   :     0.043342
      dxy     :     0.024040
      f0      :     0.030984  f :     0.134932
      f+1     :     0.007843
      f-1     :     0.021591
      f+2     :     0.026380
      f-2     :     0.015562
      f+3     :     0.020965
      f-3     :     0.011607
      g0      :     0.015561  g :     0.089826
      g+1     :     0.002306
      g-1     :     0.009688
      g+2     :     0.010939
      g-2     :     0.003692
      g+3     :     0.017354
      g-3     :     0.011027
      g+4     :     0.008561
      g-4     :     0.010698
  5 H s       :     0.564172  s :     0.564172
      pz      :     0.140603  p :     0.509066
      px      :     0.232691
      py      :     0.135772
      dz2     :     0.039703  d :     0.443016
      dxz     :     0.117148
      dyz     :     0.035811
      dx2y2   :     0.140714
      dxy     :     0.109641
      f0      :     0.027639  f :     0.195581
      f+1     :     0.011191
      f-1     :     0.010063
      f+2     :     0.036374
      f-2     :     0.017251
      f+3     :     0.049662
      f-3     :     0.043401
      g0      :     0.002920  g :     0.083946
      g+1     :     0.002689
      g-1     :     0.014729
      g+2     :     0.002079
      g-2     :     0.006691
      g+3     :     0.010613
      g-3     :     0.006907
      g+4     :     0.026429
      g-4     :     0.010890

SPIN
  0 C s       :    -0.000000  s :    -0.000000
      pz      :     0.000000  p :     0.000000
      px      :     0.000000
      py      :     0.000000
      dz2     :    -0.000000  d :    -0.000000
      dxz     :    -0.000000
      dyz     :    -0.000000
      dx2y2   :    -0.000000
      dxy     :    -0.000000
      f0      :     0.000000  f :    -0.000000
      f+1     :    -0.000000
      f-1     :    -0.000000
      f+2     :    -0.000000
      f-2     :    -0.000000
      f+3     :     0.000000
      f-3     :     0.000000
      g0      :    -0.000000  g :     0.000000
      g+1     :    -0.000000
      g-1     :    -0.000000
      g+2     :     0.000000
      g-2     :    -0.000000
      g+3     :     0.000000
      g-3     :    -0.000000
      g+4     :    -0.000000
      g-4     :    -0.000000
      h0      :    -0.000000  h :    -0.000000
      h+1     :    -0.000000
      h-1     :    -0.000000
      h+2     :    -0.000000
      h-2     :    -0.000000
      h+3     :    -0.000000
      h-3     :     0.000000
      h+4     :     0.000000
      h-4     :    -0.000000
      h+5     :     0.000000
      h-5     :    -0.000000
  1 O s       :     0.000000  s :     0.000000
      pz      :     0.000000  p :     0.000000
      px      :     0.000000
      py      :     0.000000
      dz2     :    -0.000000  d :     0.000000
      dxz     :     0.000000
      dyz     :     0.000000
      dx2y2   :     0.000000
      dxy     :    -0.000000
      f0      :    -0.000000  f :     0.000000
      f+1     :     0.000000
      f-1     :     0.000000
      f+2     :    -0.000000
      f-2     :    -0.000000
      f+3     :    -0.000000
      f-3     :     0.000000
      g0      :    -0.000000  g :    -0.000000
      g+1     :    -0.000000
      g-1     :     0.000000
      g+2     :    -0.000000
      g-2     :    -0.000000
      g+3     :    -0.000000
      g-3     :    -0.000000
      g+4     :    -0.000000
      g-4     :    -0.000000
      h0      :     0.000000  h :    -0.000000
      h+1     :    -0.000000
      h-1     :     0.000000
      h+2     :     0.000000
      h-2     :     0.000000
      h+3     :     0.000000
      h-3     :     0.000000
      h+4     :    -0.000000
      h-4     :    -0.000000
      h+5     :    -0.000000
      h-5     :    -0.000000
  2 H s       :     0.000000  s :     0.000000
      pz      :     0.000000  p :     0.000000
      px      :     0.000000
      py      :    -0.000000
      dz2     :    -0.000000  d :     0.000000
      dxz     :     0.000000
      dyz     :    -0.000000
      dx2y2   :     0.000000
      dxy     :    -0.000000
      f0      :    -0.000000  f :    -0.000000
      f+1     :    -0.000000
      f-1     :     0.000000
      f+2     :    -0.000000
      f-2     :     0.000000
      f+3     :    -0.000000
      f-3     :     0.000000
      g0      :     0.000000  g :    -0.000000
      g+1     :     0.000000
      g-1     :    -0.000000
      g+2     :     0.000000
      g-2     :    -0.000000
      g+3     :    -0.000000
      g-3     :     0.000000
      g+4     :    -0.000000
      g-4     :    -0.000000
  3 H s       :    -0.000000  s :    -0.000000
      pz      :     0.000000  p :     0.000000
      px      :    -0.000000
      py      :     0.000000
      dz2     :     0.000000  d :     0.000000
      dxz     :    -0.000000
      dyz     :     0.000000
      dx2y2   :    -0.000000
      dxy     :    -0.000000
      f0      :     0.000000  f :     0.000000
      f+1     :    -0.000000
      f-1     :    -0.000000
      f+2     :    -0.000000
      f-2     :     0.000000
      f+3     :    -0.000000
      f-3     :     0.000000
      g0      :    -0.000000  g :    -0.000000
      g+1     :     0.000000
      g-1     :    -0.000000
      g+2     :    -0.000000
      g-2     :    -0.000000
      g+3     :     0.000000
      g-3     :    -0.000000
      g+4     :    -0.000000
      g-4     :     0.000000
  4 H s       :     0.000000  s :     0.000000
      pz      :     0.000000  p :     0.000000
      px      :    -0.000000
      py      :     0.000000
      dz2     :     0.000000  d :     0.000000
      dxz     :     0.000000
      dyz     :    -0.000000
      dx2y2   :     0.000000
      dxy     :    -0.000000
      f0      :     0.000000  f :     0.000000
      f+1     :    -0.000000
      f-1     :    -0.000000
      f+2     :     0.000000
      f-2     :     0.000000
      f+3     :    -0.000000
      f-3     :     0.000000
      g0      :    -0.000000  g :    -0.000000
      g+1     :     0.000000
      g-1     :    -0.000000
      g+2     :    -0.000000
      g-2     :    -0.000000
      g+3     :    -0.000000
      g-3     :    -0.000000
      g+4     :    -0.000000
      g-4     :    -0.000000
  5 H s       :    -0.000000  s :    -0.000000
      pz      :    -0.000000  p :    -0.000000
      px      :    -0.000000
      py      :    -0.000000
      dz2     :    -0.000000  d :    -0.000000
      dxz     :    -0.000000
      dyz     :     0.000000
      dx2y2   :    -0.000000
      dxy     :    -0.000000
      f0      :     0.000000  f :     0.000000
      f+1     :    -0.000000
      f-1     :     0.000000
      f+2     :    -0.000000
      f-2     :     0.000000
      f+3     :    -0.000000
      f-3     :    -0.000000
      g0      :    -0.000000  g :     0.000000
      g+1     :     0.000000
      g-1     :     0.000000
      g+2     :    -0.000000
      g-2     :     0.000000
      g+3     :     0.000000
      g-3     :    -0.000000
      g+4     :    -0.000000
      g-4     :     0.000000


                      *****************************
                      * MAYER POPULATION ANALYSIS *
                      *****************************

  NA   - Mulliken gross atomic population
  ZA   - Total nuclear charge
  QA   - Mulliken gross atomic charge
  VA   - Mayer's total valence
  BVA  - Mayer's bonded valence
  FA   - Mayer's free valence

  ATOM       NA         ZA         QA         VA         BVA        FA
  0 C      5.6849     6.0000     0.3151     3.9087     3.9087    -0.0000
  1 O      8.3956     8.0000    -0.3956     2.1422     2.1422     0.0000
  2 H      1.1088     1.0000    -0.1088     1.2277     1.2277    -0.0000
  3 H      0.9794     1.0000     0.0206     1.1621     1.1621    -0.0000
  4 H      0.9794     1.0000     0.0206     1.1620     1.1620     0.0000
  5 H      0.8520     1.0000     0.1480     1.0481     1.0481    -0.0000

  Mayer bond orders larger than 0.1
B(  0-C ,  1-O ) :   0.9311 B(  0-C ,  2-H ) :   1.0160 B(  0-C ,  3-H ) :   0.9898 
B(  0-C ,  4-H ) :   0.9897 B(  1-O ,  5-H ) :   1.1032 

-------
TIMINGS
-------

Total SCF time: 0 days 1 hours 9 min 54 sec 

Total time                  ....    4194.328 sec
Sum of individual times     ....    4192.370 sec  (100.0%)

Fock matrix formation       ....    4176.656 sec  ( 99.6%)
  XC integration            ....     130.739 sec  (  3.1% of F)
    Basis function eval.    ....       6.336 sec  (  4.8% of XC)
    Density eval.           ....      43.001 sec  ( 32.9% of XC)
    XC-Functional eval.     ....       0.447 sec  (  0.3% of XC)
    XC-Potential eval.      ....      79.381 sec  ( 60.7% of XC)
Diagonalization             ....       4.960 sec  (  0.1%)
Density matrix formation    ....       0.068 sec  (  0.0%)
Population analysis         ....       0.495 sec  (  0.0%)
Initial guess               ....       5.057 sec  (  0.1%)
Orbital Transformation      ....       0.000 sec  (  0.0%)
Orbital Orthonormalization  ....       0.000 sec  (  0.0%)
DIIS solution               ....       2.430 sec  (  0.1%)
Grid generation             ....       2.705 sec  (  0.1%)

-------------------------   --------------------
FINAL SINGLE POINT ENERGY      -115.642186246940
-------------------------   --------------------


                            ***************************************
                            *     ORCA property calculations      *
                            ***************************************

                                    ---------------------
                                    Active property flags
                                    ---------------------
   (+) Dipole Moment
   (+) Polarizability


------------------------------------------------------------------------------
                       ORCA ELECTRIC PROPERTIES CALCULATION
------------------------------------------------------------------------------

Dipole Moment Calculation                       ... on
Quadrupole Moment Calculation                   ... off
Polarizability Calculation                      ... Analytic (CP-SCF)
GBWName                                         ... ch3oh_pbe.gbw
Electron density file                           ... ch3oh_pbe.scfp.tmp
The origin for moment calculation is the CENTER OF MASS  = (-0.041258, -0.119842  0.000000)

-------------
DIPOLE MOMENT
-------------
                                X             Y             Z
Electronic contribution:     -0.22460      -1.80234      -0.00000
Nuclear contribution   :      0.74171       2.15791       0.00000
                        -----------------------------------------
Total Dipole Moment    :      0.51710       0.35557      -0.00000
                        -----------------------------------------
Magnitude (a.u.)       :      0.62755
Magnitude (Debye)      :      1.59512



--------------------
Rotational spectrum 
--------------------
 
Rotational constants in cm-1:     4.257682     0.821117     0.792238 
Rotational constants in MHz : 127642.086878 24616.458466 23750.711082 

 Dipole components along the rotational axes: 
x,y,z [a.u.] :    -0.326407    -0.535988    -0.000000 
x,y,z [Debye]:    -0.829659    -1.362374    -0.000000 

 
Transforming and storing MO dipole integrals   ... done

                ... starting polarizability calculation

Opening the Dipole integral file               ... (ch3oh_pbe.dmo.tmp) done
Reading Dipole-MO integrals                    ... done
Solving CP-SCF equations                       ... 

           ************************************************************
           *        Program running with 4 parallel MPI-processes     *
           *              working on a common directory               *
           ************************************************************

------------------------------------------------------------------------------
                           ORCA CP-SCF CALCULATION
------------------------------------------------------------------------------

Input orbitals are from        ... ch3oh_pbe.gbw
Input Perturbation             ... ch3oh_pbe.cpv.tmp
Wavefunction output            ... ch3oh_pbe.cpu.tmp
Perturbation mode              ... Real perturbation (singlet)
Solver                         ... POPLE
Max. number of iterations      ... 200
Convergence tolerance          ... 1.000e-06
Integral handling              ... Direct
Number of perturbations        ... 3
Number of operators            ... 2
Orbital ranges used for CP-SCF:
 Operator 0:  Orbitals   0...  8  to   9...641
 Operator 1:  Orbitals   0...  8  to   9...641
DFT calculation                         ... on
Exchange functional (SCF)               ... PBE
Exchange functional (CP-SCF)            ... PBE
   PBE kappa parameter  XKappa (SCF)    ...  0.804000
   PBE kappa parameter  XKappa (CP-SCF) ...  0.804000
   PBE mue parameter   XMuePBE (SCF)    ...  0.219520
   PBE mue parameter   XMuePBE (CP-SCF) ...  0.219520
Correlation functional (SCF)            ... PBE
Correlation functional (CP-SCF)         ... PBE
   PBE beta parameter CBetaPBE (SCF)    ...  0.066725
   PBE beta parameter CBetaPBE (CP-SCF) ...  0.066725
 LDA part of GGA corr.  LDAOpt (SCF)    ... PW91-LDA
 LDA part of GGA corr.  LDAOpt (CP-SCF) ... PW91-LDA
Variables per vector in CP-SCF ... 11394
Number of vectors sought       ... 3
Recalculating density on grid  ... done
Calculating the xc-kernel      ... done
     CP-SCF ITERATION   0: 
     CP-SCF ITERATION   1:      0.347264843374
     CP-SCF ITERATION   2:      0.009083722039
     CP-SCF ITERATION   3:      0.001101078064
     CP-SCF ITERATION   4:      0.000016635832
     CP-SCF ITERATION   5:      0.000000477321
done
Reading CP-SCF coefficients                    ... done
Doing the polarizability tensor   ... done
Cleaning up                                    ... done

-------------------------
THE POLARIZABILITY TENSOR
-------------------------

The raw cartesian tensor (atomic units):
   21.60278     -0.58801      0.00000  
   -0.58801     24.84315     -0.00000  
    0.00000     -0.00000     21.35322  
diagonalized tensor: 
   21.35322     21.49938     24.94655  

   -0.00000     -0.98489      0.17319  
   -0.00000     -0.17319     -0.98489  
    1.00000     -0.00000      0.00000  

Isotropic polarizability :  22.59972


Timings for individual modules:

Sum of individual times         ...     7544.434 sec (= 125.741 min)
GTO integral calculation        ...       10.237 sec (=   0.171 min)   0.1 %
SCF iterations                  ...     4201.864 sec (=  70.031 min)  55.7 %
Solution of CP-SCF eqns.        ...     3332.333 sec (=  55.539 min)  44.2 %
                             ****ORCA TERMINATED NORMALLY****
TOTAL RUN TIME: 0 days 2 hours 5 minutes 45 seconds 664 msec
