
                                 *****************
                                 * O   R   C   A *
                                 *****************

           --- An Ab Initio, DFT and Semiempirical electronic structure package ---

                  #######################################################
                  #                        -***-                        #
                  #          Department of theory and spectroscopy      #
                  #               Directorship: Frank Neese             #
                  #        Max Planck Institute fuer Kohlenforschung    #
                  #                Kaiser Wilhelm Platz 1               #
                  #                 D-45470 Muelheim/Ruhr               #
                  #                      Germany                        #
                  #                                                     #
                  #                  All rights reserved                #
                  #                        -***-                        #
                  #######################################################


                         Program Version 4.1.2  - RELEASE  -


 With contributions from (in alphabetic order):
   Daniel Aravena         : Magnetic Properties
   Michael Atanasov       : Ab Initio Ligand Field Theory
   Alexander A. Auer      : GIAO ZORA
   Ute Becker             : Parallelization
   Giovanni Bistoni       : ED, Open-shell LED
   Martin Brehm           : Molecular dynamics
   Dmytro Bykov           : SCF Hessian
   Vijay G. Chilkuri      : MRCI spin determinant printing
   Dipayan Datta          : RHF DLPNO-CCSD density
   Achintya Kumar Dutta   : EOM-CC, STEOM-CC
   Dmitry Ganyushin       : Spin-Orbit,Spin-Spin,Magnetic field MRCI
   Miquel Garcia          : C-PCM Hessian
   Yang Guo               : DLPNO-NEVPT2, CIM, IAO-localization
   Andreas Hansen         : Spin unrestricted coupled pair/coupled cluster methods
   Benjamin Helmich-Paris : CASSCF linear response (MC-RPA)
   Lee Huntington         : MR-EOM, pCC
   Robert Izsak           : Overlap fitted RIJCOSX, COSX-SCS-MP3, EOM
   Christian Kollmar      : KDIIS, OOCD, Brueckner-CCSD(T), CCSD density
   Simone Kossmann        : Meta GGA functionals, TD-DFT gradient, OOMP2, MP2 Hessian
   Martin Krupicka        : AUTO-CI
   Lucas Lang             : DCDCAS
   Dagmar Lenk            : GEPOL surface, SMD
   Dimitrios Liakos       : Extrapolation schemes; parallel MDCI
   Dimitrios Manganas     : ROCIS; embedding schemes
   Dimitrios Pantazis     : SARC Basis sets
   Taras Petrenko         : DFT Hessian,TD-DFT gradient, ASA, ECA, R-Raman, ABS, FL, XAS/XES, NRVS
   Peter Pinski           : DLPNO-MP2, DLPNO-MP2 Gradient
   Christoph Reimann      : Effective Core Potentials
   Marius Retegan         : Local ZFS, SOC
   Christoph Riplinger    : Optimizer, TS searches, QM/MM, DLPNO-CCSD(T), (RO)-DLPNO pert. Triples
   Tobias Risthaus        : Range-separated hybrids, TD-DFT gradient, RPA, STAB
   Michael Roemelt        : Restricted open shell CIS
   Masaaki Saitow         : Open-shell DLPNO
   Barbara Sandhoefer     : DKH picture change effects
   Avijit Sen             : IP-ROCIS
   Kantharuban Sivalingam : CASSCF convergence, NEVPT2, FIC-MRCI
   Bernardo de Souza      : ESD, SOC TD-DFT
   Georgi Stoychev        : AutoAux, RI-MP2 NMR
   Willem Van den Heuvel  : Paramagnetic NMR
   Boris Wezisla          : Elementary symmetry handling
   Frank Wennmohs         : Technical directorship


 We gratefully acknowledge several colleagues who have allowed us to
 interface, adapt or use parts of their codes:
   Stefan Grimme, W. Hujo, H. Kruse,             : VdW corrections, initial TS optimization,
                  C. Bannwarth                     DFT functionals, gCP, sTDA/sTD-DF
   Ed Valeev                                     : LibInt (2-el integral package), F12 methods
   Garnet Chan, S. Sharma, J. Yang, R. Olivares  : DMRG
   Ulf Ekstrom                                   : XCFun DFT Library
   Mihaly Kallay                                 : mrcc  (arbitrary order and MRCC methods)
   Andreas Klamt, Michael Diedenhofen            : otool_cosmo (COSMO solvation model)
   Jiri Pittner, Ondrej Demel                    : Mk-CCSD
   Frank Weinhold                                : gennbo (NPA and NBO analysis)
   Christopher J. Cramer and Donald G. Truhlar   : smd solvation model
   Lars Goerigk                                  : TD-DFT with DH, B97 family of functionals
   V. Asgeirsson, H. Jonsson                     : NEB implementation
   FAccTs GmbH                                   : IRC, NEB, NEB-TS, Multilevel


 Your calculation uses the libint2 library for the computation of 2-el integrals
 For citations please refer to: http://libint.valeyev.net

 This ORCA versions uses:
   CBLAS   interface :  Fast vector & matrix operations
   LAPACKE interface :  Fast linear algebra routines
   SCALAPACK package :  Parallel linear algebra routines


----- Orbital basis set information -----
Your calculation utilizes the basis: aug-pc-4
   H, C-F              : F. Jensen, J. Chem. Phys. 115, 9113 (2001).
                         F. Jensen, J. Chem. Phys. 116, 7372 (2002).
                         F. Jensen, J. Chem. Phys. 117, 9234 (2002).
   Si-Cl               : F. Jensen, T. Helgaker, J. Chem. Phys. 121, 3463 (2004).
   He-B, Ne-Mg, Al, Ar : F. Jensen, J. Phys. Chem. A 111, 11198 (2007).
   K, Ca, Ga-Kr        : F. Jensen, J. Chem. Phys. 136, 094110 (2012).
   Sc-Zn               : F. Jensen, J. Chem. Phys. 138, 014107 (2013).

================================================================================
                                        WARNINGS
                       Please study these warnings very carefully!
================================================================================


INFO   : the flag for use of LIBINT has been found!

================================================================================
                                       INPUT FILE
================================================================================
NAME = clcn_pbe.inp
|  1> !uks pbe nori aug-pc-4 grid7 nofinalgrid verytightscf
|  2> 
|  3> %maxcore 1500
|  4> 
|  5> %pal nprocs 4 end
|  6> 
|  7> %scf
|  8> 	maxiter 200
|  9> end
| 10> %elprop
| 11> 	dipole true
| 12> 	 polar 1
| 13> 	 maxiter 200
| 14> end
| 15> 
| 16> * xyz 0 1
| 17> Cl 0.0000 0.0000 1.6290
| 18> C 0.0000 0.0000 0.0000
| 19> N 0.0000 0.0000 -1.1606
| 20> *
| 21> 
| 22>                          ****END OF INPUT****
================================================================================

                       ****************************
                       * Single Point Calculation *
                       ****************************

---------------------------------
CARTESIAN COORDINATES (ANGSTROEM)
---------------------------------
  Cl     0.000000    0.000000    1.629000
  C      0.000000    0.000000    0.000000
  N      0.000000    0.000000   -1.160600

----------------------------
CARTESIAN COORDINATES (A.U.)
----------------------------
  NO LB      ZA    FRAG     MASS         X           Y           Z
   0 Cl   17.0000    0    35.453    0.000000    0.000000    3.078364
   1 C     6.0000    0    12.011    0.000000    0.000000    0.000000
   2 N     7.0000    0    14.007    0.000000    0.000000   -2.193216

--------------------------------
INTERNAL COORDINATES (ANGSTROEM)
--------------------------------
 Cl     0   0   0     0.000000000000     0.00000000     0.00000000
 C      1   0   0     1.629000000000     0.00000000     0.00000000
 N      2   1   0     1.160600000000   179.99999915     0.00000000

---------------------------
INTERNAL COORDINATES (A.U.)
---------------------------
 Cl     0   0   0     0.000000000000     0.00000000     0.00000000
 C      1   0   0     3.078363872158     0.00000000     0.00000000
 N      2   1   0     2.193216151029   179.99999915     0.00000000

---------------------
BASIS SET INFORMATION
---------------------
There are 3 groups of distinct atoms

 Group   1 Type Cl  : 44s27p7d4f3g2h contracted to 8s7p7d4f3g2h pattern {15121211111/111111111/1111111/1111/111/11}
 Group   2 Type C   : 28s12p7d4f3g2h contracted to 9s8p7d4f3g2h pattern {11101111111/51111111/1111111/1111/111/11}
 Group   3 Type N   : 27s12p7d4f3g2h contracted to 9s8p7d4f3g2h pattern {1191111111/51111111/1111111/1111/111/11}

Atom   0Cl   basis set group =>   1
Atom   1C    basis set group =>   2
Atom   2N    basis set group =>   3


           ************************************************************
           *        Program running with 4 parallel MPI-processes     *
           *              working on a common directory               *
           ************************************************************
------------------------------------------------------------------------------
                           ORCA GTO INTEGRAL CALCULATION
------------------------------------------------------------------------------

                         BASIS SET STATISTICS AND STARTUP INFO

 # of primitive gaussian shells          ...  198
 # of primitive gaussian functions       ...  588
 # of contracted shells                  ...   97
 # of contracted basis functions         ...  431
 Highest angular momentum                ...    5
 Maximum contraction depth               ...   15
 Integral package used                   ... LIBINT
 Integral threshhold            Thresh   ...  1.000e-12
 Primitive cut-off              TCut     ...  1.000e-14


------------------------------ INTEGRAL EVALUATION ----------------------------


 * One electron integrals 
 Pre-screening matrix                    ... done
 Shell pair data                         ... done (   0.002 sec)



           ************************************************************
           *        Program running with 4 parallel MPI-processes     *
           *              working on a common directory               *
           ************************************************************
-------------------------------------------------------------------------------
                                 ORCA SCF
-------------------------------------------------------------------------------

------------
SCF SETTINGS
------------
Hamiltonian:
 Density Functional     Method          .... DFT(GTOs)
 Exchange Functional    Exchange        .... PBE
   PBE kappa parameter   XKappa         ....  0.804000
   PBE mue parameter    XMuePBE         ....  0.219520
 Correlation Functional Correlation     .... PBE
   PBE beta parameter  CBetaPBE         ....  0.066725
 LDA part of GGA corr.  LDAOpt          .... PW91-LDA
 Gradients option       PostSCFGGA      .... off
   Density functional embedding theory  .... OFF
   NL short-range parameter             ....  6.400000


General Settings:
 Integral files         IntName         .... clcn_pbe
 Hartree-Fock type      HFTyp           .... UHF
 Total Charge           Charge          ....    0
 Multiplicity           Mult            ....    1
 Number of Electrons    NEL             ....   30
 Basis Dimension        Dim             ....  431
 Nuclear Repulsion      ENuc            ....     74.8583209670 Eh

Convergence Acceleration:
 DIIS                   CNVDIIS         .... on
   Start iteration      DIISMaxIt       ....    12
   Startup error        DIISStart       ....  0.200000
   # of expansion vecs  DIISMaxEq       ....     5
   Bias factor          DIISBfac        ....   1.050
   Max. coefficient     DIISMaxC        ....  10.000
 Newton-Raphson         CNVNR           .... off
 SOSCF                  CNVSOSCF        .... off
 Level Shifting         CNVShift        .... on
   Level shift para.    LevelShift      ....    0.2500
   Turn off err/grad.   ShiftErr        ....    0.0010
 Zerner damping         CNVZerner       .... off
 Static damping         CNVDamp         .... on
   Fraction old density DampFac         ....    0.7000
   Max. Damping (<1)    DampMax         ....    0.9800
   Min. Damping (>=0)   DampMin         ....    0.0000
   Turn off err/grad.   DampErr         ....    0.1000
 Fernandez-Rico         CNVRico         .... off

SCF Procedure:
 Maximum # iterations   MaxIter         ....   200
 SCF integral mode      SCFMode         .... Direct
   Integral package                     .... LIBINT
 Reset frequency        DirectResetFreq ....    20
 Integral Threshold     Thresh          ....  1.000e-12 Eh
 Primitive CutOff       TCut            ....  1.000e-14 Eh

Convergence Tolerance:
 Convergence Check Mode ConvCheckMode   .... Total+1el-Energy
 Convergence forced     ConvForced      .... 0
 Energy Change          TolE            ....  1.000e-09 Eh
 1-El. energy change                    ....  1.000e-06 Eh
 DIIS Error             TolErr          ....  1.000e-08


Diagonalization of the overlap matrix:
Smallest eigenvalue                        ... 3.682e-07
Time for diagonalization                   ...    0.037 sec
Threshold for overlap eigenvalues          ... 1.000e-08
Number of eigenvalues below threshold      ... 0
Time for construction of square roots      ...    0.030 sec
Total time needed                          ...    0.068 sec

-------------------
DFT GRID GENERATION
-------------------

General Integration Accuracy     IntAcc      ...  5.670
Radial Grid Type                 RadialGrid  ... Gauss-Chebyshev
Angular Grid (max. acc.)         AngularGrid ... Lebedev-770
Angular grid pruning method      GridPruning ... 3 (G Style)
Weight generation scheme         WeightScheme... Becke
Basis function cutoff            BFCut       ...    1.0000e-12
Integration weight cutoff        WCut        ...    1.0000e-14
Grids for H and He will be reduced by one unit

# of grid points (after initial pruning)     ...  77416 (   0.0 sec)
# of grid points (after weights+screening)   ...  76587 (   0.0 sec)
nearest neighbour list constructed           ...    0.0 sec
Grid point re-assignment to atoms done       ...    0.0 sec
Grid point division into batches done        ...    1.7 sec
Reduced shell lists constructed in    2.0 sec

Total number of grid points                  ...    76587
Total number of batches                      ...     1198
Average number of points per batch           ...       63
Average number of grid points per atom       ...    25529
Average number of shells per batch           ...    56.04 (57.77%)
Average number of basis functions per batch  ...   255.94 (59.38%)
Average number of large shells per batch     ...    47.38 (84.55%)
Average number of large basis fcns per batch ...   217.19 (84.86%)
Maximum spatial batch extension              ...  14.27, 14.27, 12.76 au
Average spatial batch extension              ...   0.94,  0.93,  0.86 au

Time for grid setup =    2.031 sec

------------------------------
INITIAL GUESS: MODEL POTENTIAL
------------------------------
Loading Hartree-Fock densities                     ... done
Calculating cut-offs                               ... done
Setting up the integral package                    ... done
Initializing the effective Hamiltonian             ... done
Starting the Coulomb interaction                   ... done (   0.0 sec)
Reading the grid                                   ... done
Mapping shells                                     ... done
Starting the XC term evaluation                    ... done (   1.5 sec)
  promolecular density results
     # of electrons  =     30.000000157
     EX              =    -38.969434928
     EC              =     -1.083884221
     EX+EC           =    -40.053319149
Transforming the Hamiltonian                       ... done (   0.0 sec)
Diagonalizing the Hamiltonian                      ... done (   0.0 sec)
Back transforming the eigenvectors                 ... done (   0.0 sec)
Now organizing SCF variables                       ... done
                      ------------------
                      INITIAL GUESS DONE (   3.7 sec)
                      ------------------
--------------
SCF ITERATIONS
--------------
ITER       Energy         Delta-E        Max-DP      RMS-DP      [F,P]     Damp
               ***  Starting incremental Fock matrix formation  ***
  0   -552.6420474072   0.000000000000 0.01829411  0.00025203  0.3094579 0.7000
  1   -552.7337588299  -0.091711422712 0.01031792  0.00012300  0.0593352 0.7000
                               ***Turning on DIIS***
  2   -552.7424678347  -0.008709004839 0.02974822  0.00020822  0.0635837 0.0000
  3   -552.7922404791  -0.049772644400 0.02318709  0.00013071  0.0464944 0.0000
  4   -552.7957028722  -0.003462393047 0.01041516  0.00005841  0.0415039 0.0000
  5   -552.7979066222  -0.002203750010 0.00364001  0.00002371  0.0151662 0.0000
  6   -552.7982827840  -0.000376161859 0.00093923  0.00000823  0.0042131 0.0000
  7   -552.7983150227  -0.000032238698 0.00045508  0.00000282  0.0012302 0.0000
  8   -552.7983192014  -0.000004178630 0.00024761  0.00000144  0.0005295 0.0000
  9   -552.7983198491  -0.000000647742 0.00006323  0.00000034  0.0000829 0.0000
 10   -552.7983198646  -0.000000015447 0.00001453  0.00000011  0.0000295 0.0000
 11   -552.7983198656  -0.000000001012 0.00003149  0.00000019  0.0000204 0.0000
 12   -552.7983198662  -0.000000000664 0.00005752  0.00000034  0.0000037 0.0000
 13   -552.7983198663  -0.000000000027 0.00008761  0.00000045  0.0000007 0.0000
 14   -552.7983198663  -0.000000000011 0.00021714  0.00000167  0.0000001 0.0000
 15   -552.7983198663   0.000000000010 0.00010946  0.00000067  0.0000000 0.0000
                 **** Energy Check signals convergence ****

               *****************************************************
               *                     SUCCESS                       *
               *           SCF CONVERGED AFTER  16 CYCLES          *
               *****************************************************


----------------
TOTAL SCF ENERGY
----------------

Total Energy       :         -552.79831987 Eh          -15042.40702 eV

Components:
Nuclear Repulsion  :           74.85832097 Eh            2036.99847 eV
Electronic Energy  :         -627.65664083 Eh          -17079.40550 eV
One Electron Energy:         -908.30366218 Eh          -24716.19920 eV
Two Electron Energy:          280.64702135 Eh            7636.79370 eV

Virial components:
Potential Energy   :        -1104.89440168 Eh          -30065.70518 eV
Kinetic Energy     :          552.09608181 Eh           15023.29816 eV
Virial Ratio       :            2.00127195


DFT components:
N(Alpha)           :       15.000000128438 electrons
N(Beta)            :       15.000000128438 electrons
N(Total)           :       30.000000256877 electrons
E(X)               :      -39.116143012952 Eh       
E(C)               :       -1.087170973704 Eh       
E(XC)              :      -40.203313986656 Eh       
DFET-embed. en.    :        0.000000000000 Eh       

---------------
SCF CONVERGENCE
---------------

  Last Energy change         ...   -1.1937e-11  Tolerance :   1.0000e-09
  Last MAX-Density change    ...    6.7265e-05  Tolerance :   1.0000e-08
  Last RMS-Density change    ...    5.3459e-07  Tolerance :   1.0000e-09
  Last DIIS Error            ...    6.1950e-09  Tolerance :   1.0000e-08

             **** THE GBW FILE WAS UPDATED (clcn_pbe.gbw) ****
             **** DENSITY FILE WAS UPDATED (clcn_pbe.scfp.tmp) ****
             **** ENERGY FILE WAS UPDATED (clcn_pbe.en.tmp) ****
----------------------
UHF SPIN CONTAMINATION
----------------------

Warning: in a DFT calculation there is little theoretical justification to 
         calculate <S**2> as in Hartree-Fock theory. We will do it anyways
         but you should keep in mind that the values have only limited relevance

Expectation value of <S**2>     :     0.000000
Ideal value S*(S+1) for S=0.0   :     0.000000
Deviation                       :     0.000000

----------------
ORBITAL ENERGIES
----------------
                 SPIN UP ORBITALS
  NO   OCC          E(Eh)            E(eV) 
   0   1.0000    -100.739698     -2741.2666 
   1   1.0000     -14.010423      -381.2430 
   2   1.0000      -9.984482      -271.6916 
   3   1.0000      -9.262199      -252.0372 
   4   1.0000      -7.085871      -192.8164 
   5   1.0000      -7.074378      -192.5036 
   6   1.0000      -7.074378      -192.5036 
   7   1.0000      -0.888211       -24.1695 
   8   1.0000      -0.831390       -22.6233 
   9   1.0000      -0.535935       -14.5835 
  10   1.0000      -0.402029       -10.9398 
  11   1.0000      -0.402029       -10.9398 
  12   1.0000      -0.341609        -9.2956 
  13   1.0000      -0.303413        -8.2563 
  14   1.0000      -0.303413        -8.2563 
  15   0.0000      -0.063591        -1.7304 
  16   0.0000      -0.038390        -1.0446 
  17   0.0000      -0.038390        -1.0446 
  18   0.0000      -0.012811        -0.3486 
  19   0.0000       0.012637         0.3439 
  20   0.0000       0.014358         0.3907 
  21   0.0000       0.014358         0.3907 
  22   0.0000       0.035843         0.9753 
  23   0.0000       0.044069         1.1992 
  24   0.0000       0.044069         1.1992 
  25   0.0000       0.059699         1.6245 
  26   0.0000       0.062894         1.7114 
  27   0.0000       0.062894         1.7114 
  28   0.0000       0.066397         1.8067 
  29   0.0000       0.066397         1.8067 
  30   0.0000       0.071365         1.9419 
  31   0.0000       0.076335         2.0772 
  32   0.0000       0.096870         2.6360 
  33   0.0000       0.096870         2.6360 
  34   0.0000       0.112379         3.0580 
  35   0.0000       0.133458         3.6316 
  36   0.0000       0.133458         3.6316 
  37   0.0000       0.134600         3.6627 
  38   0.0000       0.134600         3.6627 
  39   0.0000       0.154000         4.1905 
  40   0.0000       0.167700         4.5634 
  41   0.0000       0.167700         4.5634 
  42   0.0000       0.183232         4.9860 
  43   0.0000       0.183232         4.9860 
  44   0.0000       0.184279         5.0145 
  45   0.0000       0.184279         5.0145 
  46   0.0000       0.190736         5.1902 
  47   0.0000       0.196815         5.3556 
  48   0.0000       0.196815         5.3556 
  49   0.0000       0.198494         5.4013 
  50   0.0000       0.212070         5.7707 
  51   0.0000       0.236969         6.4482 
  52   0.0000       0.236969         6.4482 
  53   0.0000       0.248454         6.7608 
  54   0.0000       0.248454         6.7608 
  55   0.0000       0.265923         7.2361 
  56   0.0000       0.275251         7.4900 
  57   0.0000       0.286077         7.7845 
  58   0.0000       0.286077         7.7846 
  59   0.0000       0.288983         7.8636 
  60   0.0000       0.288983         7.8636 
  61   0.0000       0.304826         8.2947 
  62   0.0000       0.304826         8.2947 
  63   0.0000       0.315540         8.5863 
  64   0.0000       0.318790         8.6747 
  65   0.0000       0.318790         8.6747 
  66   0.0000       0.327910         8.9229 
  67   0.0000       0.327910         8.9229 
  68   0.0000       0.342324         9.3151 
  69   0.0000       0.342324         9.3151 
  70   0.0000       0.347463         9.4550 
  71   0.0000       0.347464         9.4550 
  72   0.0000       0.381031        10.3684 
  73   0.0000       0.399121        10.8606 
  74   0.0000       0.399121        10.8606 
  75   0.0000       0.415180        11.2976 
  76   0.0000       0.415180        11.2976 
  77   0.0000       0.416183        11.3249 
  78   0.0000       0.435017        11.8374 
  79   0.0000       0.435017        11.8374 
  80   0.0000       0.451349        12.2818 
  81   0.0000       0.451349        12.2818 
  82   0.0000       0.451898        12.2968 
  83   0.0000       0.481240        13.0952 
  84   0.0000       0.481240        13.0952 
  85   0.0000       0.485732        13.2174 
  86   0.0000       0.485732        13.2174 
  87   0.0000       0.495096        13.4722 
  88   0.0000       0.495096        13.4722 
  89   0.0000       0.496449        13.5091 
  90   0.0000       0.499502        13.5921 
  91   0.0000       0.500223        13.6118 
  92   0.0000       0.500223        13.6118 
  93   0.0000       0.522260        14.2114 
  94   0.0000       0.522260        14.2114 
  95   0.0000       0.527818        14.3626 
  96   0.0000       0.527818        14.3626 
  97   0.0000       0.558329        15.1929 
  98   0.0000       0.558329        15.1929 
  99   0.0000       0.562397        15.3036 
 100   0.0000       0.568866        15.4796 
 101   0.0000       0.568867        15.4796 
 102   0.0000       0.584419        15.9029 
 103   0.0000       0.594280        16.1712 
 104   0.0000       0.594280        16.1712 
 105   0.0000       0.598137        16.2761 
 106   0.0000       0.598137        16.2761 
 107   0.0000       0.604523        16.4499 
 108   0.0000       0.651505        17.7284 
 109   0.0000       0.651506        17.7284 
 110   0.0000       0.673371        18.3234 
 111   0.0000       0.673371        18.3234 
 112   0.0000       0.675538        18.3823 
 113   0.0000       0.675538        18.3823 
 114   0.0000       0.698082        18.9958 
 115   0.0000       0.720056        19.5937 
 116   0.0000       0.720056        19.5937 
 117   0.0000       0.746392        20.3103 
 118   0.0000       0.746392        20.3103 
 119   0.0000       0.752604        20.4794 
 120   0.0000       0.752604        20.4794 
 121   0.0000       0.759201        20.6589 
 122   0.0000       0.784583        21.3496 
 123   0.0000       0.786408        21.3993 
 124   0.0000       0.786408        21.3993 
 125   0.0000       0.791112        21.5272 
 126   0.0000       0.791112        21.5273 
 127   0.0000       0.808387        21.9973 
 128   0.0000       0.808387        21.9973 
 129   0.0000       0.830669        22.6036 
 130   0.0000       0.830669        22.6036 
 131   0.0000       0.835084        22.7238 
 132   0.0000       0.835084        22.7238 
 133   0.0000       0.866643        23.5826 
 134   0.0000       0.880535        23.9606 
 135   0.0000       0.880535        23.9606 
 136   0.0000       0.891801        24.2671 
 137   0.0000       0.891801        24.2671 
 138   0.0000       0.903819        24.5942 
 139   0.0000       0.903819        24.5942 
 140   0.0000       0.907843        24.7037 
 141   0.0000       0.941760        25.6266 
 142   0.0000       0.941760        25.6266 
 143   0.0000       0.972949        26.4753 
 144   0.0000       0.972949        26.4753 
 145   0.0000       0.973228        26.4829 
 146   0.0000       0.978498        26.6263 
 147   0.0000       0.978498        26.6263 
 148   0.0000       0.979821        26.6623 
 149   0.0000       0.979821        26.6623 
 150   0.0000       0.992740        27.0138 
 151   0.0000       0.992740        27.0138 
 152   0.0000       1.014664        27.6104 
 153   0.0000       1.054821        28.7031 
 154   0.0000       1.055479        28.7210 
 155   0.0000       1.055479        28.7210 
 156   0.0000       1.080085        29.3906 
 157   0.0000       1.080086        29.3906 
 158   0.0000       1.085776        29.5455 
 159   0.0000       1.085776        29.5455 
 160   0.0000       1.106378        30.1061 
 161   0.0000       1.110818        30.2269 
 162   0.0000       1.110819        30.2269 
 163   0.0000       1.123275        30.5659 
 164   0.0000       1.123275        30.5659 
 165   0.0000       1.181012        32.1370 
 166   0.0000       1.181012        32.1370 
 167   0.0000       1.181043        32.1378 
 168   0.0000       1.210646        32.9433 
 169   0.0000       1.210646        32.9433 
 170   0.0000       1.223542        33.2943 
 171   0.0000       1.245320        33.8869 
 172   0.0000       1.245320        33.8869 
 173   0.0000       1.332843        36.2685 
 174   0.0000       1.332843        36.2685 
 175   0.0000       1.352824        36.8122 
 176   0.0000       1.352824        36.8122 
 177   0.0000       1.372456        37.3464 
 178   0.0000       1.421264        38.6746 
 179   0.0000       1.421264        38.6746 
 180   0.0000       1.483921        40.3795 
 181   0.0000       1.528360        41.5888 
 182   0.0000       1.538062        41.8528 
 183   0.0000       1.538062        41.8528 
 184   0.0000       1.654180        45.0125 
 185   0.0000       1.654180        45.0125 
 186   0.0000       1.710593        46.5476 
 187   0.0000       1.710593        46.5476 
 188   0.0000       1.728119        47.0245 
 189   0.0000       1.859745        50.6062 
 190   0.0000       1.868629        50.8480 
 191   0.0000       1.868630        50.8480 
 192   0.0000       1.872123        50.9430 
 193   0.0000       1.872123        50.9430 
 194   0.0000       1.899481        51.6875 
 195   0.0000       1.899481        51.6875 
 196   0.0000       1.933164        52.6041 
 197   0.0000       1.933164        52.6041 
 198   0.0000       1.934925        52.6520 
 199   0.0000       2.033832        55.3434 
 200   0.0000       2.033832        55.3434 
 201   0.0000       2.150519        58.5186 
 202   0.0000       2.173284        59.1381 
 203   0.0000       2.173284        59.1381 
 204   0.0000       2.195606        59.7455 
 205   0.0000       2.195606        59.7455 
 206   0.0000       2.204151        59.9780 
 207   0.0000       2.306068        62.7513 
 208   0.0000       2.306069        62.7513 
 209   0.0000       2.379171        64.7405 
 210   0.0000       2.379171        64.7405 
 211   0.0000       2.410412        65.5906 
 212   0.0000       2.410412        65.5906 
 213   0.0000       2.439643        66.3861 
 214   0.0000       2.465442        67.0881 
 215   0.0000       2.508922        68.2712 
 216   0.0000       2.508922        68.2713 
 217   0.0000       2.694623        73.3244 
 218   0.0000       2.723841        74.1195 
 219   0.0000       2.723841        74.1195 
 220   0.0000       2.838709        77.2452 
 221   0.0000       2.838709        77.2452 
 222   0.0000       2.853216        77.6400 
 223   0.0000       2.853216        77.6400 
 224   0.0000       2.921896        79.5088 
 225   0.0000       3.092415        84.1489 
 226   0.0000       3.092415        84.1489 
 227   0.0000       3.129255        85.1514 
 228   0.0000       3.129255        85.1514 
 229   0.0000       3.230005        87.8929 
 230   0.0000       3.245653        88.3187 
 231   0.0000       3.245653        88.3187 
 232   0.0000       3.450696        93.8982 
 233   0.0000       3.473932        94.5305 
 234   0.0000       3.473932        94.5305 
 235   0.0000       3.495720        95.1234 
 236   0.0000       3.495720        95.1234 
 237   0.0000       3.685057       100.2755 
 238   0.0000       3.685057       100.2755 
 239   0.0000       3.769403       102.5707 
 240   0.0000       3.869147       105.2849 
 241   0.0000       3.869147       105.2849 
 242   0.0000       3.988528       108.5334 
 243   0.0000       4.008824       109.0856 
 244   0.0000       4.008824       109.0856 
 245   0.0000       4.012367       109.1821 
 246   0.0000       4.046186       110.1023 
 247   0.0000       4.046186       110.1023 
 248   0.0000       4.073802       110.8538 
 249   0.0000       4.073802       110.8538 
 250   0.0000       4.083929       111.1294 
 251   0.0000       4.083929       111.1294 
 252   0.0000       4.187063       113.9358 
 253   0.0000       4.193476       114.1103 
 254   0.0000       4.193476       114.1103 
 255   0.0000       4.321645       117.5979 
 256   0.0000       4.321645       117.5979 
 257   0.0000       4.591283       124.9352 
 258   0.0000       4.606418       125.3470 
 259   0.0000       4.606418       125.3470 
 260   0.0000       4.669497       127.0635 
 261   0.0000       4.669497       127.0635 
 262   0.0000       4.679845       127.3451 
 263   0.0000       4.702544       127.9627 
 264   0.0000       4.702544       127.9627 
 265   0.0000       4.753638       129.3531 
 266   0.0000       4.753638       129.3531 
 267   0.0000       4.866186       132.4157 
 268   0.0000       4.866186       132.4157 
 269   0.0000       4.881884       132.8428 
 270   0.0000       4.977639       135.4484 
 271   0.0000       4.977639       135.4484 
 272   0.0000       5.045213       137.2872 
 273   0.0000       5.045213       137.2872 
 274   0.0000       5.103786       138.8811 
 275   0.0000       5.419480       147.4716 
 276   0.0000       5.419480       147.4716 
 277   0.0000       5.455254       148.4450 
 278   0.0000       5.455254       148.4450 
 279   0.0000       5.562938       151.3752 
 280   0.0000       5.562938       151.3752 
 281   0.0000       5.584349       151.9579 
 282   0.0000       5.618002       152.8736 
 283   0.0000       5.618002       152.8736 
 284   0.0000       5.618064       152.8753 
 285   0.0000       5.618064       152.8753 
 286   0.0000       5.837770       158.8538 
 287   0.0000       5.837771       158.8538 
 288   0.0000       5.908404       160.7759 
 289   0.0000       5.908404       160.7759 
 290   0.0000       5.984635       162.8502 
 291   0.0000       5.984635       162.8502 
 292   0.0000       6.087250       165.6425 
 293   0.0000       6.312248       171.7650 
 294   0.0000       6.312249       171.7650 
 295   0.0000       6.328253       172.2005 
 296   0.0000       6.354200       172.9066 
 297   0.0000       6.354200       172.9066 
 298   0.0000       6.405107       174.2918 
 299   0.0000       6.753787       183.7799 
 300   0.0000       6.753787       183.7799 
 301   0.0000       6.851007       186.4254 
 302   0.0000       6.851007       186.4254 
 303   0.0000       7.069460       192.3698 
 304   0.0000       7.069460       192.3698 
 305   0.0000       7.257719       197.4926 
 306   0.0000       7.509808       204.3523 
 307   0.0000       7.509808       204.3523 
 308   0.0000       7.645206       208.0366 
 309   0.0000       7.645206       208.0366 
 310   0.0000       7.722385       210.1368 
 311   0.0000       7.851966       213.6629 
 312   0.0000       8.477809       230.6929 
 313   0.0000       8.555238       232.7999 
 314   0.0000       8.644929       235.2405 
 315   0.0000       8.644929       235.2405 
 316   0.0000       9.043806       246.0945 
 317   0.0000       9.043806       246.0945 
 318   0.0000       9.068196       246.7582 
 319   0.0000       9.068196       246.7582 
 320   0.0000       9.328527       253.8421 
 321   0.0000       9.328527       253.8421 
 322   0.0000       9.351477       254.4666 
 323   0.0000       9.351478       254.4666 
 324   0.0000      10.001104       272.1439 
 325   0.0000      10.019393       272.6415 
 326   0.0000      10.060245       273.7532 
 327   0.0000      10.060245       273.7532 
 328   0.0000      10.196988       277.4741 
 329   0.0000      10.196988       277.4741 
 330   0.0000      10.320083       280.8237 
 331   0.0000      10.320083       280.8237 
 332   0.0000      10.455837       284.5178 
 333   0.0000      10.455837       284.5178 
 334   0.0000      10.462976       284.7120 
 335   0.0000      10.462976       284.7120 
 336   0.0000      10.506845       285.9058 
 337   0.0000      10.506845       285.9058 
 338   0.0000      10.705837       291.3206 
 339   0.0000      10.705837       291.3206 
 340   0.0000      10.921605       297.1920 
 341   0.0000      10.969979       298.5083 
 342   0.0000      11.148278       303.3601 
 343   0.0000      11.148278       303.3601 
 344   0.0000      11.197549       304.7008 
 345   0.0000      11.197549       304.7008 
 346   0.0000      11.398763       310.1761 
 347   0.0000      11.398763       310.1761 
 348   0.0000      11.549804       314.2861 
 349   0.0000      11.549804       314.2861 
 350   0.0000      11.571053       314.8644 
 351   0.0000      11.571053       314.8644 
 352   0.0000      11.666415       317.4593 
 353   0.0000      11.666416       317.4593 
 354   0.0000      11.785904       320.7107 
 355   0.0000      11.785904       320.7107 
 356   0.0000      11.840794       322.2044 
 357   0.0000      11.840794       322.2044 
 358   0.0000      11.885779       323.4285 
 359   0.0000      11.885779       323.4285 
 360   0.0000      12.204739       332.1078 
 361   0.0000      12.204739       332.1078 
 362   0.0000      12.389198       337.1272 
 363   0.0000      12.645385       344.0984 
 364   0.0000      12.645386       344.0984 
 365   0.0000      12.707442       345.7871 
 366   0.0000      12.707442       345.7871 
 367   0.0000      12.790439       348.0455 
 368   0.0000      12.790439       348.0455 
 369   0.0000      12.874432       350.3311 
 370   0.0000      12.898811       350.9945 
 371   0.0000      12.898813       350.9946 
 372   0.0000      13.077073       355.8452 
 373   0.0000      13.077073       355.8452 
 374   0.0000      13.565921       369.1475 
 375   0.0000      13.565921       369.1475 
 376   0.0000      13.861044       377.1782 
 377   0.0000      13.940963       379.3529 
 378   0.0000      13.940963       379.3529 
 379   0.0000      14.247906       387.7052 
 380   0.0000      14.269812       388.3013 
 381   0.0000      14.269812       388.3013 
 382   0.0000      14.539364       395.6362 
 383   0.0000      14.539364       395.6362 
 384   0.0000      15.164699       412.6524 
 385   0.0000      15.164699       412.6524 
 386   0.0000      15.168144       412.7462 
 387   0.0000      15.467022       420.8791 
 388   0.0000      15.467022       420.8791 
 389   0.0000      15.916844       433.1193 
 390   0.0000      15.916844       433.1193 
 391   0.0000      15.919798       433.1997 
 392   0.0000      16.762072       456.1192 
 393   0.0000      16.952240       461.2939 
 394   0.0000      16.952240       461.2939 
 395   0.0000      16.993467       462.4157 
 396   0.0000      16.993467       462.4157 
 397   0.0000      17.630724       479.7564 
 398   0.0000      17.630725       479.7564 
 399   0.0000      17.739836       482.7255 
 400   0.0000      17.739836       482.7255 
 401   0.0000      17.917915       487.5713 
 402   0.0000      18.143338       493.7053 
 403   0.0000      18.143338       493.7053 
 404   0.0000      18.905703       514.4503 
 405   0.0000      19.524544       531.2898 
 406   0.0000      19.524544       531.2898 
 407   0.0000      19.591056       533.0997 
 408   0.0000      22.293256       606.6303 
 409   0.0000      24.324940       661.9153 
 410   0.0000      26.340196       716.7532 
 411   0.0000      26.340196       716.7532 
 412   0.0000      28.299318       770.0636 
 413   0.0000      31.899493       868.0293 
 414   0.0000      31.899497       868.0294 
 415   0.0000      33.008675       898.2117 
 416   0.0000      33.008675       898.2117 
 417   0.0000      34.803013       947.0381 
 418   0.0000      41.805467      1137.5846 
 419   0.0000      47.712317      1298.3182 
 420   0.0000      47.712322      1298.3183 
 421   0.0000      48.104567      1308.9918 
 422   0.0000      48.104567      1308.9918 
 423   0.0000      49.024851      1334.0340 
 424   0.0000      65.775037      1789.8297 
 425   0.0000      65.775039      1789.8298 
 426   0.0000      65.925659      1793.9284 
 427   0.0000      65.925659      1793.9284 
 428   0.0000      66.416374      1807.2814 
 429   0.0000      75.803718      2062.7240 
 430   0.0000     105.018324      2857.6939 

                 SPIN DOWN ORBITALS
  NO   OCC          E(Eh)            E(eV) 
   0   1.0000    -100.739698     -2741.2666 
   1   1.0000     -14.010423      -381.2430 
   2   1.0000      -9.984482      -271.6916 
   3   1.0000      -9.262199      -252.0372 
   4   1.0000      -7.085871      -192.8164 
   5   1.0000      -7.074378      -192.5036 
   6   1.0000      -7.074378      -192.5036 
   7   1.0000      -0.888211       -24.1695 
   8   1.0000      -0.831390       -22.6233 
   9   1.0000      -0.535935       -14.5835 
  10   1.0000      -0.402029       -10.9398 
  11   1.0000      -0.402029       -10.9398 
  12   1.0000      -0.341609        -9.2956 
  13   1.0000      -0.303413        -8.2563 
  14   1.0000      -0.303413        -8.2563 
  15   0.0000      -0.063591        -1.7304 
  16   0.0000      -0.038390        -1.0446 
  17   0.0000      -0.038390        -1.0446 
  18   0.0000      -0.012811        -0.3486 
  19   0.0000       0.012637         0.3439 
  20   0.0000       0.014358         0.3907 
  21   0.0000       0.014358         0.3907 
  22   0.0000       0.035843         0.9753 
  23   0.0000       0.044069         1.1992 
  24   0.0000       0.044069         1.1992 
  25   0.0000       0.059699         1.6245 
  26   0.0000       0.062894         1.7114 
  27   0.0000       0.062894         1.7114 
  28   0.0000       0.066397         1.8067 
  29   0.0000       0.066397         1.8067 
  30   0.0000       0.071365         1.9419 
  31   0.0000       0.076335         2.0772 
  32   0.0000       0.096870         2.6360 
  33   0.0000       0.096870         2.6360 
  34   0.0000       0.112379         3.0580 
  35   0.0000       0.133458         3.6316 
  36   0.0000       0.133458         3.6316 
  37   0.0000       0.134600         3.6627 
  38   0.0000       0.134600         3.6627 
  39   0.0000       0.154000         4.1905 
  40   0.0000       0.167700         4.5634 
  41   0.0000       0.167700         4.5634 
  42   0.0000       0.183232         4.9860 
  43   0.0000       0.183232         4.9860 
  44   0.0000       0.184279         5.0145 
  45   0.0000       0.184279         5.0145 
  46   0.0000       0.190736         5.1902 
  47   0.0000       0.196815         5.3556 
  48   0.0000       0.196815         5.3556 
  49   0.0000       0.198494         5.4013 
  50   0.0000       0.212070         5.7707 
  51   0.0000       0.236969         6.4482 
  52   0.0000       0.236969         6.4482 
  53   0.0000       0.248454         6.7608 
  54   0.0000       0.248454         6.7608 
  55   0.0000       0.265923         7.2361 
  56   0.0000       0.275251         7.4900 
  57   0.0000       0.286077         7.7845 
  58   0.0000       0.286077         7.7846 
  59   0.0000       0.288983         7.8636 
  60   0.0000       0.288983         7.8636 
  61   0.0000       0.304826         8.2947 
  62   0.0000       0.304826         8.2947 
  63   0.0000       0.315540         8.5863 
  64   0.0000       0.318790         8.6747 
  65   0.0000       0.318790         8.6747 
  66   0.0000       0.327910         8.9229 
  67   0.0000       0.327910         8.9229 
  68   0.0000       0.342324         9.3151 
  69   0.0000       0.342324         9.3151 
  70   0.0000       0.347463         9.4550 
  71   0.0000       0.347464         9.4550 
  72   0.0000       0.381031        10.3684 
  73   0.0000       0.399121        10.8606 
  74   0.0000       0.399121        10.8606 
  75   0.0000       0.415180        11.2976 
  76   0.0000       0.415180        11.2976 
  77   0.0000       0.416183        11.3249 
  78   0.0000       0.435017        11.8374 
  79   0.0000       0.435017        11.8374 
  80   0.0000       0.451349        12.2818 
  81   0.0000       0.451349        12.2818 
  82   0.0000       0.451898        12.2968 
  83   0.0000       0.481240        13.0952 
  84   0.0000       0.481240        13.0952 
  85   0.0000       0.485732        13.2174 
  86   0.0000       0.485732        13.2174 
  87   0.0000       0.495096        13.4722 
  88   0.0000       0.495096        13.4722 
  89   0.0000       0.496449        13.5091 
  90   0.0000       0.499502        13.5921 
  91   0.0000       0.500223        13.6118 
  92   0.0000       0.500223        13.6118 
  93   0.0000       0.522260        14.2114 
  94   0.0000       0.522260        14.2114 
  95   0.0000       0.527818        14.3626 
  96   0.0000       0.527818        14.3626 
  97   0.0000       0.558329        15.1929 
  98   0.0000       0.558329        15.1929 
  99   0.0000       0.562397        15.3036 
 100   0.0000       0.568866        15.4796 
 101   0.0000       0.568867        15.4796 
 102   0.0000       0.584419        15.9029 
 103   0.0000       0.594280        16.1712 
 104   0.0000       0.594280        16.1712 
 105   0.0000       0.598137        16.2761 
 106   0.0000       0.598137        16.2761 
 107   0.0000       0.604523        16.4499 
 108   0.0000       0.651505        17.7284 
 109   0.0000       0.651506        17.7284 
 110   0.0000       0.673371        18.3234 
 111   0.0000       0.673371        18.3234 
 112   0.0000       0.675538        18.3823 
 113   0.0000       0.675538        18.3823 
 114   0.0000       0.698082        18.9958 
 115   0.0000       0.720056        19.5937 
 116   0.0000       0.720056        19.5937 
 117   0.0000       0.746392        20.3103 
 118   0.0000       0.746392        20.3103 
 119   0.0000       0.752604        20.4794 
 120   0.0000       0.752604        20.4794 
 121   0.0000       0.759201        20.6589 
 122   0.0000       0.784583        21.3496 
 123   0.0000       0.786408        21.3993 
 124   0.0000       0.786408        21.3993 
 125   0.0000       0.791112        21.5272 
 126   0.0000       0.791112        21.5273 
 127   0.0000       0.808387        21.9973 
 128   0.0000       0.808387        21.9973 
 129   0.0000       0.830669        22.6036 
 130   0.0000       0.830669        22.6036 
 131   0.0000       0.835084        22.7238 
 132   0.0000       0.835084        22.7238 
 133   0.0000       0.866643        23.5826 
 134   0.0000       0.880535        23.9606 
 135   0.0000       0.880535        23.9606 
 136   0.0000       0.891801        24.2671 
 137   0.0000       0.891801        24.2671 
 138   0.0000       0.903819        24.5942 
 139   0.0000       0.903819        24.5942 
 140   0.0000       0.907843        24.7037 
 141   0.0000       0.941760        25.6266 
 142   0.0000       0.941760        25.6266 
 143   0.0000       0.972949        26.4753 
 144   0.0000       0.972949        26.4753 
 145   0.0000       0.973228        26.4829 
 146   0.0000       0.978498        26.6263 
 147   0.0000       0.978498        26.6263 
 148   0.0000       0.979821        26.6623 
 149   0.0000       0.979821        26.6623 
 150   0.0000       0.992740        27.0138 
 151   0.0000       0.992740        27.0138 
 152   0.0000       1.014664        27.6104 
 153   0.0000       1.054821        28.7031 
 154   0.0000       1.055479        28.7210 
 155   0.0000       1.055479        28.7210 
 156   0.0000       1.080085        29.3906 
 157   0.0000       1.080086        29.3906 
 158   0.0000       1.085776        29.5455 
 159   0.0000       1.085776        29.5455 
 160   0.0000       1.106378        30.1061 
 161   0.0000       1.110818        30.2269 
 162   0.0000       1.110819        30.2269 
 163   0.0000       1.123275        30.5659 
 164   0.0000       1.123275        30.5659 
 165   0.0000       1.181012        32.1370 
 166   0.0000       1.181012        32.1370 
 167   0.0000       1.181043        32.1378 
 168   0.0000       1.210646        32.9433 
 169   0.0000       1.210646        32.9433 
 170   0.0000       1.223542        33.2943 
 171   0.0000       1.245320        33.8869 
 172   0.0000       1.245320        33.8869 
 173   0.0000       1.332843        36.2685 
 174   0.0000       1.332843        36.2685 
 175   0.0000       1.352824        36.8122 
 176   0.0000       1.352824        36.8122 
 177   0.0000       1.372456        37.3464 
 178   0.0000       1.421264        38.6746 
 179   0.0000       1.421264        38.6746 
 180   0.0000       1.483921        40.3795 
 181   0.0000       1.528360        41.5888 
 182   0.0000       1.538062        41.8528 
 183   0.0000       1.538062        41.8528 
 184   0.0000       1.654180        45.0125 
 185   0.0000       1.654180        45.0125 
 186   0.0000       1.710593        46.5476 
 187   0.0000       1.710593        46.5476 
 188   0.0000       1.728119        47.0245 
 189   0.0000       1.859745        50.6062 
 190   0.0000       1.868629        50.8480 
 191   0.0000       1.868630        50.8480 
 192   0.0000       1.872123        50.9430 
 193   0.0000       1.872123        50.9430 
 194   0.0000       1.899481        51.6875 
 195   0.0000       1.899481        51.6875 
 196   0.0000       1.933164        52.6041 
 197   0.0000       1.933164        52.6041 
 198   0.0000       1.934925        52.6520 
 199   0.0000       2.033832        55.3434 
 200   0.0000       2.033832        55.3434 
 201   0.0000       2.150519        58.5186 
 202   0.0000       2.173284        59.1381 
 203   0.0000       2.173284        59.1381 
 204   0.0000       2.195606        59.7455 
 205   0.0000       2.195606        59.7455 
 206   0.0000       2.204151        59.9780 
 207   0.0000       2.306068        62.7513 
 208   0.0000       2.306069        62.7513 
 209   0.0000       2.379171        64.7405 
 210   0.0000       2.379171        64.7405 
 211   0.0000       2.410412        65.5906 
 212   0.0000       2.410412        65.5906 
 213   0.0000       2.439643        66.3861 
 214   0.0000       2.465442        67.0881 
 215   0.0000       2.508922        68.2712 
 216   0.0000       2.508922        68.2713 
 217   0.0000       2.694623        73.3244 
 218   0.0000       2.723841        74.1195 
 219   0.0000       2.723841        74.1195 
 220   0.0000       2.838709        77.2452 
 221   0.0000       2.838709        77.2452 
 222   0.0000       2.853216        77.6400 
 223   0.0000       2.853216        77.6400 
 224   0.0000       2.921896        79.5088 
 225   0.0000       3.092415        84.1489 
 226   0.0000       3.092415        84.1489 
 227   0.0000       3.129255        85.1514 
 228   0.0000       3.129255        85.1514 
 229   0.0000       3.230005        87.8929 
 230   0.0000       3.245653        88.3187 
 231   0.0000       3.245653        88.3187 
 232   0.0000       3.450696        93.8982 
 233   0.0000       3.473932        94.5305 
 234   0.0000       3.473932        94.5305 
 235   0.0000       3.495720        95.1234 
 236   0.0000       3.495720        95.1234 
 237   0.0000       3.685057       100.2755 
 238   0.0000       3.685057       100.2755 
 239   0.0000       3.769403       102.5707 
 240   0.0000       3.869147       105.2849 
 241   0.0000       3.869147       105.2849 
 242   0.0000       3.988528       108.5334 
 243   0.0000       4.008824       109.0856 
 244   0.0000       4.008824       109.0856 
 245   0.0000       4.012367       109.1821 
 246   0.0000       4.046186       110.1023 
 247   0.0000       4.046186       110.1023 
 248   0.0000       4.073802       110.8538 
 249   0.0000       4.073802       110.8538 
 250   0.0000       4.083929       111.1294 
 251   0.0000       4.083929       111.1294 
 252   0.0000       4.187063       113.9358 
 253   0.0000       4.193476       114.1103 
 254   0.0000       4.193476       114.1103 
 255   0.0000       4.321645       117.5979 
 256   0.0000       4.321645       117.5979 
 257   0.0000       4.591283       124.9352 
 258   0.0000       4.606418       125.3470 
 259   0.0000       4.606418       125.3470 
 260   0.0000       4.669497       127.0635 
 261   0.0000       4.669497       127.0635 
 262   0.0000       4.679845       127.3451 
 263   0.0000       4.702544       127.9627 
 264   0.0000       4.702544       127.9627 
 265   0.0000       4.753638       129.3531 
 266   0.0000       4.753638       129.3531 
 267   0.0000       4.866186       132.4157 
 268   0.0000       4.866186       132.4157 
 269   0.0000       4.881884       132.8428 
 270   0.0000       4.977639       135.4484 
 271   0.0000       4.977639       135.4484 
 272   0.0000       5.045213       137.2872 
 273   0.0000       5.045213       137.2872 
 274   0.0000       5.103786       138.8811 
 275   0.0000       5.419480       147.4716 
 276   0.0000       5.419480       147.4716 
 277   0.0000       5.455254       148.4450 
 278   0.0000       5.455254       148.4450 
 279   0.0000       5.562938       151.3752 
 280   0.0000       5.562938       151.3752 
 281   0.0000       5.584349       151.9579 
 282   0.0000       5.618002       152.8736 
 283   0.0000       5.618002       152.8736 
 284   0.0000       5.618064       152.8753 
 285   0.0000       5.618064       152.8753 
 286   0.0000       5.837770       158.8538 
 287   0.0000       5.837771       158.8538 
 288   0.0000       5.908404       160.7759 
 289   0.0000       5.908404       160.7759 
 290   0.0000       5.984635       162.8502 
 291   0.0000       5.984635       162.8502 
 292   0.0000       6.087250       165.6425 
 293   0.0000       6.312248       171.7650 
 294   0.0000       6.312249       171.7650 
 295   0.0000       6.328253       172.2005 
 296   0.0000       6.354200       172.9066 
 297   0.0000       6.354200       172.9066 
 298   0.0000       6.405107       174.2918 
 299   0.0000       6.753787       183.7799 
 300   0.0000       6.753787       183.7799 
 301   0.0000       6.851007       186.4254 
 302   0.0000       6.851007       186.4254 
 303   0.0000       7.069460       192.3698 
 304   0.0000       7.069460       192.3698 
 305   0.0000       7.257719       197.4926 
 306   0.0000       7.509808       204.3523 
 307   0.0000       7.509808       204.3523 
 308   0.0000       7.645206       208.0366 
 309   0.0000       7.645206       208.0366 
 310   0.0000       7.722385       210.1368 
 311   0.0000       7.851966       213.6629 
 312   0.0000       8.477809       230.6929 
 313   0.0000       8.555238       232.7999 
 314   0.0000       8.644929       235.2405 
 315   0.0000       8.644929       235.2405 
 316   0.0000       9.043806       246.0945 
 317   0.0000       9.043806       246.0945 
 318   0.0000       9.068196       246.7582 
 319   0.0000       9.068196       246.7582 
 320   0.0000       9.328527       253.8421 
 321   0.0000       9.328527       253.8421 
 322   0.0000       9.351477       254.4666 
 323   0.0000       9.351478       254.4666 
 324   0.0000      10.001104       272.1439 
 325   0.0000      10.019393       272.6415 
 326   0.0000      10.060245       273.7532 
 327   0.0000      10.060245       273.7532 
 328   0.0000      10.196988       277.4741 
 329   0.0000      10.196988       277.4741 
 330   0.0000      10.320083       280.8237 
 331   0.0000      10.320083       280.8237 
 332   0.0000      10.455837       284.5178 
 333   0.0000      10.455837       284.5178 
 334   0.0000      10.462976       284.7120 
 335   0.0000      10.462976       284.7120 
 336   0.0000      10.506845       285.9058 
 337   0.0000      10.506845       285.9058 
 338   0.0000      10.705837       291.3206 
 339   0.0000      10.705837       291.3206 
 340   0.0000      10.921605       297.1920 
 341   0.0000      10.969979       298.5083 
 342   0.0000      11.148278       303.3601 
 343   0.0000      11.148278       303.3601 
 344   0.0000      11.197549       304.7008 
 345   0.0000      11.197549       304.7008 
 346   0.0000      11.398763       310.1761 
 347   0.0000      11.398763       310.1761 
 348   0.0000      11.549804       314.2861 
 349   0.0000      11.549804       314.2861 
 350   0.0000      11.571053       314.8644 
 351   0.0000      11.571053       314.8644 
 352   0.0000      11.666415       317.4593 
 353   0.0000      11.666416       317.4593 
 354   0.0000      11.785904       320.7107 
 355   0.0000      11.785904       320.7107 
 356   0.0000      11.840794       322.2044 
 357   0.0000      11.840794       322.2044 
 358   0.0000      11.885779       323.4285 
 359   0.0000      11.885779       323.4285 
 360   0.0000      12.204739       332.1078 
 361   0.0000      12.204739       332.1078 
 362   0.0000      12.389198       337.1272 
 363   0.0000      12.645385       344.0984 
 364   0.0000      12.645386       344.0984 
 365   0.0000      12.707442       345.7871 
 366   0.0000      12.707442       345.7871 
 367   0.0000      12.790439       348.0455 
 368   0.0000      12.790439       348.0455 
 369   0.0000      12.874432       350.3311 
 370   0.0000      12.898811       350.9945 
 371   0.0000      12.898813       350.9946 
 372   0.0000      13.077073       355.8452 
 373   0.0000      13.077073       355.8452 
 374   0.0000      13.565921       369.1475 
 375   0.0000      13.565921       369.1475 
 376   0.0000      13.861044       377.1782 
 377   0.0000      13.940963       379.3529 
 378   0.0000      13.940963       379.3529 
 379   0.0000      14.247906       387.7052 
 380   0.0000      14.269812       388.3013 
 381   0.0000      14.269812       388.3013 
 382   0.0000      14.539364       395.6362 
 383   0.0000      14.539364       395.6362 
 384   0.0000      15.164699       412.6524 
 385   0.0000      15.164699       412.6524 
 386   0.0000      15.168144       412.7462 
 387   0.0000      15.467022       420.8791 
 388   0.0000      15.467022       420.8791 
 389   0.0000      15.916844       433.1193 
 390   0.0000      15.916844       433.1193 
 391   0.0000      15.919798       433.1997 
 392   0.0000      16.762072       456.1192 
 393   0.0000      16.952240       461.2939 
 394   0.0000      16.952240       461.2939 
 395   0.0000      16.993467       462.4157 
 396   0.0000      16.993467       462.4157 
 397   0.0000      17.630724       479.7564 
 398   0.0000      17.630725       479.7564 
 399   0.0000      17.739836       482.7255 
 400   0.0000      17.739836       482.7255 
 401   0.0000      17.917915       487.5713 
 402   0.0000      18.143338       493.7053 
 403   0.0000      18.143338       493.7053 
 404   0.0000      18.905703       514.4503 
 405   0.0000      19.524544       531.2898 
 406   0.0000      19.524544       531.2898 
 407   0.0000      19.591056       533.0997 
 408   0.0000      22.293256       606.6303 
 409   0.0000      24.324940       661.9153 
 410   0.0000      26.340196       716.7532 
 411   0.0000      26.340196       716.7532 
 412   0.0000      28.299318       770.0636 
 413   0.0000      31.899493       868.0293 
 414   0.0000      31.899497       868.0294 
 415   0.0000      33.008675       898.2117 
 416   0.0000      33.008675       898.2117 
 417   0.0000      34.803013       947.0381 
 418   0.0000      41.805467      1137.5846 
 419   0.0000      47.712317      1298.3182 
 420   0.0000      47.712322      1298.3183 
 421   0.0000      48.104567      1308.9918 
 422   0.0000      48.104567      1308.9918 
 423   0.0000      49.024851      1334.0340 
 424   0.0000      65.775037      1789.8297 
 425   0.0000      65.775039      1789.8298 
 426   0.0000      65.925659      1793.9284 
 427   0.0000      65.925659      1793.9284 
 428   0.0000      66.416374      1807.2814 
 429   0.0000      75.803718      2062.7240 
 430   0.0000     105.018324      2857.6939 

                    ********************************
                    * MULLIKEN POPULATION ANALYSIS *
                    ********************************

--------------------------------------------
MULLIKEN ATOMIC CHARGES AND SPIN POPULATIONS
--------------------------------------------
   0 Cl:   -0.144378    0.000000
   1 C :    0.093615   -0.000000
   2 N :    0.050763    0.000000
Sum of atomic charges         :    0.0000000
Sum of atomic spin populations:    0.0000000

-----------------------------------------------------
MULLIKEN REDUCED ORBITAL CHARGES AND SPIN POPULATIONS
-----------------------------------------------------
CHARGE
  0 Cls       :     6.045233  s :     6.045233
      pz      :     3.139996  p :    10.960666
      px      :     3.910335
      py      :     3.910335
      dz2     :     0.037932  d :     0.123950
      dxz     :     0.043009
      dyz     :     0.043009
      dx2y2   :     0.000000
      dxy     :     0.000000
      f0      :     0.002218  f :     0.015005
      f+1     :     0.006394
      f-1     :     0.006394
      f+2     :    -0.000000
      f-2     :    -0.000000
      f+3     :     0.000000
      f-3     :     0.000000
      g0      :    -0.000127  g :     0.000034
      g+1     :     0.000080
      g-1     :     0.000080
      g+2     :    -0.000000
      g-2     :    -0.000000
      g+3     :     0.000000
      g-3     :     0.000000
      g+4     :     0.000000
      g-4     :    -0.000000
      h0      :    -0.000063  h :    -0.000509
      h+1     :    -0.000223
      h-1     :    -0.000223
      h+2     :     0.000000
      h-2     :     0.000000
      h+3     :     0.000000
      h-3     :     0.000000
      h+4     :     0.000000
      h-4     :     0.000000
      h+5     :     0.000000
      h-5     :     0.000000
  1 C s       :     3.073694  s :     3.073694
      pz      :     0.870642  p :     2.681471
      px      :     0.905415
      py      :     0.905415
      dz2     :     0.008243  d :     0.125676
      dxz     :     0.058716
      dyz     :     0.058716
      dx2y2   :     0.000000
      dxy     :     0.000000
      f0      :     0.005532  f :     0.021125
      f+1     :     0.007797
      f-1     :     0.007797
      f+2     :     0.000000
      f-2     :    -0.000000
      f+3     :     0.000000
      f-3     :     0.000000
      g0      :     0.000640  g :     0.005177
      g+1     :     0.002269
      g-1     :     0.002269
      g+2     :     0.000000
      g-2     :     0.000000
      g+3     :     0.000000
      g-3     :     0.000000
      g+4     :     0.000000
      g-4     :     0.000000
      h0      :    -0.000142  h :    -0.000758
      h+1     :    -0.000308
      h-1     :    -0.000308
      h+2     :    -0.000000
      h-2     :    -0.000000
      h+3     :     0.000000
      h-3     :     0.000000
      h+4     :     0.000000
      h-4     :     0.000000
      h+5     :     0.000000
      h-5     :     0.000000
  2 N s       :     3.630075  s :     3.630075
      pz      :     1.175454  p :     3.248418
      px      :     1.036482
      py      :     1.036482
      dz2     :     0.012990  d :     0.055533
      dxz     :     0.021271
      dyz     :     0.021271
      dx2y2   :     0.000000
      dxy     :     0.000000
      f0      :    -0.001353  f :     0.012375
      f+1     :     0.006864
      f-1     :     0.006864
      f+2     :    -0.000000
      f-2     :    -0.000000
      f+3     :     0.000000
      f-3     :     0.000000
      g0      :    -0.000810  g :     0.002546
      g+1     :     0.001678
      g-1     :     0.001678
      g+2     :     0.000000
      g-2     :     0.000000
      g+3     :    -0.000000
      g-3     :    -0.000000
      g+4     :     0.000000
      g-4     :    -0.000000
      h0      :    -0.000154  h :     0.000290
      h+1     :     0.000222
      h-1     :     0.000222
      h+2     :    -0.000000
      h-2     :    -0.000000
      h+3     :     0.000000
      h-3     :     0.000000
      h+4     :     0.000000
      h-4     :     0.000000
      h+5     :     0.000000
      h-5     :     0.000000

SPIN
  0 Cls       :     0.000000  s :     0.000000
      pz      :     0.000000  p :     0.000000
      px      :     0.000000
      py      :     0.000000
      dz2     :     0.000000  d :     0.000000
      dxz     :     0.000000
      dyz     :     0.000000
      dx2y2   :    -0.000000
      dxy     :    -0.000000
      f0      :     0.000000  f :     0.000000
      f+1     :     0.000000
      f-1     :     0.000000
      f+2     :    -0.000000
      f-2     :     0.000000
      f+3     :    -0.000000
      f-3     :     0.000000
      g0      :     0.000000  g :     0.000000
      g+1     :     0.000000
      g-1     :     0.000000
      g+2     :    -0.000000
      g-2     :    -0.000000
      g+3     :     0.000000
      g-3     :    -0.000000
      g+4     :     0.000000
      g-4     :     0.000000
      h0      :     0.000000  h :     0.000000
      h+1     :     0.000000
      h-1     :     0.000000
      h+2     :    -0.000000
      h-2     :    -0.000000
      h+3     :     0.000000
      h-3     :    -0.000000
      h+4     :     0.000000
      h-4     :    -0.000000
      h+5     :    -0.000000
      h-5     :    -0.000000
  1 C s       :    -0.000000  s :    -0.000000
      pz      :    -0.000000  p :    -0.000000
      px      :     0.000000
      py      :     0.000000
      dz2     :    -0.000000  d :    -0.000000
      dxz     :     0.000000
      dyz     :    -0.000000
      dx2y2   :     0.000000
      dxy     :     0.000000
      f0      :    -0.000000  f :    -0.000000
      f+1     :    -0.000000
      f-1     :     0.000000
      f+2     :     0.000000
      f-2     :     0.000000
      f+3     :    -0.000000
      f-3     :     0.000000
      g0      :     0.000000  g :     0.000000
      g+1     :    -0.000000
      g-1     :     0.000000
      g+2     :    -0.000000
      g-2     :     0.000000
      g+3     :     0.000000
      g-3     :    -0.000000
      g+4     :    -0.000000
      g-4     :     0.000000
      h0      :    -0.000000  h :    -0.000000
      h+1     :    -0.000000
      h-1     :     0.000000
      h+2     :     0.000000
      h-2     :     0.000000
      h+3     :    -0.000000
      h-3     :     0.000000
      h+4     :     0.000000
      h-4     :     0.000000
      h+5     :    -0.000000
      h-5     :     0.000000
  2 N s       :     0.000000  s :     0.000000
      pz      :     0.000000  p :     0.000000
      px      :    -0.000000
      py      :    -0.000000
      dz2     :     0.000000  d :     0.000000
      dxz     :    -0.000000
      dyz     :    -0.000000
      dx2y2   :    -0.000000
      dxy     :    -0.000000
      f0      :     0.000000  f :     0.000000
      f+1     :    -0.000000
      f-1     :    -0.000000
      f+2     :    -0.000000
      f-2     :    -0.000000
      f+3     :     0.000000
      f-3     :    -0.000000
      g0      :     0.000000  g :     0.000000
      g+1     :    -0.000000
      g-1     :     0.000000
      g+2     :    -0.000000
      g-2     :     0.000000
      g+3     :    -0.000000
      g-3     :     0.000000
      g+4     :    -0.000000
      g-4     :    -0.000000
      h0      :    -0.000000  h :     0.000000
      h+1     :    -0.000000
      h-1     :     0.000000
      h+2     :     0.000000
      h-2     :     0.000000
      h+3     :     0.000000
      h-3     :    -0.000000
      h+4     :     0.000000
      h-4     :     0.000000
      h+5     :     0.000000
      h-5     :     0.000000


                     *******************************
                     * LOEWDIN POPULATION ANALYSIS *
                     *******************************

-------------------------------------------
LOEWDIN ATOMIC CHARGES AND SPIN POPULATIONS
-------------------------------------------
   0 Cl:    1.060841    0.000000
   1 C :   -0.922592   -0.000000
   2 N :   -0.138249   -0.000000

----------------------------------------------------
LOEWDIN REDUCED ORBITAL CHARGES AND SPIN POPULATIONS
----------------------------------------------------
CHARGE
  0 Cls       :     5.204221  s :     5.204221
      pz      :     3.176600  p :    10.058178
      px      :     3.440789
      py      :     3.440789
      dz2     :     0.135699  d :     0.300891
      dxz     :     0.082596
      dyz     :     0.082596
      dx2y2   :     0.000000
      dxy     :     0.000000
      f0      :     0.061993  f :     0.170251
      f+1     :     0.054129
      f-1     :     0.054129
      f+2     :     0.000000
      f-2     :     0.000000
      f+3     :     0.000000
      f-3     :     0.000000
      g0      :     0.041296  g :     0.123416
      g+1     :     0.041060
      g-1     :     0.041060
      g+2     :     0.000000
      g-2     :     0.000000
      g+3     :     0.000000
      g-3     :     0.000000
      g+4     :     0.000000
      g-4     :     0.000000
      h0      :     0.026150  h :     0.082201
      h+1     :     0.028026
      h-1     :     0.028026
      h+2     :     0.000000
      h-2     :     0.000000
      h+3     :     0.000000
      h-3     :     0.000000
      h+4     :     0.000000
      h-4     :     0.000000
      h+5     :     0.000000
      h-5     :     0.000000
  1 C s       :     2.715636  s :     2.715636
      pz      :     1.195170  p :     2.725759
      px      :     0.765294
      py      :     0.765294
      dz2     :     0.407722  d :     1.015095
      dxz     :     0.303687
      dyz     :     0.303687
      dx2y2   :     0.000000
      dxy     :     0.000000
      f0      :     0.122512  f :     0.291982
      f+1     :     0.084735
      f-1     :     0.084735
      f+2     :     0.000000
      f-2     :     0.000000
      f+3     :     0.000000
      f-3     :     0.000000
      g0      :     0.034977  g :     0.124793
      g+1     :     0.044908
      g-1     :     0.044908
      g+2     :     0.000000
      g-2     :     0.000000
      g+3     :     0.000000
      g-3     :     0.000000
      g+4     :     0.000000
      g-4     :     0.000000
      h0      :     0.016062  h :     0.049327
      h+1     :     0.016633
      h-1     :     0.016633
      h+2     :     0.000000
      h-2     :     0.000000
      h+3     :     0.000000
      h-3     :     0.000000
      h+4     :     0.000000
      h-4     :     0.000000
      h+5     :     0.000000
      h-5     :     0.000000
  2 N s       :     3.103495  s :     3.103495
      pz      :     1.448520  p :     3.253298
      px      :     0.902389
      py      :     0.902389
      dz2     :     0.149138  d :     0.311500
      dxz     :     0.081181
      dyz     :     0.081181
      dx2y2   :     0.000000
      dxy     :     0.000000
      f0      :     0.074979  f :     0.198116
      f+1     :     0.061568
      f-1     :     0.061568
      f+2     :     0.000000
      f-2     :     0.000000
      f+3     :     0.000000
      f-3     :     0.000000
      g0      :     0.056466  g :     0.165828
      g+1     :     0.054681
      g-1     :     0.054681
      g+2     :     0.000000
      g-2     :     0.000000
      g+3     :     0.000000
      g-3     :     0.000000
      g+4     :     0.000000
      g-4     :     0.000000
      h0      :     0.029363  h :     0.106012
      h+1     :     0.038324
      h-1     :     0.038324
      h+2     :     0.000000
      h-2     :     0.000000
      h+3     :     0.000000
      h-3     :     0.000000
      h+4     :     0.000000
      h-4     :     0.000000
      h+5     :     0.000000
      h-5     :     0.000000

SPIN
  0 Cls       :     0.000000  s :     0.000000
      pz      :     0.000000  p :     0.000000
      px      :     0.000000
      py      :     0.000000
      dz2     :     0.000000  d :     0.000000
      dxz     :    -0.000000
      dyz     :     0.000000
      dx2y2   :     0.000000
      dxy     :     0.000000
      f0      :     0.000000  f :     0.000000
      f+1     :     0.000000
      f-1     :     0.000000
      f+2     :     0.000000
      f-2     :     0.000000
      f+3     :    -0.000000
      f-3     :     0.000000
      g0      :     0.000000  g :     0.000000
      g+1     :    -0.000000
      g-1     :     0.000000
      g+2     :     0.000000
      g-2     :    -0.000000
      g+3     :     0.000000
      g-3     :    -0.000000
      g+4     :     0.000000
      g-4     :     0.000000
      h0      :    -0.000000  h :    -0.000000
      h+1     :     0.000000
      h-1     :     0.000000
      h+2     :    -0.000000
      h-2     :    -0.000000
      h+3     :     0.000000
      h-3     :    -0.000000
      h+4     :     0.000000
      h-4     :    -0.000000
      h+5     :    -0.000000
      h-5     :    -0.000000
  1 C s       :    -0.000000  s :    -0.000000
      pz      :     0.000000  p :     0.000000
      px      :    -0.000000
      py      :     0.000000
      dz2     :    -0.000000  d :    -0.000000
      dxz     :     0.000000
      dyz     :    -0.000000
      dx2y2   :     0.000000
      dxy     :     0.000000
      f0      :     0.000000  f :    -0.000000
      f+1     :    -0.000000
      f-1     :     0.000000
      f+2     :    -0.000000
      f-2     :     0.000000
      f+3     :    -0.000000
      f-3     :     0.000000
      g0      :     0.000000  g :     0.000000
      g+1     :    -0.000000
      g-1     :     0.000000
      g+2     :     0.000000
      g-2     :     0.000000
      g+3     :    -0.000000
      g-3     :    -0.000000
      g+4     :    -0.000000
      g-4     :     0.000000
      h0      :    -0.000000  h :    -0.000000
      h+1     :    -0.000000
      h-1     :    -0.000000
      h+2     :    -0.000000
      h-2     :     0.000000
      h+3     :    -0.000000
      h-3     :    -0.000000
      h+4     :     0.000000
      h-4     :     0.000000
      h+5     :    -0.000000
      h-5     :     0.000000
  2 N s       :    -0.000000  s :    -0.000000
      pz      :     0.000000  p :    -0.000000
      px      :    -0.000000
      py      :    -0.000000
      dz2     :     0.000000  d :     0.000000
      dxz     :     0.000000
      dyz     :     0.000000
      dx2y2   :     0.000000
      dxy     :     0.000000
      f0      :    -0.000000  f :    -0.000000
      f+1     :     0.000000
      f-1     :     0.000000
      f+2     :     0.000000
      f-2     :     0.000000
      f+3     :    -0.000000
      f-3     :    -0.000000
      g0      :    -0.000000  g :    -0.000000
      g+1     :    -0.000000
      g-1     :     0.000000
      g+2     :     0.000000
      g-2     :     0.000000
      g+3     :    -0.000000
      g-3     :    -0.000000
      g+4     :    -0.000000
      g-4     :     0.000000
      h0      :     0.000000  h :     0.000000
      h+1     :    -0.000000
      h-1     :     0.000000
      h+2     :    -0.000000
      h-2     :     0.000000
      h+3     :     0.000000
      h-3     :    -0.000000
      h+4     :     0.000000
      h-4     :     0.000000
      h+5     :     0.000000
      h-5     :     0.000000


                      *****************************
                      * MAYER POPULATION ANALYSIS *
                      *****************************

  NA   - Mulliken gross atomic population
  ZA   - Total nuclear charge
  QA   - Mulliken gross atomic charge
  VA   - Mayer's total valence
  BVA  - Mayer's bonded valence
  FA   - Mayer's free valence

  ATOM       NA         ZA         QA         VA         BVA        FA
  0 Cl    17.1444    17.0000    -0.1444     1.2757     1.2757     0.0000
  1 C      5.9064     6.0000     0.0936     3.8652     3.8652     0.0000
  2 N      6.9492     7.0000     0.0508     3.1236     3.1236    -0.0000

  Mayer bond orders larger than 0.1
B(  0-Cl,  1-C ) :   1.0087 B(  0-Cl,  2-N ) :   0.2671 B(  1-C ,  2-N ) :   2.8566 


-------
TIMINGS
-------

Total SCF time: 0 days 0 hours 34 min 0 sec 

Total time                  ....    2040.027 sec
Sum of individual times     ....    2038.945 sec  ( 99.9%)

Fock matrix formation       ....    2031.437 sec  ( 99.6%)
  XC integration            ....      45.515 sec  (  2.2% of F)
    Basis function eval.    ....       3.236 sec  (  7.1% of XC)
    Density eval.           ....      10.690 sec  ( 23.5% of XC)
    XC-Functional eval.     ....       0.404 sec  (  0.9% of XC)
    XC-Potential eval.      ....      29.589 sec  ( 65.0% of XC)
Diagonalization             ....       2.315 sec  (  0.1%)
Density matrix formation    ....       0.043 sec  (  0.0%)
Population analysis         ....       0.141 sec  (  0.0%)
Initial guess               ....       1.689 sec  (  0.1%)
Orbital Transformation      ....       0.000 sec  (  0.0%)
Orbital Orthonormalization  ....       0.000 sec  (  0.0%)
DIIS solution               ....       1.288 sec  (  0.1%)
Grid generation             ....       2.031 sec  (  0.1%)

-------------------------   --------------------
FINAL SINGLE POINT ENERGY      -552.798319866280
-------------------------   --------------------


                            ***************************************
                            *     ORCA property calculations      *
                            ***************************************

                                    ---------------------
                                    Active property flags
                                    ---------------------
   (+) Dipole Moment
   (+) Polarizability


------------------------------------------------------------------------------
                       ORCA ELECTRIC PROPERTIES CALCULATION
------------------------------------------------------------------------------

Dipole Moment Calculation                       ... on
Quadrupole Moment Calculation                   ... off
Polarizability Calculation                      ... Analytic (CP-SCF)
GBWName                                         ... clcn_pbe.gbw
Electron density file                           ... clcn_pbe.scfp.tmp
The origin for moment calculation is the CENTER OF MASS  = ( 0.000000,  0.000000  1.275672)

-------------
DIPOLE MOMENT
-------------
                                X             Y             Z
Electronic contribution:      0.00000      -0.00000       2.45242
Nuclear contribution   :      0.00000       0.00000      -1.29050
                        -----------------------------------------
Total Dipole Moment    :      0.00000      -0.00000       1.16192
                        -----------------------------------------
Magnitude (a.u.)       :      1.16192
Magnitude (Debye)      :      2.95337



--------------------
Rotational spectrum 
--------------------
 
Rotational constants in cm-1:     0.000000     0.198478     0.198478 
Rotational constants in MHz :     0.000000  5950.231488  5950.231488 

 Dipole components along the rotational axes: 
x,y,z [a.u.] :     1.161923    -0.000000     0.000000 
x,y,z [Debye]:     2.953373    -0.000000     0.000000 

 
Transforming and storing MO dipole integrals   ... done

                ... starting polarizability calculation

Opening the Dipole integral file               ... (clcn_pbe.dmo.tmp) done
Reading Dipole-MO integrals                    ... done
Solving CP-SCF equations                       ... 

           ************************************************************
           *        Program running with 4 parallel MPI-processes     *
           *              working on a common directory               *
           ************************************************************

------------------------------------------------------------------------------
                           ORCA CP-SCF CALCULATION
------------------------------------------------------------------------------

Input orbitals are from        ... clcn_pbe.gbw
Input Perturbation             ... clcn_pbe.cpv.tmp
Wavefunction output            ... clcn_pbe.cpu.tmp
Perturbation mode              ... Real perturbation (singlet)
Solver                         ... POPLE
Max. number of iterations      ... 200
Convergence tolerance          ... 1.000e-06
Integral handling              ... Direct
Number of perturbations        ... 3
Number of operators            ... 2
Orbital ranges used for CP-SCF:
 Operator 0:  Orbitals   0... 14  to  15...430
 Operator 1:  Orbitals   0... 14  to  15...430
DFT calculation                         ... on
Exchange functional (SCF)               ... PBE
Exchange functional (CP-SCF)            ... PBE
   PBE kappa parameter  XKappa (SCF)    ...  0.804000
   PBE kappa parameter  XKappa (CP-SCF) ...  0.804000
   PBE mue parameter   XMuePBE (SCF)    ...  0.219520
   PBE mue parameter   XMuePBE (CP-SCF) ...  0.219520
Correlation functional (SCF)            ... PBE
Correlation functional (CP-SCF)         ... PBE
   PBE beta parameter CBetaPBE (SCF)    ...  0.066725
   PBE beta parameter CBetaPBE (CP-SCF) ...  0.066725
 LDA part of GGA corr.  LDAOpt (SCF)    ... PW91-LDA
 LDA part of GGA corr.  LDAOpt (CP-SCF) ... PW91-LDA
Variables per vector in CP-SCF ... 12480
Number of vectors sought       ... 3
Recalculating density on grid  ... done
Calculating the xc-kernel      ... done
     CP-SCF ITERATION   0: 
     CP-SCF ITERATION   1:      3.679602618998
     CP-SCF ITERATION   2:      0.093880325032
     CP-SCF ITERATION   3:      0.004436678163
     CP-SCF ITERATION   4:      0.000127647250
     CP-SCF ITERATION   5:      0.000002447472
     CP-SCF ITERATION   6:      0.000000206961
done
Reading CP-SCF coefficients                    ... done
Doing the polarizability tensor   ... done
Cleaning up                                    ... done

-------------------------
THE POLARIZABILITY TENSOR
-------------------------

The raw cartesian tensor (atomic units):
   23.88095     -0.00000     -0.00000  
   -0.00000     23.88095     -0.00000  
   -0.00000     -0.00000     48.06889  
diagonalized tensor: 
   23.88095     23.88095     48.06889  

    1.00000      0.00122     -0.00000  
    0.00122     -1.00000     -0.00000  
    0.00000     -0.00000      1.00000  

Isotropic polarizability :  31.94360


Timings for individual modules:

Sum of individual times         ...     3293.466 sec (=  54.891 min)
GTO integral calculation        ...        2.832 sec (=   0.047 min)   0.1 %
SCF iterations                  ...     2040.367 sec (=  34.006 min)  62.0 %
Solution of CP-SCF eqns.        ...     1250.266 sec (=  20.838 min)  38.0 %
                             ****ORCA TERMINATED NORMALLY****
TOTAL RUN TIME: 0 days 0 hours 54 minutes 55 seconds 476 msec
