
                                 *****************
                                 * O   R   C   A *
                                 *****************

           --- An Ab Initio, DFT and Semiempirical electronic structure package ---

                  #######################################################
                  #                        -***-                        #
                  #          Department of theory and spectroscopy      #
                  #               Directorship: Frank Neese             #
                  #        Max Planck Institute fuer Kohlenforschung    #
                  #                Kaiser Wilhelm Platz 1               #
                  #                 D-45470 Muelheim/Ruhr               #
                  #                      Germany                        #
                  #                                                     #
                  #                  All rights reserved                #
                  #                        -***-                        #
                  #######################################################


                         Program Version 4.1.2  - RELEASE  -


 With contributions from (in alphabetic order):
   Daniel Aravena         : Magnetic Properties
   Michael Atanasov       : Ab Initio Ligand Field Theory
   Alexander A. Auer      : GIAO ZORA
   Ute Becker             : Parallelization
   Giovanni Bistoni       : ED, Open-shell LED
   Martin Brehm           : Molecular dynamics
   Dmytro Bykov           : SCF Hessian
   Vijay G. Chilkuri      : MRCI spin determinant printing
   Dipayan Datta          : RHF DLPNO-CCSD density
   Achintya Kumar Dutta   : EOM-CC, STEOM-CC
   Dmitry Ganyushin       : Spin-Orbit,Spin-Spin,Magnetic field MRCI
   Miquel Garcia          : C-PCM Hessian
   Yang Guo               : DLPNO-NEVPT2, CIM, IAO-localization
   Andreas Hansen         : Spin unrestricted coupled pair/coupled cluster methods
   Benjamin Helmich-Paris : CASSCF linear response (MC-RPA)
   Lee Huntington         : MR-EOM, pCC
   Robert Izsak           : Overlap fitted RIJCOSX, COSX-SCS-MP3, EOM
   Christian Kollmar      : KDIIS, OOCD, Brueckner-CCSD(T), CCSD density
   Simone Kossmann        : Meta GGA functionals, TD-DFT gradient, OOMP2, MP2 Hessian
   Martin Krupicka        : AUTO-CI
   Lucas Lang             : DCDCAS
   Dagmar Lenk            : GEPOL surface, SMD
   Dimitrios Liakos       : Extrapolation schemes; parallel MDCI
   Dimitrios Manganas     : ROCIS; embedding schemes
   Dimitrios Pantazis     : SARC Basis sets
   Taras Petrenko         : DFT Hessian,TD-DFT gradient, ASA, ECA, R-Raman, ABS, FL, XAS/XES, NRVS
   Peter Pinski           : DLPNO-MP2, DLPNO-MP2 Gradient
   Christoph Reimann      : Effective Core Potentials
   Marius Retegan         : Local ZFS, SOC
   Christoph Riplinger    : Optimizer, TS searches, QM/MM, DLPNO-CCSD(T), (RO)-DLPNO pert. Triples
   Tobias Risthaus        : Range-separated hybrids, TD-DFT gradient, RPA, STAB
   Michael Roemelt        : Restricted open shell CIS
   Masaaki Saitow         : Open-shell DLPNO
   Barbara Sandhoefer     : DKH picture change effects
   Avijit Sen             : IP-ROCIS
   Kantharuban Sivalingam : CASSCF convergence, NEVPT2, FIC-MRCI
   Bernardo de Souza      : ESD, SOC TD-DFT
   Georgi Stoychev        : AutoAux, RI-MP2 NMR
   Willem Van den Heuvel  : Paramagnetic NMR
   Boris Wezisla          : Elementary symmetry handling
   Frank Wennmohs         : Technical directorship


 We gratefully acknowledge several colleagues who have allowed us to
 interface, adapt or use parts of their codes:
   Stefan Grimme, W. Hujo, H. Kruse,             : VdW corrections, initial TS optimization,
                  C. Bannwarth                     DFT functionals, gCP, sTDA/sTD-DF
   Ed Valeev                                     : LibInt (2-el integral package), F12 methods
   Garnet Chan, S. Sharma, J. Yang, R. Olivares  : DMRG
   Ulf Ekstrom                                   : XCFun DFT Library
   Mihaly Kallay                                 : mrcc  (arbitrary order and MRCC methods)
   Andreas Klamt, Michael Diedenhofen            : otool_cosmo (COSMO solvation model)
   Jiri Pittner, Ondrej Demel                    : Mk-CCSD
   Frank Weinhold                                : gennbo (NPA and NBO analysis)
   Christopher J. Cramer and Donald G. Truhlar   : smd solvation model
   Lars Goerigk                                  : TD-DFT with DH, B97 family of functionals
   V. Asgeirsson, H. Jonsson                     : NEB implementation
   FAccTs GmbH                                   : IRC, NEB, NEB-TS, Multilevel


 Your calculation uses the libint2 library for the computation of 2-el integrals
 For citations please refer to: http://libint.valeyev.net

 This ORCA versions uses:
   CBLAS   interface :  Fast vector & matrix operations
   LAPACKE interface :  Fast linear algebra routines
   SCALAPACK package :  Parallel linear algebra routines


----- Orbital basis set information -----
Your calculation utilizes the basis: aug-pc-4
   H, C-F              : F. Jensen, J. Chem. Phys. 115, 9113 (2001).
                         F. Jensen, J. Chem. Phys. 116, 7372 (2002).
                         F. Jensen, J. Chem. Phys. 117, 9234 (2002).
   Si-Cl               : F. Jensen, T. Helgaker, J. Chem. Phys. 121, 3463 (2004).
   He-B, Ne-Mg, Al, Ar : F. Jensen, J. Phys. Chem. A 111, 11198 (2007).
   K, Ca, Ga-Kr        : F. Jensen, J. Chem. Phys. 136, 094110 (2012).
   Sc-Zn               : F. Jensen, J. Chem. Phys. 138, 014107 (2013).

================================================================================
                                        WARNINGS
                       Please study these warnings very carefully!
================================================================================


INFO   : the flag for use of LIBINT has been found!

================================================================================
                                       INPUT FILE
================================================================================
NAME = cn_pbe.inp
|  1> !uks pbe nori aug-pc-4 grid7 nofinalgrid verytightscf
|  2> 
|  3> %maxcore 1500
|  4> 
|  5> %pal nprocs 1 end
|  6> 
|  7> %scf
|  8> 	maxiter 200
|  9> end
| 10> %elprop
| 11> 	dipole true
| 12> 	 polar 1
| 13> 	 maxiter 200
| 14> end
| 15> 
| 16> * xyz 0 2
| 17> N 0.0000 0.0000 0.0000
| 18> C 0.0000 0.0000 1.1718
| 19> *
| 20> 
| 21>                          ****END OF INPUT****
================================================================================

                       ****************************
                       * Single Point Calculation *
                       ****************************

---------------------------------
CARTESIAN COORDINATES (ANGSTROEM)
---------------------------------
  N      0.000000    0.000000    0.000000
  C      0.000000    0.000000    1.171800

----------------------------
CARTESIAN COORDINATES (A.U.)
----------------------------
  NO LB      ZA    FRAG     MASS         X           Y           Z
   0 N     7.0000    0    14.007    0.000000    0.000000    0.000000
   1 C     6.0000    0    12.011    0.000000    0.000000    2.214381

--------------------------------
INTERNAL COORDINATES (ANGSTROEM)
--------------------------------
 N      0   0   0     0.000000000000     0.00000000     0.00000000
 C      1   0   0     1.171800000000     0.00000000     0.00000000

---------------------------
INTERNAL COORDINATES (A.U.)
---------------------------
 N      0   0   0     0.000000000000     0.00000000     0.00000000
 C      1   0   0     2.214381083729     0.00000000     0.00000000

---------------------
BASIS SET INFORMATION
---------------------
There are 2 groups of distinct atoms

 Group   1 Type N   : 27s12p7d4f3g2h contracted to 9s8p7d4f3g2h pattern {1191111111/51111111/1111111/1111/111/11}
 Group   2 Type C   : 28s12p7d4f3g2h contracted to 9s8p7d4f3g2h pattern {11101111111/51111111/1111111/1111/111/11}

Atom   0N    basis set group =>   1
Atom   1C    basis set group =>   2
------------------------------------------------------------------------------
                           ORCA GTO INTEGRAL CALCULATION
------------------------------------------------------------------------------

                         BASIS SET STATISTICS AND STARTUP INFO

 # of primitive gaussian shells          ...  111
 # of primitive gaussian functions       ...  351
 # of contracted shells                  ...   66
 # of contracted basis functions         ...  290
 Highest angular momentum                ...    5
 Maximum contraction depth               ...   11
 Integral package used                   ... LIBINT
 Integral threshhold            Thresh   ...  1.000e-12
 Primitive cut-off              TCut     ...  1.000e-14


------------------------------ INTEGRAL EVALUATION ----------------------------


 * One electron integrals 
 Pre-screening matrix                    ... done
 Shell pair data                         ... done (   0.001 sec)

-------------------------------------------------------------------------------
                                 ORCA SCF
-------------------------------------------------------------------------------

------------
SCF SETTINGS
------------
Hamiltonian:
 Density Functional     Method          .... DFT(GTOs)
 Exchange Functional    Exchange        .... PBE
   PBE kappa parameter   XKappa         ....  0.804000
   PBE mue parameter    XMuePBE         ....  0.219520
 Correlation Functional Correlation     .... PBE
   PBE beta parameter  CBetaPBE         ....  0.066725
 LDA part of GGA corr.  LDAOpt          .... PW91-LDA
 Gradients option       PostSCFGGA      .... off
   Density functional embedding theory  .... OFF
   NL short-range parameter             ....  6.400000


General Settings:
 Integral files         IntName         .... cn_pbe
 Hartree-Fock type      HFTyp           .... UHF
 Total Charge           Charge          ....    0
 Multiplicity           Mult            ....    2
 Number of Electrons    NEL             ....   13
 Basis Dimension        Dim             ....  290
 Nuclear Repulsion      ENuc            ....     18.9669250287 Eh

Convergence Acceleration:
 DIIS                   CNVDIIS         .... on
   Start iteration      DIISMaxIt       ....    12
   Startup error        DIISStart       ....  0.200000
   # of expansion vecs  DIISMaxEq       ....     5
   Bias factor          DIISBfac        ....   1.050
   Max. coefficient     DIISMaxC        ....  10.000
 Newton-Raphson         CNVNR           .... off
 SOSCF                  CNVSOSCF        .... off
 Level Shifting         CNVShift        .... on
   Level shift para.    LevelShift      ....    0.2500
   Turn off err/grad.   ShiftErr        ....    0.0010
 Zerner damping         CNVZerner       .... off
 Static damping         CNVDamp         .... on
   Fraction old density DampFac         ....    0.7000
   Max. Damping (<1)    DampMax         ....    0.9800
   Min. Damping (>=0)   DampMin         ....    0.0000
   Turn off err/grad.   DampErr         ....    0.1000
 Fernandez-Rico         CNVRico         .... off

SCF Procedure:
 Maximum # iterations   MaxIter         ....   200
 SCF integral mode      SCFMode         .... Direct
   Integral package                     .... LIBINT
 Reset frequency        DirectResetFreq ....    20
 Integral Threshold     Thresh          ....  1.000e-12 Eh
 Primitive CutOff       TCut            ....  1.000e-14 Eh

Convergence Tolerance:
 Convergence Check Mode ConvCheckMode   .... Total+1el-Energy
 Convergence forced     ConvForced      .... 0
 Energy Change          TolE            ....  1.000e-09 Eh
 1-El. energy change                    ....  1.000e-06 Eh
 DIIS Error             TolErr          ....  1.000e-08


Diagonalization of the overlap matrix:
Smallest eigenvalue                        ... 1.252e-06
Time for diagonalization                   ...    0.015 sec
Threshold for overlap eigenvalues          ... 1.000e-08
Number of eigenvalues below threshold      ... 0
Time for construction of square roots      ...    0.010 sec
Total time needed                          ...    0.025 sec

-------------------
DFT GRID GENERATION
-------------------

General Integration Accuracy     IntAcc      ...  5.670
Radial Grid Type                 RadialGrid  ... Gauss-Chebyshev
Angular Grid (max. acc.)         AngularGrid ... Lebedev-770
Angular grid pruning method      GridPruning ... 3 (G Style)
Weight generation scheme         WeightScheme... Becke
Basis function cutoff            BFCut       ...    1.0000e-12
Integration weight cutoff        WCut        ...    1.0000e-14
Grids for H and He will be reduced by one unit

# of grid points (after initial pruning)     ...  50068 (   0.0 sec)
# of grid points (after weights+screening)   ...  49874 (   0.0 sec)
nearest neighbour list constructed           ...    0.0 sec
Grid point re-assignment to atoms done       ...    0.0 sec
Grid point division into batches done        ...    1.1 sec
Reduced shell lists constructed in    1.5 sec

Total number of grid points                  ...    49874
Total number of batches                      ...      780
Average number of points per batch           ...       63
Average number of grid points per atom       ...    24937
Average number of shells per batch           ...    51.24 (77.64%)
Average number of basis functions per batch  ...   231.25 (79.74%)
Average number of large shells per batch     ...    46.86 (91.45%)
Average number of large basis fcns per batch ...   212.88 (92.06%)
Maximum spatial batch extension              ...  31.41, 40.80, 20.03 au
Average spatial batch extension              ...   2.82,  2.87,  2.55 au

Time for grid setup =    1.532 sec

------------------------------
INITIAL GUESS: MODEL POTENTIAL
------------------------------
Loading Hartree-Fock densities                     ... done
Calculating cut-offs                               ... done
Setting up the integral package                    ... done
Initializing the effective Hamiltonian             ... done
Starting the Coulomb interaction                   ... done (   0.0 sec)
Reading the grid                                   ... done
Mapping shells                                     ... done
Starting the XC term evaluation                    ... done (   2.1 sec)
  promolecular density results
     # of electrons  =     12.999999992
     EX              =    -11.498570216
     EC              =     -0.397790862
     EX+EC           =    -11.896361078
Transforming the Hamiltonian                       ... done (   0.0 sec)
Diagonalizing the Hamiltonian                      ... done (   0.0 sec)
Back transforming the eigenvectors                 ... done (   0.0 sec)
Now organizing SCF variables                       ... done
                      ------------------
                      INITIAL GUESS DONE (   3.8 sec)
                      ------------------
--------------
SCF ITERATIONS
--------------
ITER       Energy         Delta-E        Max-DP      RMS-DP      [F,P]     Damp
               ***  Starting incremental Fock matrix formation  ***
  0    -92.5340156620   0.000000000000 0.02654812  0.00025983  0.3133324 0.7000
  1    -92.6005535035  -0.066537841509 0.01409372  0.00012440  0.0505478 0.7000
                               ***Turning on DIIS***
  2    -92.6032163220  -0.002662818434 0.02252673  0.00020513  0.0935045 0.0000
  3    -92.6379875567  -0.034771234750 0.01064428  0.00010126  0.0964004 0.0000
  4    -92.6476737436  -0.009686186893 0.00312887  0.00003381  0.0413255 0.0000
  5    -92.6493345229  -0.001660779322 0.00112017  0.00001336  0.0129556 0.0000
  6    -92.6495088557  -0.000174332797 0.00095642  0.00000773  0.0053672 0.0000
  7    -92.6495463304  -0.000037474670 0.00035284  0.00000428  0.0021239 0.0000
  8    -92.6495566571  -0.000010326655 0.00020257  0.00000278  0.0014615 0.0000
  9    -92.6495619345  -0.000005277445 0.00055089  0.00000553  0.0008184 0.0000
 10    -92.6495657471  -0.000003812581 0.00012593  0.00000154  0.0008130 0.0000
 11    -92.6495666416  -0.000000894541 0.00005882  0.00000056  0.0003114 0.0000
 12    -92.6495667493  -0.000000107654 0.00002705  0.00000037  0.0001603 0.0000
 13    -92.6495668027  -0.000000053396 0.00000762  0.00000012  0.0000089 0.0000
 14    -92.6495668069  -0.000000004181 0.00000322  0.00000003  0.0000020 0.0000
 15    -92.6495668073  -0.000000000474 0.00000692  0.00000006  0.0000068 0.0000
                 **** Energy Check signals convergence ****

               *****************************************************
               *                     SUCCESS                       *
               *           SCF CONVERGED AFTER  16 CYCLES          *
               *****************************************************


----------------
TOTAL SCF ENERGY
----------------

Total Energy       :          -92.64956681 Eh           -2521.12288 eV

Components:
Nuclear Repulsion  :           18.96692503 Eh             516.11627 eV
Electronic Energy  :         -111.61649184 Eh           -3037.23915 eV
One Electron Energy:         -162.16422225 Eh           -4412.71283 eV
Two Electron Energy:           50.54773042 Eh            1375.47367 eV

Virial components:
Potential Energy   :         -184.97526804 Eh           -5033.43294 eV
Kinetic Energy     :           92.32570123 Eh            2512.31005 eV
Virial Ratio       :            2.00350786


DFT components:
N(Alpha)           :        7.000000015617 electrons
N(Beta)            :        6.000000018169 electrons
N(Total)           :       13.000000033786 electrons
E(X)               :      -11.643138308748 Eh       
E(C)               :       -0.399830575195 Eh       
E(XC)              :      -12.042968883942 Eh       
DFET-embed. en.    :        0.000000000000 Eh       

---------------
SCF CONVERGENCE
---------------

  Last Energy change         ...   -3.5126e-10  Tolerance :   1.0000e-09
  Last MAX-Density change    ...    7.3076e-06  Tolerance :   1.0000e-08
  Last RMS-Density change    ...    7.8267e-08  Tolerance :   1.0000e-09
  Last DIIS Error            ...    2.1709e-06  Tolerance :   1.0000e-08

             **** THE GBW FILE WAS UPDATED (cn_pbe.gbw) ****
             **** DENSITY FILE WAS UPDATED (cn_pbe.scfp.tmp) ****
             **** ENERGY FILE WAS UPDATED (cn_pbe.en.tmp) ****
----------------------
UHF SPIN CONTAMINATION
----------------------

Warning: in a DFT calculation there is little theoretical justification to 
         calculate <S**2> as in Hartree-Fock theory. We will do it anyways
         but you should keep in mind that the values have only limited relevance

Expectation value of <S**2>     :     0.755801
Ideal value S*(S+1) for S=0.5   :     0.750000
Deviation                       :     0.005801

----------------
ORBITAL ENERGIES
----------------
                 SPIN UP ORBITALS
  NO   OCC          E(Eh)            E(eV) 
   0   1.0000     -14.054312      -382.4373 
   1   1.0000     -10.003215      -272.2013 
   2   1.0000      -0.878606       -23.9081 
   3   1.0000      -0.448321       -12.1994 
   4   1.0000      -0.357540        -9.7292 
   5   1.0000      -0.353938        -9.6311 
   6   1.0000      -0.353938        -9.6311 
   7   0.0000      -0.059149        -1.6095 
   8   0.0000      -0.059149        -1.6095 
   9   0.0000      -0.001044        -0.0284 
  10   0.0000       0.016277         0.4429 
  11   0.0000       0.019252         0.5239 
  12   0.0000       0.019252         0.5239 
  13   0.0000       0.050636         1.3779 
  14   0.0000       0.056639         1.5412 
  15   0.0000       0.056639         1.5412 
  16   0.0000       0.074296         2.0217 
  17   0.0000       0.079229         2.1559 
  18   0.0000       0.084146         2.2897 
  19   0.0000       0.084146         2.2897 
  20   0.0000       0.088631         2.4118 
  21   0.0000       0.088631         2.4118 
  22   0.0000       0.129087         3.5126 
  23   0.0000       0.142821         3.8863 
  24   0.0000       0.142821         3.8863 
  25   0.0000       0.165475         4.5028 
  26   0.0000       0.188807         5.1377 
  27   0.0000       0.188807         5.1377 
  28   0.0000       0.191262         5.2045 
  29   0.0000       0.191262         5.2045 
  30   0.0000       0.197276         5.3682 
  31   0.0000       0.197276         5.3682 
  32   0.0000       0.213498         5.8096 
  33   0.0000       0.227724         6.1967 
  34   0.0000       0.227724         6.1967 
  35   0.0000       0.234230         6.3737 
  36   0.0000       0.234230         6.3737 
  37   0.0000       0.244756         6.6601 
  38   0.0000       0.264554         7.1989 
  39   0.0000       0.264554         7.1989 
  40   0.0000       0.265329         7.2200 
  41   0.0000       0.307814         8.3760 
  42   0.0000       0.328898         8.9498 
  43   0.0000       0.328898         8.9498 
  44   0.0000       0.346676         9.4335 
  45   0.0000       0.346676         9.4335 
  46   0.0000       0.355780         9.6813 
  47   0.0000       0.355780         9.6813 
  48   0.0000       0.363227         9.8839 
  49   0.0000       0.363227         9.8839 
  50   0.0000       0.399738        10.8774 
  51   0.0000       0.410698        11.1757 
  52   0.0000       0.410698        11.1757 
  53   0.0000       0.420327        11.4377 
  54   0.0000       0.421021        11.4566 
  55   0.0000       0.421021        11.4566 
  56   0.0000       0.462473        12.5845 
  57   0.0000       0.462473        12.5845 
  58   0.0000       0.469156        12.7664 
  59   0.0000       0.469156        12.7664 
  60   0.0000       0.478919        13.0321 
  61   0.0000       0.484349        13.1798 
  62   0.0000       0.484349        13.1798 
  63   0.0000       0.518134        14.0991 
  64   0.0000       0.518134        14.0991 
  65   0.0000       0.529546        14.4097 
  66   0.0000       0.564520        15.3614 
  67   0.0000       0.564520        15.3614 
  68   0.0000       0.564974        15.3737 
  69   0.0000       0.564974        15.3737 
  70   0.0000       0.565917        15.3994 
  71   0.0000       0.565917        15.3994 
  72   0.0000       0.569094        15.4858 
  73   0.0000       0.569094        15.4858 
  74   0.0000       0.573556        15.6073 
  75   0.0000       0.584837        15.9142 
  76   0.0000       0.584837        15.9142 
  77   0.0000       0.643978        17.5235 
  78   0.0000       0.663214        18.0470 
  79   0.0000       0.663214        18.0470 
  80   0.0000       0.663648        18.0588 
  81   0.0000       0.664568        18.0838 
  82   0.0000       0.664568        18.0838 
  83   0.0000       0.704726        19.1766 
  84   0.0000       0.704726        19.1766 
  85   0.0000       0.741118        20.1669 
  86   0.0000       0.741118        20.1669 
  87   0.0000       0.747552        20.3419 
  88   0.0000       0.766152        20.8481 
  89   0.0000       0.766152        20.8481 
  90   0.0000       0.788658        21.4605 
  91   0.0000       0.788658        21.4605 
  92   0.0000       0.856929        23.3182 
  93   0.0000       0.856929        23.3182 
  94   0.0000       0.888933        24.1891 
  95   0.0000       0.889710        24.2102 
  96   0.0000       0.889710        24.2102 
  97   0.0000       0.909419        24.7465 
  98   0.0000       0.909419        24.7465 
  99   0.0000       0.919985        25.0341 
 100   0.0000       0.919985        25.0341 
 101   0.0000       0.921558        25.0769 
 102   0.0000       0.921558        25.0769 
 103   0.0000       0.969038        26.3689 
 104   0.0000       0.969038        26.3689 
 105   0.0000       0.969282        26.3755 
 106   0.0000       0.984046        26.7772 
 107   0.0000       1.002647        27.2834 
 108   0.0000       1.002647        27.2834 
 109   0.0000       1.045364        28.4458 
 110   0.0000       1.045364        28.4458 
 111   0.0000       1.133523        30.8447 
 112   0.0000       1.195236        32.5240 
 113   0.0000       1.195236        32.5240 
 114   0.0000       1.283706        34.9314 
 115   0.0000       1.348562        36.6962 
 116   0.0000       1.377811        37.4921 
 117   0.0000       1.377811        37.4921 
 118   0.0000       1.422786        38.7160 
 119   0.0000       1.422786        38.7160 
 120   0.0000       1.511669        41.1346 
 121   0.0000       1.534867        41.7658 
 122   0.0000       1.534867        41.7658 
 123   0.0000       1.674710        45.5712 
 124   0.0000       1.674710        45.5712 
 125   0.0000       1.707713        46.4692 
 126   0.0000       1.707713        46.4692 
 127   0.0000       1.849610        50.3304 
 128   0.0000       1.849610        50.3304 
 129   0.0000       1.958945        53.3056 
 130   0.0000       1.980126        53.8820 
 131   0.0000       1.980126        53.8820 
 132   0.0000       2.042214        55.5715 
 133   0.0000       2.105902        57.3045 
 134   0.0000       2.105902        57.3045 
 135   0.0000       2.124200        57.8024 
 136   0.0000       2.124200        57.8024 
 137   0.0000       2.182818        59.3975 
 138   0.0000       2.222822        60.4861 
 139   0.0000       2.222822        60.4861 
 140   0.0000       2.497478        67.9598 
 141   0.0000       2.497478        67.9598 
 142   0.0000       2.502751        68.1033 
 143   0.0000       2.631001        71.5932 
 144   0.0000       2.976129        80.9846 
 145   0.0000       2.976129        80.9846 
 146   0.0000       2.990418        81.3734 
 147   0.0000       2.990418        81.3734 
 148   0.0000       2.996332        81.5343 
 149   0.0000       2.996332        81.5343 
 150   0.0000       3.087980        84.0282 
 151   0.0000       3.261939        88.7619 
 152   0.0000       3.632236        98.8382 
 153   0.0000       3.768203       102.5380 
 154   0.0000       3.768203       102.5380 
 155   0.0000       3.925826       106.8272 
 156   0.0000       3.925826       106.8272 
 157   0.0000       3.948384       107.4410 
 158   0.0000       3.948384       107.4410 
 159   0.0000       4.013441       109.2113 
 160   0.0000       4.013441       109.2113 
 161   0.0000       4.137288       112.5813 
 162   0.0000       4.137288       112.5813 
 163   0.0000       4.336378       117.9989 
 164   0.0000       4.336378       117.9989 
 165   0.0000       4.444110       120.9304 
 166   0.0000       4.523211       123.0828 
 167   0.0000       4.523211       123.0828 
 168   0.0000       4.570290       124.3639 
 169   0.0000       4.570290       124.3639 
 170   0.0000       4.582333       124.6916 
 171   0.0000       4.653746       126.6349 
 172   0.0000       4.653746       126.6349 
 173   0.0000       4.732025       128.7650 
 174   0.0000       4.732025       128.7650 
 175   0.0000       4.797717       130.5525 
 176   0.0000       5.011366       136.3662 
 177   0.0000       5.011366       136.3662 
 178   0.0000       5.157948       140.3549 
 179   0.0000       5.157948       140.3549 
 180   0.0000       5.216375       141.9448 
 181   0.0000       5.216375       141.9448 
 182   0.0000       5.562355       151.3594 
 183   0.0000       5.571386       151.6051 
 184   0.0000       5.571386       151.6051 
 185   0.0000       5.869113       159.7067 
 186   0.0000       6.108320       166.2158 
 187   0.0000       6.108320       166.2158 
 188   0.0000       6.244564       169.9232 
 189   0.0000       6.244564       169.9232 
 190   0.0000       6.309418       171.6880 
 191   0.0000       6.535630       177.8435 
 192   0.0000       6.535630       177.8435 
 193   0.0000       6.727632       183.0682 
 194   0.0000       6.727632       183.0682 
 195   0.0000       6.798286       184.9908 
 196   0.0000       7.011320       190.7877 
 197   0.0000       7.011320       190.7877 
 198   0.0000       7.679974       208.9827 
 199   0.0000       7.913516       215.3377 
 200   0.0000       8.184375       222.7082 
 201   0.0000       8.184375       222.7082 
 202   0.0000       9.056788       246.4477 
 203   0.0000       9.056788       246.4477 
 204   0.0000       9.667857       263.0758 
 205   0.0000       9.979907       271.5671 
 206   0.0000       9.979907       271.5671 
 207   0.0000      10.069869       274.0151 
 208   0.0000      10.069869       274.0151 
 209   0.0000      10.207591       277.7627 
 210   0.0000      10.246920       278.8329 
 211   0.0000      10.246920       278.8329 
 212   0.0000      10.329452       281.0787 
 213   0.0000      10.329452       281.0787 
 214   0.0000      10.461286       284.6661 
 215   0.0000      10.461286       284.6661 
 216   0.0000      10.703939       291.2690 
 217   0.0000      10.703939       291.2690 
 218   0.0000      10.719922       291.7039 
 219   0.0000      10.967723       298.4469 
 220   0.0000      10.967723       298.4469 
 221   0.0000      11.123056       302.6738 
 222   0.0000      11.123056       302.6738 
 223   0.0000      11.280033       306.9453 
 224   0.0000      11.280033       306.9453 
 225   0.0000      11.372388       309.4584 
 226   0.0000      11.372388       309.4584 
 227   0.0000      11.429007       310.9991 
 228   0.0000      11.429008       310.9991 
 229   0.0000      11.433478       311.1208 
 230   0.0000      11.492274       312.7207 
 231   0.0000      11.492274       312.7207 
 232   0.0000      11.635293       316.6124 
 233   0.0000      11.635293       316.6124 
 234   0.0000      11.752149       319.7922 
 235   0.0000      11.752149       319.7922 
 236   0.0000      11.792769       320.8976 
 237   0.0000      11.792769       320.8976 
 238   0.0000      12.022835       327.1580 
 239   0.0000      12.022835       327.1580 
 240   0.0000      12.379411       336.8609 
 241   0.0000      12.379411       336.8609 
 242   0.0000      12.495132       340.0098 
 243   0.0000      12.495133       340.0098 
 244   0.0000      12.690759       345.3331 
 245   0.0000      12.969467       352.9171 
 246   0.0000      12.969467       352.9171 
 247   0.0000      13.475168       366.6780 
 248   0.0000      13.613812       370.4507 
 249   0.0000      13.613812       370.4507 
 250   0.0000      14.235420       387.3655 
 251   0.0000      14.235420       387.3655 
 252   0.0000      14.482828       394.0978 
 253   0.0000      14.482828       394.0978 
 254   0.0000      14.616350       397.7311 
 255   0.0000      14.995159       408.0390 
 256   0.0000      14.995159       408.0390 
 257   0.0000      15.332810       417.2270 
 258   0.0000      15.334879       417.2833 
 259   0.0000      15.334879       417.2833 
 260   0.0000      15.710331       427.4998 
 261   0.0000      15.710331       427.4998 
 262   0.0000      15.808895       430.1819 
 263   0.0000      16.650804       453.0914 
 264   0.0000      16.650804       453.0914 
 265   0.0000      16.830174       457.9723 
 266   0.0000      16.830174       457.9723 
 267   0.0000      17.353788       472.2206 
 268   0.0000      17.646131       480.1756 
 269   0.0000      17.646131       480.1756 
 270   0.0000      18.591550       505.9018 
 271   0.0000      19.014038       517.3983 
 272   0.0000      19.014038       517.3983 
 273   0.0000      21.523339       585.6798 
 274   0.0000      23.922904       650.9753 
 275   0.0000      26.014410       707.8881 
 276   0.0000      26.014410       707.8881 
 277   0.0000      27.859432       758.0937 
 278   0.0000      31.787008       864.9685 
 279   0.0000      31.787011       864.9685 
 280   0.0000      32.827975       893.2946 
 281   0.0000      32.827975       893.2946 
 282   0.0000      34.253871       932.0952 
 283   0.0000      47.618616      1295.7684 
 284   0.0000      47.618622      1295.7686 
 285   0.0000      47.891494      1303.1938 
 286   0.0000      47.891494      1303.1938 
 287   0.0000      48.847572      1329.2100 
 288   0.0000      73.988466      2013.3285 
 289   0.0000     104.242688      2836.5878 

                 SPIN DOWN ORBITALS
  NO   OCC          E(Eh)            E(eV) 
   0   1.0000     -14.049400      -382.3036 
   1   1.0000      -9.989665      -271.8326 
   2   1.0000      -0.860978       -23.4284 
   3   1.0000      -0.399772       -10.8783 
   4   1.0000      -0.345171        -9.3926 
   5   1.0000      -0.345171        -9.3926 
   6   0.0000      -0.281612        -7.6631 
   7   0.0000      -0.036551        -0.9946 
   8   0.0000      -0.036551        -0.9946 
   9   0.0000       0.005827         0.1586 
  10   0.0000       0.020115         0.5474 
  11   0.0000       0.021172         0.5761 
  12   0.0000       0.021172         0.5761 
  13   0.0000       0.053101         1.4449 
  14   0.0000       0.057655         1.5689 
  15   0.0000       0.057655         1.5689 
  16   0.0000       0.078594         2.1386 
  17   0.0000       0.088403         2.4056 
  18   0.0000       0.088403         2.4056 
  19   0.0000       0.089629         2.4389 
  20   0.0000       0.091096         2.4789 
  21   0.0000       0.091096         2.4789 
  22   0.0000       0.135129         3.6770 
  23   0.0000       0.148102         4.0300 
  24   0.0000       0.148102         4.0300 
  25   0.0000       0.169573         4.6143 
  26   0.0000       0.191320         5.2061 
  27   0.0000       0.191320         5.2061 
  28   0.0000       0.193446         5.2639 
  29   0.0000       0.193446         5.2639 
  30   0.0000       0.199327         5.4240 
  31   0.0000       0.199327         5.4240 
  32   0.0000       0.218251         5.9389 
  33   0.0000       0.233248         6.3470 
  34   0.0000       0.233248         6.3470 
  35   0.0000       0.239728         6.5233 
  36   0.0000       0.239728         6.5233 
  37   0.0000       0.260695         7.0939 
  38   0.0000       0.271002         7.3743 
  39   0.0000       0.271002         7.3743 
  40   0.0000       0.272723         7.4212 
  41   0.0000       0.321209         8.7405 
  42   0.0000       0.333902         9.0859 
  43   0.0000       0.333902         9.0859 
  44   0.0000       0.348815         9.4917 
  45   0.0000       0.348815         9.4917 
  46   0.0000       0.365154         9.9363 
  47   0.0000       0.365154         9.9363 
  48   0.0000       0.368529        10.0282 
  49   0.0000       0.368529        10.0282 
  50   0.0000       0.409216        11.1353 
  51   0.0000       0.414396        11.2763 
  52   0.0000       0.414396        11.2763 
  53   0.0000       0.425714        11.5843 
  54   0.0000       0.425714        11.5843 
  55   0.0000       0.426364        11.6020 
  56   0.0000       0.464305        12.6344 
  57   0.0000       0.464305        12.6344 
  58   0.0000       0.473868        12.8946 
  59   0.0000       0.473868        12.8946 
  60   0.0000       0.486119        13.2280 
  61   0.0000       0.488359        13.2889 
  62   0.0000       0.488359        13.2889 
  63   0.0000       0.529181        14.3997 
  64   0.0000       0.529181        14.3997 
  65   0.0000       0.549850        14.9622 
  66   0.0000       0.569280        15.4909 
  67   0.0000       0.569280        15.4909 
  68   0.0000       0.570511        15.5244 
  69   0.0000       0.570511        15.5244 
  70   0.0000       0.572541        15.5796 
  71   0.0000       0.572541        15.5796 
  72   0.0000       0.574302        15.6276 
  73   0.0000       0.574302        15.6276 
  74   0.0000       0.590530        16.0691 
  75   0.0000       0.596554        16.2331 
  76   0.0000       0.596554        16.2331 
  77   0.0000       0.667481        18.1631 
  78   0.0000       0.672726        18.3058 
  79   0.0000       0.672726        18.3058 
  80   0.0000       0.674194        18.3457 
  81   0.0000       0.674194        18.3457 
  82   0.0000       0.678933        18.4747 
  83   0.0000       0.710553        19.3351 
  84   0.0000       0.710553        19.3351 
  85   0.0000       0.743702        20.2372 
  86   0.0000       0.743702        20.2372 
  87   0.0000       0.764737        20.8095 
  88   0.0000       0.770646        20.9703 
  89   0.0000       0.770646        20.9703 
  90   0.0000       0.800866        21.7927 
  91   0.0000       0.800866        21.7927 
  92   0.0000       0.864834        23.5333 
  93   0.0000       0.864834        23.5333 
  94   0.0000       0.891764        24.2661 
  95   0.0000       0.891764        24.2661 
  96   0.0000       0.897987        24.4355 
  97   0.0000       0.914751        24.8916 
  98   0.0000       0.914751        24.8916 
  99   0.0000       0.920983        25.0612 
 100   0.0000       0.920983        25.0612 
 101   0.0000       0.932586        25.3770 
 102   0.0000       0.932586        25.3770 
 103   0.0000       0.973470        26.4895 
 104   0.0000       0.973470        26.4895 
 105   0.0000       0.979520        26.6541 
 106   0.0000       0.996224        27.1086 
 107   0.0000       1.009459        27.4688 
 108   0.0000       1.009459        27.4688 
 109   0.0000       1.066390        29.0180 
 110   0.0000       1.066390        29.0180 
 111   0.0000       1.149814        31.2880 
 112   0.0000       1.209686        32.9172 
 113   0.0000       1.209686        32.9172 
 114   0.0000       1.308166        35.5970 
 115   0.0000       1.381053        37.5804 
 116   0.0000       1.381053        37.5804 
 117   0.0000       1.386927        37.7402 
 118   0.0000       1.439593        39.1733 
 119   0.0000       1.439593        39.1733 
 120   0.0000       1.529795        41.6278 
 121   0.0000       1.537641        41.8413 
 122   0.0000       1.537641        41.8413 
 123   0.0000       1.681734        45.7623 
 124   0.0000       1.681734        45.7623 
 125   0.0000       1.732926        47.1553 
 126   0.0000       1.732926        47.1553 
 127   0.0000       1.859923        50.6111 
 128   0.0000       1.859923        50.6111 
 129   0.0000       1.973692        53.7069 
 130   0.0000       1.996426        54.3255 
 131   0.0000       1.996426        54.3255 
 132   0.0000       2.065841        56.2144 
 133   0.0000       2.141421        58.2710 
 134   0.0000       2.141421        58.2710 
 135   0.0000       2.156698        58.6867 
 136   0.0000       2.156698        58.6867 
 137   0.0000       2.233672        60.7813 
 138   0.0000       2.237297        60.8800 
 139   0.0000       2.237297        60.8800 
 140   0.0000       2.518863        68.5417 
 141   0.0000       2.518863        68.5417 
 142   0.0000       2.558449        69.6189 
 143   0.0000       2.651018        72.1379 
 144   0.0000       2.989052        81.3363 
 145   0.0000       2.989052        81.3363 
 146   0.0000       2.994253        81.4778 
 147   0.0000       2.994253        81.4778 
 148   0.0000       3.020026        82.1791 
 149   0.0000       3.020026        82.1791 
 150   0.0000       3.112993        84.7088 
 151   0.0000       3.292251        89.5867 
 152   0.0000       3.656206        99.4904 
 153   0.0000       3.773332       102.6776 
 154   0.0000       3.773332       102.6776 
 155   0.0000       3.955261       107.6281 
 156   0.0000       3.955261       107.6281 
 157   0.0000       3.956000       107.6482 
 158   0.0000       3.956000       107.6482 
 159   0.0000       4.030491       109.6752 
 160   0.0000       4.030491       109.6752 
 161   0.0000       4.179841       113.7393 
 162   0.0000       4.179841       113.7393 
 163   0.0000       4.373447       119.0075 
 164   0.0000       4.373447       119.0075 
 165   0.0000       4.483172       121.9933 
 166   0.0000       4.521462       123.0352 
 167   0.0000       4.521462       123.0352 
 168   0.0000       4.604442       125.2932 
 169   0.0000       4.604442       125.2932 
 170   0.0000       4.639288       126.2414 
 171   0.0000       4.698491       127.8524 
 172   0.0000       4.698491       127.8524 
 173   0.0000       4.811639       130.9313 
 174   0.0000       4.811639       130.9313 
 175   0.0000       4.858941       132.2185 
 176   0.0000       5.008158       136.2789 
 177   0.0000       5.008158       136.2789 
 178   0.0000       5.179277       140.9353 
 179   0.0000       5.179277       140.9353 
 180   0.0000       5.268206       143.3552 
 181   0.0000       5.268206       143.3552 
 182   0.0000       5.584981       151.9751 
 183   0.0000       5.584981       151.9751 
 184   0.0000       5.601501       152.4246 
 185   0.0000       5.934990       161.4993 
 186   0.0000       6.126474       166.7098 
 187   0.0000       6.126474       166.7098 
 188   0.0000       6.277107       170.8088 
 189   0.0000       6.277107       170.8088 
 190   0.0000       6.366492       173.2411 
 191   0.0000       6.545649       178.1162 
 192   0.0000       6.545649       178.1162 
 193   0.0000       6.754361       183.7955 
 194   0.0000       6.754361       183.7955 
 195   0.0000       6.822938       185.6616 
 196   0.0000       7.017130       190.9458 
 197   0.0000       7.017130       190.9458 
 198   0.0000       7.709542       209.7873 
 199   0.0000       7.945087       216.1968 
 200   0.0000       8.215076       223.5436 
 201   0.0000       8.215076       223.5436 
 202   0.0000       9.059083       246.5102 
 203   0.0000       9.059083       246.5102 
 204   0.0000       9.705545       264.1013 
 205   0.0000      10.024382       272.7773 
 206   0.0000      10.024382       272.7773 
 207   0.0000      10.126818       275.5647 
 208   0.0000      10.126818       275.5647 
 209   0.0000      10.241823       278.6942 
 210   0.0000      10.265240       279.3314 
 211   0.0000      10.265240       279.3314 
 212   0.0000      10.357627       281.8454 
 213   0.0000      10.357627       281.8454 
 214   0.0000      10.493618       285.5459 
 215   0.0000      10.493618       285.5459 
 216   0.0000      10.722353       291.7701 
 217   0.0000      10.722353       291.7701 
 218   0.0000      10.774976       293.2020 
 219   0.0000      11.015636       299.7507 
 220   0.0000      11.015636       299.7507 
 221   0.0000      11.116182       302.4867 
 222   0.0000      11.116182       302.4867 
 223   0.0000      11.346938       308.7659 
 224   0.0000      11.346938       308.7659 
 225   0.0000      11.364449       309.2424 
 226   0.0000      11.364449       309.2424 
 227   0.0000      11.446394       311.4722 
 228   0.0000      11.446395       311.4722 
 229   0.0000      11.510693       313.2219 
 230   0.0000      11.510693       313.2219 
 231   0.0000      11.522066       313.5314 
 232   0.0000      11.638284       316.6938 
 233   0.0000      11.638284       316.6938 
 234   0.0000      11.780705       320.5693 
 235   0.0000      11.780705       320.5693 
 236   0.0000      11.857021       322.6459 
 237   0.0000      11.857021       322.6459 
 238   0.0000      12.099514       329.2445 
 239   0.0000      12.099514       329.2445 
 240   0.0000      12.440137       338.5133 
 241   0.0000      12.440137       338.5133 
 242   0.0000      12.591736       342.6386 
 243   0.0000      12.591737       342.6386 
 244   0.0000      12.776858       347.6760 
 245   0.0000      12.994699       353.6037 
 246   0.0000      12.994699       353.6037 
 247   0.0000      13.546762       368.6261 
 248   0.0000      13.678864       372.2208 
 249   0.0000      13.678864       372.2208 
 250   0.0000      14.225609       387.0985 
 251   0.0000      14.225610       387.0985 
 252   0.0000      14.496055       394.4577 
 253   0.0000      14.496055       394.4577 
 254   0.0000      14.668249       399.1433 
 255   0.0000      15.020830       408.7376 
 256   0.0000      15.020831       408.7376 
 257   0.0000      15.366105       418.1330 
 258   0.0000      15.366105       418.1330 
 259   0.0000      15.371958       418.2922 
 260   0.0000      15.746238       428.4769 
 261   0.0000      15.746238       428.4769 
 262   0.0000      15.859628       431.5624 
 263   0.0000      16.682687       453.9590 
 264   0.0000      16.682687       453.9590 
 265   0.0000      16.824632       457.8215 
 266   0.0000      16.824633       457.8215 
 267   0.0000      17.378510       472.8933 
 268   0.0000      17.675286       480.9690 
 269   0.0000      17.675286       480.9690 
 270   0.0000      18.638933       507.1911 
 271   0.0000      19.038889       518.0745 
 272   0.0000      19.038889       518.0745 
 273   0.0000      21.568812       586.9172 
 274   0.0000      23.941163       651.4722 
 275   0.0000      26.015286       707.9119 
 276   0.0000      26.015286       707.9119 
 277   0.0000      27.888771       758.8920 
 278   0.0000      31.800034       865.3229 
 279   0.0000      31.800037       865.3230 
 280   0.0000      32.868089       894.3862 
 281   0.0000      32.868089       894.3862 
 282   0.0000      34.305411       933.4977 
 283   0.0000      47.615745      1295.6903 
 284   0.0000      47.615751      1295.6904 
 285   0.0000      47.910422      1303.7089 
 286   0.0000      47.910422      1303.7089 
 287   0.0000      48.874137      1329.9329 
 288   0.0000      74.003472      2013.7368 
 289   0.0000     104.248690      2836.7511 

                    ********************************
                    * MULLIKEN POPULATION ANALYSIS *
                    ********************************

--------------------------------------------
MULLIKEN ATOMIC CHARGES AND SPIN POPULATIONS
--------------------------------------------
   0 N :    0.057779    0.228123
   1 C :   -0.057779    0.771877
Sum of atomic charges         :    0.0000000
Sum of atomic spin populations:    1.0000000

-----------------------------------------------------
MULLIKEN REDUCED ORBITAL CHARGES AND SPIN POPULATIONS
-----------------------------------------------------
CHARGE
  0 N s       :     3.679275  s :     3.679275
      pz      :     0.974451  p :     3.218255
      px      :     1.121902
      py      :     1.121902
      dz2     :     0.004552  d :     0.039174
      dxz     :     0.017311
      dyz     :     0.017311
      dx2y2   :     0.000000
      dxy     :     0.000000
      f0      :     0.000312  f :     0.004814
      f+1     :     0.002251
      f-1     :     0.002251
      f+2     :    -0.000000
      f-2     :    -0.000000
      f+3     :     0.000000
      f-3     :     0.000000
      g0      :     0.000019  g :     0.000642
      g+1     :     0.000312
      g-1     :     0.000312
      g+2     :    -0.000000
      g-2     :    -0.000000
      g+3     :     0.000000
      g-3     :     0.000000
      g+4     :     0.000000
      g-4     :     0.000000
      h0      :     0.000006  h :     0.000062
      h+1     :     0.000028
      h-1     :     0.000028
      h+2     :     0.000000
      h-2     :     0.000000
      h+3     :     0.000000
      h-3     :     0.000000
      h+4     :     0.000000
      h-4     :     0.000000
      h+5     :     0.000000
      h-5     :     0.000000
  1 C s       :     3.509205  s :     3.509205
      pz      :     0.803951  p :     2.468569
      px      :     0.832309
      py      :     0.832309
      dz2     :     0.025825  d :     0.070172
      dxz     :     0.022174
      dyz     :     0.022174
      dx2y2   :     0.000000
      dxy     :     0.000000
      f0      :     0.002175  f :     0.008668
      f+1     :     0.003246
      f-1     :     0.003246
      f+2     :    -0.000000
      f-2     :    -0.000000
      f+3     :     0.000000
      f-3     :     0.000000
      g0      :     0.000218  g :     0.001106
      g+1     :     0.000444
      g-1     :     0.000444
      g+2     :     0.000000
      g-2     :     0.000000
      g+3     :     0.000000
      g-3     :     0.000000
      g+4     :     0.000000
      g-4     :     0.000000
      h0      :     0.000013  h :     0.000059
      h+1     :     0.000023
      h-1     :     0.000023
      h+2     :    -0.000000
      h-2     :    -0.000000
      h+3     :     0.000000
      h-3     :     0.000000
      h+4     :     0.000000
      h-4     :     0.000000
      h+5     :     0.000000
      h-5     :     0.000000

SPIN
  0 N s       :     0.077578  s :     0.077578
      pz      :     0.217149  p :     0.148570
      px      :    -0.034290
      py      :    -0.034290
      dz2     :     0.001983  d :     0.000883
      dxz     :    -0.000550
      dyz     :    -0.000550
      dx2y2   :     0.000000
      dxy     :    -0.000000
      f0      :     0.000287  f :     0.001168
      f+1     :     0.000441
      f-1     :     0.000441
      f+2     :    -0.000000
      f-2     :     0.000000
      f+3     :     0.000000
      f-3     :     0.000000
      g0      :    -0.000065  g :    -0.000073
      g+1     :    -0.000004
      g-1     :    -0.000004
      g+2     :    -0.000000
      g-2     :    -0.000000
      g+3     :     0.000000
      g-3     :     0.000000
      g+4     :     0.000000
      g-4     :     0.000000
      h0      :    -0.000003  h :    -0.000004
      h+1     :    -0.000001
      h-1     :    -0.000001
      h+2     :     0.000000
      h-2     :     0.000000
      h+3     :    -0.000000
      h-3     :    -0.000000
      h+4     :    -0.000000
      h-4     :    -0.000000
      h+5     :    -0.000000
      h-5     :    -0.000000
  1 C s       :     0.231331  s :     0.231331
      pz      :     0.471779  p :     0.553656
      px      :     0.040938
      py      :     0.040938
      dz2     :    -0.001097  d :    -0.015883
      dxz     :    -0.007393
      dyz     :    -0.007393
      dx2y2   :     0.000000
      dxy     :     0.000000
      f0      :     0.000900  f :     0.002507
      f+1     :     0.000804
      f-1     :     0.000804
      f+2     :    -0.000000
      f-2     :     0.000000
      f+3     :    -0.000000
      f-3     :    -0.000000
      g0      :     0.000146  g :     0.000248
      g+1     :     0.000051
      g-1     :     0.000051
      g+2     :     0.000000
      g-2     :     0.000000
      g+3     :    -0.000000
      g-3     :    -0.000000
      g+4     :     0.000000
      g-4     :     0.000000
      h0      :     0.000012  h :     0.000018
      h+1     :     0.000003
      h-1     :     0.000003
      h+2     :    -0.000000
      h-2     :    -0.000000
      h+3     :    -0.000000
      h-3     :    -0.000000
      h+4     :     0.000000
      h-4     :    -0.000000
      h+5     :     0.000000
      h-5     :     0.000000


                     *******************************
                     * LOEWDIN POPULATION ANALYSIS *
                     *******************************

-------------------------------------------
LOEWDIN ATOMIC CHARGES AND SPIN POPULATIONS
-------------------------------------------
   0 N :    0.022080    0.339238
   1 C :   -0.022080    0.660762

----------------------------------------------------
LOEWDIN REDUCED ORBITAL CHARGES AND SPIN POPULATIONS
----------------------------------------------------
CHARGE
  0 N s       :     3.197662  s :     3.197662
      pz      :     1.370576  p :     3.387463
      px      :     1.008444
      py      :     1.008444
      dz2     :     0.144108  d :     0.267171
      dxz     :     0.061532
      dyz     :     0.061532
      dx2y2   :     0.000000
      dxy     :     0.000000
      f0      :     0.038874  f :     0.093566
      f+1     :     0.027346
      f-1     :     0.027346
      f+2     :     0.000000
      f-2     :     0.000000
      f+3     :     0.000000
      f-3     :     0.000000
      g0      :     0.012351  g :     0.026877
      g+1     :     0.007263
      g-1     :     0.007263
      g+2     :     0.000000
      g-2     :     0.000000
      g+3     :     0.000000
      g-3     :     0.000000
      g+4     :     0.000000
      g-4     :     0.000000
      h0      :     0.002432  h :     0.005180
      h+1     :     0.001374
      h-1     :     0.001374
      h+2     :     0.000000
      h-2     :     0.000000
      h+3     :     0.000000
      h-3     :     0.000000
      h+4     :     0.000000
      h-4     :     0.000000
      h+5     :     0.000000
      h-5     :     0.000000
  1 C s       :     2.958746  s :     2.958746
      pz      :     1.008756  p :     2.518529
      px      :     0.754886
      py      :     0.754886
      dz2     :     0.205894  d :     0.380511
      dxz     :     0.087309
      dyz     :     0.087309
      dx2y2   :     0.000000
      dxy     :     0.000000
      f0      :     0.048191  f :     0.126933
      f+1     :     0.039371
      f-1     :     0.039371
      f+2     :     0.000000
      f-2     :     0.000000
      f+3     :     0.000000
      f-3     :     0.000000
      g0      :     0.010580  g :     0.032722
      g+1     :     0.011071
      g-1     :     0.011071
      g+2     :     0.000000
      g-2     :     0.000000
      g+3     :     0.000000
      g-3     :     0.000000
      g+4     :     0.000000
      g-4     :     0.000000
      h0      :     0.001830  h :     0.004638
      h+1     :     0.001404
      h-1     :     0.001404
      h+2     :     0.000000
      h-2     :     0.000000
      h+3     :     0.000000
      h-3     :     0.000000
      h+4     :     0.000000
      h-4     :     0.000000
      h+5     :     0.000000
      h-5     :     0.000000

SPIN
  0 N s       :     0.079784  s :     0.079784
      pz      :     0.233807  p :     0.181421
      px      :    -0.026193
      py      :    -0.026193
      dz2     :     0.043785  d :     0.050414
      dxz     :     0.003314
      dyz     :     0.003314
      dx2y2   :     0.000000
      dxy     :    -0.000000
      f0      :     0.014765  f :     0.020030
      f+1     :     0.002632
      f-1     :     0.002632
      f+2     :     0.000000
      f-2     :     0.000000
      f+3     :     0.000000
      f-3     :     0.000000
      g0      :     0.004437  g :     0.005891
      g+1     :     0.000727
      g-1     :     0.000727
      g+2     :     0.000000
      g-2     :    -0.000000
      g+3     :     0.000000
      g-3     :     0.000000
      g+4     :     0.000000
      g-4     :     0.000000
      h0      :     0.001292  h :     0.001700
      h+1     :     0.000204
      h-1     :     0.000204
      h+2     :     0.000000
      h-2     :     0.000000
      h+3     :    -0.000000
      h-3     :    -0.000000
      h+4     :    -0.000000
      h-4     :    -0.000000
      h+5     :    -0.000000
      h-5     :    -0.000000
  1 C s       :     0.211090  s :     0.211090
      pz      :     0.401039  p :     0.461730
      px      :     0.030345
      py      :     0.030345
      dz2     :     0.005021  d :    -0.014795
      dxz     :    -0.009908
      dyz     :    -0.009908
      dx2y2   :     0.000000
      dxy     :    -0.000000
      f0      :     0.003986  f :     0.002383
      f+1     :    -0.000801
      f-1     :    -0.000801
      f+2     :     0.000000
      f-2     :     0.000000
      f+3     :    -0.000000
      f-3     :    -0.000000
      g0      :     0.000777  g :     0.000156
      g+1     :    -0.000310
      g-1     :    -0.000310
      g+2     :     0.000000
      g-2     :     0.000000
      g+3     :    -0.000000
      g-3     :    -0.000000
      g+4     :     0.000000
      g-4     :     0.000000
      h0      :     0.000216  h :     0.000198
      h+1     :    -0.000009
      h-1     :    -0.000009
      h+2     :     0.000000
      h-2     :    -0.000000
      h+3     :    -0.000000
      h-3     :    -0.000000
      h+4     :     0.000000
      h-4     :     0.000000
      h+5     :     0.000000
      h-5     :     0.000000


                      *****************************
                      * MAYER POPULATION ANALYSIS *
                      *****************************

  NA   - Mulliken gross atomic population
  ZA   - Total nuclear charge
  QA   - Mulliken gross atomic charge
  VA   - Mayer's total valence
  BVA  - Mayer's bonded valence
  FA   - Mayer's free valence

  ATOM       NA         ZA         QA         VA         BVA        FA
  0 N      6.9422     7.0000     0.0578     3.1633     3.0734     0.0899
  1 C      6.0578     6.0000    -0.0578     3.5865     3.0734     0.5131

  Mayer bond orders larger than 0.1
B(  0-N ,  1-C ) :   3.0734 

-------
TIMINGS
-------

Total SCF time: 0 days 0 hours 27 min 45 sec 

Total time                  ....    1665.070 sec
Sum of individual times     ....    1664.550 sec  (100.0%)

Fock matrix formation       ....    1659.457 sec  ( 99.7%)
  XC integration            ....      74.493 sec  (  4.5% of F)
    Basis function eval.    ....       5.604 sec  (  7.5% of XC)
    Density eval.           ....      14.467 sec  ( 19.4% of XC)
    XC-Functional eval.     ....       0.902 sec  (  1.2% of XC)
    XC-Potential eval.      ....      52.851 sec  ( 70.9% of XC)
Diagonalization             ....       0.768 sec  (  0.0%)
Density matrix formation    ....       0.016 sec  (  0.0%)
Population analysis         ....       0.072 sec  (  0.0%)
Initial guess               ....       2.310 sec  (  0.1%)
Orbital Transformation      ....       0.000 sec  (  0.0%)
Orbital Orthonormalization  ....       0.000 sec  (  0.0%)
DIIS solution               ....       0.395 sec  (  0.0%)
Grid generation             ....       1.532 sec  (  0.1%)

-------------------------   --------------------
FINAL SINGLE POINT ENERGY       -92.649566807678
-------------------------   --------------------


                            ***************************************
                            *     ORCA property calculations      *
                            ***************************************

                                    ---------------------
                                    Active property flags
                                    ---------------------
   (+) Dipole Moment
   (+) Polarizability


------------------------------------------------------------------------------
                       ORCA ELECTRIC PROPERTIES CALCULATION
------------------------------------------------------------------------------

Dipole Moment Calculation                       ... on
Quadrupole Moment Calculation                   ... off
Polarizability Calculation                      ... Analytic (CP-SCF)
GBWName                                         ... cn_pbe.gbw
Electron density file                           ... cn_pbe.scfp.tmp
The origin for moment calculation is the CENTER OF MASS  = ( 0.000000,  0.000000  1.022251)

-------------
DIPOLE MOMENT
-------------
                                X             Y             Z
Electronic contribution:      0.00000       0.00000       0.45729
Nuclear contribution   :      0.00000       0.00000      -0.00298
                        -----------------------------------------
Total Dipole Moment    :      0.00000       0.00000       0.45431
                        -----------------------------------------
Magnitude (a.u.)       :      0.45431
Magnitude (Debye)      :      1.15477



--------------------
Rotational spectrum 
--------------------
 
Rotational constants in cm-1:     0.000000     1.898626     1.898626 
Rotational constants in MHz :     0.000000 56919.389108 56919.389108 

 Dipole components along the rotational axes: 
x,y,z [a.u.] :     0.454312     0.000000     0.000000 
x,y,z [Debye]:     1.154770     0.000000     0.000000 

 
Transforming and storing MO dipole integrals   ... done

                ... starting polarizability calculation

Opening the Dipole integral file               ... (cn_pbe.dmo.tmp) done
Reading Dipole-MO integrals                    ... done
Solving CP-SCF equations                       ... 
------------------------------------------------------------------------------
                           ORCA CP-SCF CALCULATION
------------------------------------------------------------------------------

Input orbitals are from        ... cn_pbe.gbw
Input Perturbation             ... cn_pbe.cpv.tmp
Wavefunction output            ... cn_pbe.cpu.tmp
Perturbation mode              ... Real perturbation (singlet)
Solver                         ... POPLE
Max. number of iterations      ... 200
Convergence tolerance          ... 1.000e-06
Integral handling              ... Direct
Number of perturbations        ... 3
Number of operators            ... 2
Orbital ranges used for CP-SCF:
 Operator 0:  Orbitals   0...  6  to   7...289
 Operator 1:  Orbitals   0...  5  to   6...289
DFT calculation                         ... on
Exchange functional (SCF)               ... PBE
Exchange functional (CP-SCF)            ... PBE
   PBE kappa parameter  XKappa (SCF)    ...  0.804000
   PBE kappa parameter  XKappa (CP-SCF) ...  0.804000
   PBE mue parameter   XMuePBE (SCF)    ...  0.219520
   PBE mue parameter   XMuePBE (CP-SCF) ...  0.219520
Correlation functional (SCF)            ... PBE
Correlation functional (CP-SCF)         ... PBE
   PBE beta parameter CBetaPBE (SCF)    ...  0.066725
   PBE beta parameter CBetaPBE (CP-SCF) ...  0.066725
 LDA part of GGA corr.  LDAOpt (SCF)    ... PW91-LDA
 LDA part of GGA corr.  LDAOpt (CP-SCF) ... PW91-LDA
Variables per vector in CP-SCF ... 3685
Number of vectors sought       ... 3
Recalculating density on grid  ... done
Calculating the xc-kernel      ... done
     CP-SCF ITERATION   0: 
     CP-SCF ITERATION   1:      0.608044991293
     CP-SCF ITERATION   2:      0.229997205741
     CP-SCF ITERATION   3:      0.025647434602
     CP-SCF ITERATION   4:      0.001744952685
     CP-SCF ITERATION   5:      0.000034889728
     CP-SCF ITERATION   6:      0.000000703106
done
Reading CP-SCF coefficients                    ... done
Doing the polarizability tensor   ... done
Cleaning up                                    ... done

-------------------------
THE POLARIZABILITY TENSOR
-------------------------

The raw cartesian tensor (atomic units):
   17.42113      0.00000      0.00000  
    0.00000     17.42113      0.00000  
    0.00000      0.00000     26.88183  
diagonalized tensor: 
   17.42113     17.42113     26.88183  

   -0.99984     -0.01806      0.00000  
    0.01806     -0.99984      0.00000  
    0.00000      0.00000      1.00000  

Isotropic polarizability :  20.57469


Timings for individual modules:

Sum of individual times         ...     2686.697 sec (=  44.778 min)
GTO integral calculation        ...        0.901 sec (=   0.015 min)   0.0 %
SCF iterations                  ...     1665.098 sec (=  27.752 min)  62.0 %
Solution of CP-SCF eqns.        ...     1020.698 sec (=  17.012 min)  38.0 %
                             ****ORCA TERMINATED NORMALLY****
TOTAL RUN TIME: 0 days 0 hours 44 minutes 47 seconds 15 msec
