
                                 *****************
                                 * O   R   C   A *
                                 *****************

           --- An Ab Initio, DFT and Semiempirical electronic structure package ---

                  #######################################################
                  #                        -***-                        #
                  #          Department of theory and spectroscopy      #
                  #               Directorship: Frank Neese             #
                  #        Max Planck Institute fuer Kohlenforschung    #
                  #                Kaiser Wilhelm Platz 1               #
                  #                 D-45470 Muelheim/Ruhr               #
                  #                      Germany                        #
                  #                                                     #
                  #                  All rights reserved                #
                  #                        -***-                        #
                  #######################################################


                         Program Version 4.1.2  - RELEASE  -


 With contributions from (in alphabetic order):
   Daniel Aravena         : Magnetic Properties
   Michael Atanasov       : Ab Initio Ligand Field Theory
   Alexander A. Auer      : GIAO ZORA
   Ute Becker             : Parallelization
   Giovanni Bistoni       : ED, Open-shell LED
   Martin Brehm           : Molecular dynamics
   Dmytro Bykov           : SCF Hessian
   Vijay G. Chilkuri      : MRCI spin determinant printing
   Dipayan Datta          : RHF DLPNO-CCSD density
   Achintya Kumar Dutta   : EOM-CC, STEOM-CC
   Dmitry Ganyushin       : Spin-Orbit,Spin-Spin,Magnetic field MRCI
   Miquel Garcia          : C-PCM Hessian
   Yang Guo               : DLPNO-NEVPT2, CIM, IAO-localization
   Andreas Hansen         : Spin unrestricted coupled pair/coupled cluster methods
   Benjamin Helmich-Paris : CASSCF linear response (MC-RPA)
   Lee Huntington         : MR-EOM, pCC
   Robert Izsak           : Overlap fitted RIJCOSX, COSX-SCS-MP3, EOM
   Christian Kollmar      : KDIIS, OOCD, Brueckner-CCSD(T), CCSD density
   Simone Kossmann        : Meta GGA functionals, TD-DFT gradient, OOMP2, MP2 Hessian
   Martin Krupicka        : AUTO-CI
   Lucas Lang             : DCDCAS
   Dagmar Lenk            : GEPOL surface, SMD
   Dimitrios Liakos       : Extrapolation schemes; parallel MDCI
   Dimitrios Manganas     : ROCIS; embedding schemes
   Dimitrios Pantazis     : SARC Basis sets
   Taras Petrenko         : DFT Hessian,TD-DFT gradient, ASA, ECA, R-Raman, ABS, FL, XAS/XES, NRVS
   Peter Pinski           : DLPNO-MP2, DLPNO-MP2 Gradient
   Christoph Reimann      : Effective Core Potentials
   Marius Retegan         : Local ZFS, SOC
   Christoph Riplinger    : Optimizer, TS searches, QM/MM, DLPNO-CCSD(T), (RO)-DLPNO pert. Triples
   Tobias Risthaus        : Range-separated hybrids, TD-DFT gradient, RPA, STAB
   Michael Roemelt        : Restricted open shell CIS
   Masaaki Saitow         : Open-shell DLPNO
   Barbara Sandhoefer     : DKH picture change effects
   Avijit Sen             : IP-ROCIS
   Kantharuban Sivalingam : CASSCF convergence, NEVPT2, FIC-MRCI
   Bernardo de Souza      : ESD, SOC TD-DFT
   Georgi Stoychev        : AutoAux, RI-MP2 NMR
   Willem Van den Heuvel  : Paramagnetic NMR
   Boris Wezisla          : Elementary symmetry handling
   Frank Wennmohs         : Technical directorship


 We gratefully acknowledge several colleagues who have allowed us to
 interface, adapt or use parts of their codes:
   Stefan Grimme, W. Hujo, H. Kruse,             : VdW corrections, initial TS optimization,
                  C. Bannwarth                     DFT functionals, gCP, sTDA/sTD-DF
   Ed Valeev                                     : LibInt (2-el integral package), F12 methods
   Garnet Chan, S. Sharma, J. Yang, R. Olivares  : DMRG
   Ulf Ekstrom                                   : XCFun DFT Library
   Mihaly Kallay                                 : mrcc  (arbitrary order and MRCC methods)
   Andreas Klamt, Michael Diedenhofen            : otool_cosmo (COSMO solvation model)
   Jiri Pittner, Ondrej Demel                    : Mk-CCSD
   Frank Weinhold                                : gennbo (NPA and NBO analysis)
   Christopher J. Cramer and Donald G. Truhlar   : smd solvation model
   Lars Goerigk                                  : TD-DFT with DH, B97 family of functionals
   V. Asgeirsson, H. Jonsson                     : NEB implementation
   FAccTs GmbH                                   : IRC, NEB, NEB-TS, Multilevel


 Your calculation uses the libint2 library for the computation of 2-el integrals
 For citations please refer to: http://libint.valeyev.net

 This ORCA versions uses:
   CBLAS   interface :  Fast vector & matrix operations
   LAPACKE interface :  Fast linear algebra routines
   SCALAPACK package :  Parallel linear algebra routines


----- Orbital basis set information -----
Your calculation utilizes the basis: aug-pc-4
   H, C-F              : F. Jensen, J. Chem. Phys. 115, 9113 (2001).
                         F. Jensen, J. Chem. Phys. 116, 7372 (2002).
                         F. Jensen, J. Chem. Phys. 117, 9234 (2002).
   Si-Cl               : F. Jensen, T. Helgaker, J. Chem. Phys. 121, 3463 (2004).
   He-B, Ne-Mg, Al, Ar : F. Jensen, J. Phys. Chem. A 111, 11198 (2007).
   K, Ca, Ga-Kr        : F. Jensen, J. Chem. Phys. 136, 094110 (2012).
   Sc-Zn               : F. Jensen, J. Chem. Phys. 138, 014107 (2013).

================================================================================
                                        WARNINGS
                       Please study these warnings very carefully!
================================================================================


INFO   : the flag for use of LIBINT has been found!

================================================================================
                                       INPUT FILE
================================================================================
NAME = co2_pbe.inp
|  1> !uks pbe nori aug-pc-4 grid7 nofinalgrid verytightscf
|  2> 
|  3> %maxcore 1500
|  4> 
|  5> %pal nprocs 1 end
|  6> 
|  7> %scf
|  8> 	maxiter 200
|  9> end
| 10> %elprop
| 11> 	dipole true
| 12> 	 polar 1
| 13> 	 maxiter 200
| 14> end
| 15> 
| 16> * xyz 0 1
| 17> C 0.0000 0.0000 0.0000
| 18> O 0.0000 0.0000 1.1621
| 19> O 0.0000 0.0000 -1.1621
| 20> *
| 21> 
| 22>                          ****END OF INPUT****
================================================================================

                       ****************************
                       * Single Point Calculation *
                       ****************************

---------------------------------
CARTESIAN COORDINATES (ANGSTROEM)
---------------------------------
  C      0.000000    0.000000    0.000000
  O      0.000000    0.000000    1.162100
  O      0.000000    0.000000   -1.162100

----------------------------
CARTESIAN COORDINATES (A.U.)
----------------------------
  NO LB      ZA    FRAG     MASS         X           Y           Z
   0 C     6.0000    0    12.011    0.000000    0.000000    0.000000
   1 O     8.0000    0    15.999    0.000000    0.000000    2.196051
   2 O     8.0000    0    15.999    0.000000    0.000000   -2.196051

--------------------------------
INTERNAL COORDINATES (ANGSTROEM)
--------------------------------
 C      0   0   0     0.000000000000     0.00000000     0.00000000
 O      1   0   0     1.162100000000     0.00000000     0.00000000
 O      1   2   0     1.162100000000   180.00000000     0.00000000

---------------------------
INTERNAL COORDINATES (A.U.)
---------------------------
 C      0   0   0     0.000000000000     0.00000000     0.00000000
 O      1   0   0     2.196050740230     0.00000000     0.00000000
 O      1   2   0     2.196050740230   180.00000000     0.00000000

---------------------
BASIS SET INFORMATION
---------------------
There are 2 groups of distinct atoms

 Group   1 Type C   : 28s12p7d4f3g2h contracted to 9s8p7d4f3g2h pattern {11101111111/51111111/1111111/1111/111/11}
 Group   2 Type O   : 27s12p7d4f3g2h contracted to 9s8p7d4f3g2h pattern {1191111111/51111111/1111111/1111/111/11}

Atom   0C    basis set group =>   1
Atom   1O    basis set group =>   2
Atom   2O    basis set group =>   2
------------------------------------------------------------------------------
                           ORCA GTO INTEGRAL CALCULATION
------------------------------------------------------------------------------

                         BASIS SET STATISTICS AND STARTUP INFO

 # of primitive gaussian shells          ...  166
 # of primitive gaussian functions       ...  526
 # of contracted shells                  ...   99
 # of contracted basis functions         ...  435
 Highest angular momentum                ...    5
 Maximum contraction depth               ...   11
 Integral package used                   ... LIBINT
 Integral threshhold            Thresh   ...  1.000e-12
 Primitive cut-off              TCut     ...  1.000e-14


------------------------------ INTEGRAL EVALUATION ----------------------------


 * One electron integrals 
 Pre-screening matrix                    ... done
 Shell pair data                         ... done (   0.002 sec)

-------------------------------------------------------------------------------
                                 ORCA SCF
-------------------------------------------------------------------------------

------------
SCF SETTINGS
------------
Hamiltonian:
 Density Functional     Method          .... DFT(GTOs)
 Exchange Functional    Exchange        .... PBE
   PBE kappa parameter   XKappa         ....  0.804000
   PBE mue parameter    XMuePBE         ....  0.219520
 Correlation Functional Correlation     .... PBE
   PBE beta parameter  CBetaPBE         ....  0.066725
 LDA part of GGA corr.  LDAOpt          .... PW91-LDA
 Gradients option       PostSCFGGA      .... off
   Density functional embedding theory  .... OFF
   NL short-range parameter             ....  6.400000


General Settings:
 Integral files         IntName         .... co2_pbe
 Hartree-Fock type      HFTyp           .... UHF
 Total Charge           Charge          ....    0
 Multiplicity           Mult            ....    1
 Number of Electrons    NEL             ....   22
 Basis Dimension        Dim             ....  435
 Nuclear Repulsion      ENuc            ....     58.2864492405 Eh

Convergence Acceleration:
 DIIS                   CNVDIIS         .... on
   Start iteration      DIISMaxIt       ....    12
   Startup error        DIISStart       ....  0.200000
   # of expansion vecs  DIISMaxEq       ....     5
   Bias factor          DIISBfac        ....   1.050
   Max. coefficient     DIISMaxC        ....  10.000
 Newton-Raphson         CNVNR           .... off
 SOSCF                  CNVSOSCF        .... off
 Level Shifting         CNVShift        .... on
   Level shift para.    LevelShift      ....    0.2500
   Turn off err/grad.   ShiftErr        ....    0.0010
 Zerner damping         CNVZerner       .... off
 Static damping         CNVDamp         .... on
   Fraction old density DampFac         ....    0.7000
   Max. Damping (<1)    DampMax         ....    0.9800
   Min. Damping (>=0)   DampMin         ....    0.0000
   Turn off err/grad.   DampErr         ....    0.1000
 Fernandez-Rico         CNVRico         .... off

SCF Procedure:
 Maximum # iterations   MaxIter         ....   200
 SCF integral mode      SCFMode         .... Direct
   Integral package                     .... LIBINT
 Reset frequency        DirectResetFreq ....    20
 Integral Threshold     Thresh          ....  1.000e-12 Eh
 Primitive CutOff       TCut            ....  1.000e-14 Eh

Convergence Tolerance:
 Convergence Check Mode ConvCheckMode   .... Total+1el-Energy
 Convergence forced     ConvForced      .... 0
 Energy Change          TolE            ....  1.000e-09 Eh
 1-El. energy change                    ....  1.000e-06 Eh
 DIIS Error             TolErr          ....  1.000e-08


Diagonalization of the overlap matrix:
Smallest eigenvalue                        ... 2.617e-07
Time for diagonalization                   ...    0.038 sec
Threshold for overlap eigenvalues          ... 1.000e-08
Number of eigenvalues below threshold      ... 0
Time for construction of square roots      ...    0.025 sec
Total time needed                          ...    0.063 sec

-------------------
DFT GRID GENERATION
-------------------

General Integration Accuracy     IntAcc      ...  5.670
Radial Grid Type                 RadialGrid  ... Gauss-Chebyshev
Angular Grid (max. acc.)         AngularGrid ... Lebedev-770
Angular grid pruning method      GridPruning ... 3 (G Style)
Weight generation scheme         WeightScheme... Becke
Basis function cutoff            BFCut       ...    1.0000e-12
Integration weight cutoff        WCut        ...    1.0000e-14
Grids for H and He will be reduced by one unit

# of grid points (after initial pruning)     ...  75054 (   0.0 sec)
# of grid points (after weights+screening)   ...  74146 (   0.0 sec)
nearest neighbour list constructed           ...    0.0 sec
Grid point re-assignment to atoms done       ...    0.0 sec
Grid point division into batches done        ...    1.7 sec
Reduced shell lists constructed in    2.7 sec

Total number of grid points                  ...    74146
Total number of batches                      ...     1161
Average number of points per batch           ...       63
Average number of grid points per atom       ...    24715
Average number of shells per batch           ...    70.87 (71.58%)
Average number of basis functions per batch  ...   322.19 (74.07%)
Average number of large shells per batch     ...    63.06 (88.98%)
Average number of large basis fcns per batch ...   287.84 (89.34%)
Maximum spatial batch extension              ...  20.53, 20.36, 13.70 au
Average spatial batch extension              ...   2.45,  2.38,  1.97 au

Time for grid setup =    2.711 sec

------------------------------
INITIAL GUESS: MODEL POTENTIAL
------------------------------
Loading Hartree-Fock densities                     ... done
Calculating cut-offs                               ... done
Setting up the integral package                    ... done
Initializing the effective Hamiltonian             ... done
Starting the Coulomb interaction                   ... done (   0.1 sec)
Reading the grid                                   ... done
Mapping shells                                     ... done
Starting the XC term evaluation                    ... done (   5.9 sec)
  promolecular density results
     # of electrons  =     21.999998964
     EX              =    -21.387209398
     EC              =     -0.731582567
     EX+EC           =    -22.118791965
Transforming the Hamiltonian                       ... done (   0.0 sec)
Diagonalizing the Hamiltonian                      ... done (   0.0 sec)
Back transforming the eigenvectors                 ... done (   0.0 sec)
Now organizing SCF variables                       ... done
                      ------------------
                      INITIAL GUESS DONE (   9.0 sec)
                      ------------------
--------------
SCF ITERATIONS
--------------
ITER       Energy         Delta-E        Max-DP      RMS-DP      [F,P]     Damp
               ***  Starting incremental Fock matrix formation  ***
  0   -188.3837001362   0.000000000000 0.01791007  0.00015919  0.2281279 0.7000
  1   -188.4419202744  -0.058220138157 0.00508600  0.00008007  0.0655597 0.7000
                               ***Turning on DIIS***
  2   -188.4547288281  -0.012808553706 0.00810703  0.00010796  0.0253403 0.0000
  3   -188.4898978512  -0.035169023146 0.00394072  0.00004679  0.0302867 0.0000
  4   -188.4912928801  -0.001395028888 0.00398251  0.00002270  0.0224694 0.0000
  5   -188.4923117245  -0.001018844374 0.00068942  0.00000661  0.0043982 0.0000
  6   -188.4923609391  -0.000049214603 0.00008890  0.00000174  0.0009477 0.0000
  7   -188.4923631157  -0.000002176617 0.00002016  0.00000019  0.0000783 0.0000
  8   -188.4923631318  -0.000000016149 0.00001076  0.00000012  0.0000064 0.0000
  9   -188.4923631319  -0.000000000101 0.00002618  0.00000028  0.0000024 0.0000
 10   -188.4923631320  -0.000000000031 0.00007519  0.00000067  0.0000001 0.0000
                 **** Energy Check signals convergence ****

               *****************************************************
               *                     SUCCESS                       *
               *           SCF CONVERGED AFTER  11 CYCLES          *
               *****************************************************


----------------
TOTAL SCF ENERGY
----------------

Total Energy       :         -188.49236313 Eh           -5129.13796 eV

Components:
Nuclear Repulsion  :           58.28644924 Eh            1586.05492 eV
Electronic Energy  :         -246.77881237 Eh           -6715.19288 eV
One Electron Energy:         -372.76216018 Eh          -10143.37406 eV
Two Electron Energy:          125.98334781 Eh            3428.18118 eV

Virial components:
Potential Energy   :         -376.44141085 Eh          -10243.49156 eV
Kinetic Energy     :          187.94904772 Eh            5114.35360 eV
Virial Ratio       :            2.00289076


DFT components:
N(Alpha)           :       10.999999903323 electrons
N(Beta)            :       10.999999903323 electrons
N(Total)           :       21.999999806645 electrons
E(X)               :      -21.626487328985 Eh       
E(C)               :       -0.739075431824 Eh       
E(XC)              :      -22.365562760809 Eh       
DFET-embed. en.    :        0.000000000000 Eh       

---------------
SCF CONVERGENCE
---------------

  Last Energy change         ...    8.9813e-12  Tolerance :   1.0000e-09
  Last MAX-Density change    ...    1.2352e-04  Tolerance :   1.0000e-08
  Last RMS-Density change    ...    1.1409e-06  Tolerance :   1.0000e-09
  Last DIIS Error            ...    8.9279e-09  Tolerance :   1.0000e-08

             **** THE GBW FILE WAS UPDATED (co2_pbe.gbw) ****
             **** DENSITY FILE WAS UPDATED (co2_pbe.scfp.tmp) ****
             **** ENERGY FILE WAS UPDATED (co2_pbe.en.tmp) ****
----------------------
UHF SPIN CONTAMINATION
----------------------

Warning: in a DFT calculation there is little theoretical justification to 
         calculate <S**2> as in Hartree-Fock theory. We will do it anyways
         but you should keep in mind that the values have only limited relevance

Expectation value of <S**2>     :     0.000000
Ideal value S*(S+1) for S=0.0   :     0.000000
Deviation                       :     0.000000

----------------
ORBITAL ENERGIES
----------------
                 SPIN UP ORBITALS
  NO   OCC          E(Eh)            E(eV) 
   0   1.0000     -18.831284      -512.4253 
   1   1.0000     -18.831284      -512.4253 
   2   1.0000     -10.059274      -273.7268 
   3   1.0000      -1.072251       -29.1774 
   4   1.0000      -1.035412       -28.1750 
   5   1.0000      -0.506927       -13.7942 
   6   1.0000      -0.468565       -12.7503 
   7   1.0000      -0.468565       -12.7503 
   8   1.0000      -0.466417       -12.6919 
   9   1.0000      -0.333897        -9.0858 
  10   1.0000      -0.333897        -9.0858 
  11   0.0000      -0.034488        -0.9385 
  12   0.0000      -0.012608        -0.3431 
  13   0.0000      -0.012608        -0.3431 
  14   0.0000       0.017026         0.4633 
  15   0.0000       0.017088         0.4650 
  16   0.0000       0.017088         0.4650 
  17   0.0000       0.039793         1.0828 
  18   0.0000       0.052716         1.4345 
  19   0.0000       0.052716         1.4345 
  20   0.0000       0.057949         1.5769 
  21   0.0000       0.060558         1.6479 
  22   0.0000       0.062952         1.7130 
  23   0.0000       0.062952         1.7130 
  24   0.0000       0.084765         2.3066 
  25   0.0000       0.084765         2.3066 
  26   0.0000       0.100721         2.7408 
  27   0.0000       0.111790         3.0420 
  28   0.0000       0.111790         3.0420 
  29   0.0000       0.124857         3.3975 
  30   0.0000       0.138756         3.7757 
  31   0.0000       0.138756         3.7757 
  32   0.0000       0.152841         4.1590 
  33   0.0000       0.162138         4.4120 
  34   0.0000       0.173312         4.7161 
  35   0.0000       0.173312         4.7161 
  36   0.0000       0.188369         5.1258 
  37   0.0000       0.188369         5.1258 
  38   0.0000       0.201232         5.4758 
  39   0.0000       0.201232         5.4758 
  40   0.0000       0.214179         5.8281 
  41   0.0000       0.214179         5.8281 
  42   0.0000       0.225550         6.1375 
  43   0.0000       0.226524         6.1640 
  44   0.0000       0.234666         6.3856 
  45   0.0000       0.234666         6.3856 
  46   0.0000       0.256523         6.9803 
  47   0.0000       0.256523         6.9803 
  48   0.0000       0.283037         7.7018 
  49   0.0000       0.296276         8.0621 
  50   0.0000       0.296276         8.0621 
  51   0.0000       0.306672         8.3450 
  52   0.0000       0.311581         8.4785 
  53   0.0000       0.311581         8.4785 
  54   0.0000       0.311588         8.4787 
  55   0.0000       0.314999         8.5715 
  56   0.0000       0.314999         8.5716 
  57   0.0000       0.324205         8.8221 
  58   0.0000       0.324205         8.8221 
  59   0.0000       0.328850         8.9485 
  60   0.0000       0.328850         8.9485 
  61   0.0000       0.352967         9.6047 
  62   0.0000       0.352967         9.6047 
  63   0.0000       0.354911         9.6576 
  64   0.0000       0.394058        10.7229 
  65   0.0000       0.394058        10.7229 
  66   0.0000       0.432929        11.7806 
  67   0.0000       0.447353        12.1731 
  68   0.0000       0.447353        12.1731 
  69   0.0000       0.459303        12.4983 
  70   0.0000       0.461869        12.5681 
  71   0.0000       0.461869        12.5681 
  72   0.0000       0.489605        13.3228 
  73   0.0000       0.489605        13.3228 
  74   0.0000       0.496215        13.5027 
  75   0.0000       0.496215        13.5027 
  76   0.0000       0.498140        13.5551 
  77   0.0000       0.500649        13.6234 
  78   0.0000       0.500649        13.6234 
  79   0.0000       0.503743        13.7075 
  80   0.0000       0.503743        13.7076 
  81   0.0000       0.505871        13.7654 
  82   0.0000       0.505871        13.7654 
  83   0.0000       0.546277        14.8650 
  84   0.0000       0.546277        14.8650 
  85   0.0000       0.549549        14.9540 
  86   0.0000       0.549549        14.9540 
  87   0.0000       0.567788        15.4503 
  88   0.0000       0.567788        15.4503 
  89   0.0000       0.572483        15.5780 
  90   0.0000       0.601823        16.3764 
  91   0.0000       0.601823        16.3764 
  92   0.0000       0.603887        16.4326 
  93   0.0000       0.627643        17.0790 
  94   0.0000       0.641094        17.4450 
  95   0.0000       0.641094        17.4450 
  96   0.0000       0.641345        17.4519 
  97   0.0000       0.641345        17.4519 
  98   0.0000       0.669615        18.2211 
  99   0.0000       0.669615        18.2211 
 100   0.0000       0.678600        18.4656 
 101   0.0000       0.708166        19.2702 
 102   0.0000       0.708166        19.2702 
 103   0.0000       0.719572        19.5806 
 104   0.0000       0.741381        20.1740 
 105   0.0000       0.741381        20.1740 
 106   0.0000       0.762559        20.7503 
 107   0.0000       0.762559        20.7503 
 108   0.0000       0.772628        21.0243 
 109   0.0000       0.772628        21.0243 
 110   0.0000       0.794173        21.6105 
 111   0.0000       0.829551        22.5732 
 112   0.0000       0.829551        22.5732 
 113   0.0000       0.850023        23.1303 
 114   0.0000       0.850023        23.1303 
 115   0.0000       0.864075        23.5127 
 116   0.0000       0.865438        23.5498 
 117   0.0000       0.865438        23.5498 
 118   0.0000       0.896460        24.3939 
 119   0.0000       0.905932        24.6517 
 120   0.0000       0.905932        24.6517 
 121   0.0000       0.915587        24.9144 
 122   0.0000       0.915587        24.9144 
 123   0.0000       0.924079        25.1455 
 124   0.0000       0.924079        25.1455 
 125   0.0000       0.940628        25.5958 
 126   0.0000       0.940628        25.5958 
 127   0.0000       0.943434        25.6722 
 128   0.0000       0.958031        26.0694 
 129   0.0000       0.958031        26.0694 
 130   0.0000       0.961853        26.1733 
 131   0.0000       0.961853        26.1734 
 132   0.0000       0.992988        27.0206 
 133   0.0000       0.992988        27.0206 
 134   0.0000       1.040087        28.3022 
 135   0.0000       1.040087        28.3022 
 136   0.0000       1.042402        28.3652 
 137   0.0000       1.043526        28.3958 
 138   0.0000       1.043526        28.3958 
 139   0.0000       1.062895        28.9228 
 140   0.0000       1.062895        28.9228 
 141   0.0000       1.087440        29.5907 
 142   0.0000       1.087440        29.5907 
 143   0.0000       1.116249        30.3747 
 144   0.0000       1.126375        30.6502 
 145   0.0000       1.126375        30.6502 
 146   0.0000       1.147399        31.2223 
 147   0.0000       1.147399        31.2223 
 148   0.0000       1.187852        32.3231 
 149   0.0000       1.199302        32.6347 
 150   0.0000       1.199302        32.6347 
 151   0.0000       1.221750        33.2455 
 152   0.0000       1.221750        33.2455 
 153   0.0000       1.251165        34.0459 
 154   0.0000       1.265524        34.4366 
 155   0.0000       1.265524        34.4366 
 156   0.0000       1.292915        35.1820 
 157   0.0000       1.292915        35.1820 
 158   0.0000       1.293247        35.1911 
 159   0.0000       1.293377        35.1946 
 160   0.0000       1.293377        35.1946 
 161   0.0000       1.375701        37.4347 
 162   0.0000       1.426078        38.8056 
 163   0.0000       1.426079        38.8056 
 164   0.0000       1.430915        38.9372 
 165   0.0000       1.430916        38.9372 
 166   0.0000       1.506304        40.9886 
 167   0.0000       1.620989        44.1094 
 168   0.0000       1.620989        44.1094 
 169   0.0000       1.644571        44.7511 
 170   0.0000       1.740522        47.3620 
 171   0.0000       1.740522        47.3620 
 172   0.0000       1.748212        47.5713 
 173   0.0000       1.817776        49.4642 
 174   0.0000       1.817776        49.4642 
 175   0.0000       1.892607        51.5005 
 176   0.0000       1.892607        51.5005 
 177   0.0000       1.903949        51.8091 
 178   0.0000       1.922182        52.3052 
 179   0.0000       1.922182        52.3052 
 180   0.0000       1.931589        52.5612 
 181   0.0000       2.030122        55.2424 
 182   0.0000       2.030122        55.2424 
 183   0.0000       2.115185        57.5571 
 184   0.0000       2.115185        57.5571 
 185   0.0000       2.140184        58.2374 
 186   0.0000       2.140184        58.2374 
 187   0.0000       2.165260        58.9197 
 188   0.0000       2.165260        58.9197 
 189   0.0000       2.166918        58.9648 
 190   0.0000       2.166918        58.9649 
 191   0.0000       2.170107        59.0516 
 192   0.0000       2.283043        62.1248 
 193   0.0000       2.283043        62.1248 
 194   0.0000       2.378987        64.7355 
 195   0.0000       2.386896        64.9507 
 196   0.0000       2.405640        65.4608 
 197   0.0000       2.405640        65.4608 
 198   0.0000       2.488682        67.7205 
 199   0.0000       2.488682        67.7205 
 200   0.0000       2.492430        67.8225 
 201   0.0000       2.492430        67.8225 
 202   0.0000       2.706977        73.6606 
 203   0.0000       2.776859        75.5622 
 204   0.0000       2.776859        75.5622 
 205   0.0000       2.921030        79.4853 
 206   0.0000       2.921030        79.4853 
 207   0.0000       2.969416        80.8019 
 208   0.0000       3.290855        89.5487 
 209   0.0000       3.451204        93.9120 
 210   0.0000       3.451204        93.9120 
 211   0.0000       3.515166        95.6525 
 212   0.0000       3.528058        96.0033 
 213   0.0000       3.528058        96.0033 
 214   0.0000       3.546901        96.5161 
 215   0.0000       3.824850       104.0795 
 216   0.0000       3.824850       104.0795 
 217   0.0000       4.005227       108.9878 
 218   0.0000       4.009050       109.0918 
 219   0.0000       4.009050       109.0918 
 220   0.0000       4.064039       110.5881 
 221   0.0000       4.064039       110.5881 
 222   0.0000       4.160627       113.2164 
 223   0.0000       4.160627       113.2164 
 224   0.0000       4.165916       113.3603 
 225   0.0000       4.165916       113.3603 
 226   0.0000       4.178109       113.6921 
 227   0.0000       4.209550       114.5477 
 228   0.0000       4.209550       114.5477 
 229   0.0000       4.283199       116.5518 
 230   0.0000       4.336994       118.0156 
 231   0.0000       4.336994       118.0156 
 232   0.0000       4.400663       119.7481 
 233   0.0000       4.400663       119.7481 
 234   0.0000       4.488194       122.1300 
 235   0.0000       4.655174       126.6737 
 236   0.0000       4.713397       128.2581 
 237   0.0000       4.713397       128.2581 
 238   0.0000       4.749266       129.2341 
 239   0.0000       4.749266       129.2341 
 240   0.0000       4.811011       130.9143 
 241   0.0000       4.811011       130.9143 
 242   0.0000       4.838693       131.6675 
 243   0.0000       4.838693       131.6675 
 244   0.0000       4.983835       135.6170 
 245   0.0000       4.983835       135.6170 
 246   0.0000       5.124445       139.4432 
 247   0.0000       5.124445       139.4432 
 248   0.0000       5.141377       139.9040 
 249   0.0000       5.141377       139.9040 
 250   0.0000       5.164394       140.5303 
 251   0.0000       5.182233       141.0157 
 252   0.0000       5.182233       141.0157 
 253   0.0000       5.395473       146.8183 
 254   0.0000       5.751881       156.5166 
 255   0.0000       5.809694       158.0898 
 256   0.0000       5.809694       158.0898 
 257   0.0000       5.896878       160.4622 
 258   0.0000       5.896878       160.4622 
 259   0.0000       5.901421       160.5858 
 260   0.0000       5.901421       160.5858 
 261   0.0000       5.960720       162.1994 
 262   0.0000       5.960720       162.1994 
 263   0.0000       6.068877       165.1425 
 264   0.0000       6.098353       165.9446 
 265   0.0000       6.098353       165.9446 
 266   0.0000       6.102734       166.0638 
 267   0.0000       6.102734       166.0638 
 268   0.0000       6.391101       173.9107 
 269   0.0000       6.617265       180.0649 
 270   0.0000       6.617265       180.0649 
 271   0.0000       6.783110       184.5778 
 272   0.0000       6.783110       184.5778 
 273   0.0000       6.901371       187.7958 
 274   0.0000       6.901371       187.7959 
 275   0.0000       7.035987       191.4589 
 276   0.0000       7.401112       201.3945 
 277   0.0000       7.401112       201.3945 
 278   0.0000       7.455311       202.8693 
 279   0.0000       8.072752       219.6707 
 280   0.0000       8.072752       219.6707 
 281   0.0000       8.126236       221.1261 
 282   0.0000       8.258080       224.7138 
 283   0.0000       8.258080       224.7138 
 284   0.0000       8.328912       226.6412 
 285   0.0000       8.328912       226.6412 
 286   0.0000       8.386539       228.2093 
 287   0.0000       8.386539       228.2093 
 288   0.0000       8.467585       230.4147 
 289   0.0000       9.226196       251.0576 
 290   0.0000       9.415501       256.2088 
 291   0.0000       9.415501       256.2088 
 292   0.0000       9.570184       260.4179 
 293   0.0000       9.570184       260.4179 
 294   0.0000       9.635324       262.1905 
 295   0.0000      10.133050       275.7343 
 296   0.0000      10.133051       275.7343 
 297   0.0000      10.236127       278.5392 
 298   0.0000      10.236127       278.5392 
 299   0.0000      10.324974       280.9568 
 300   0.0000      10.324974       280.9568 
 301   0.0000      10.429646       283.8051 
 302   0.0000      10.429646       283.8051 
 303   0.0000      10.463219       284.7187 
 304   0.0000      10.468973       284.8752 
 305   0.0000      10.468973       284.8752 
 306   0.0000      10.553008       287.1619 
 307   0.0000      10.553008       287.1619 
 308   0.0000      10.565830       287.5109 
 309   0.0000      10.565830       287.5109 
 310   0.0000      10.567447       287.5549 
 311   0.0000      10.658008       290.0192 
 312   0.0000      10.658008       290.0192 
 313   0.0000      10.983434       298.8744 
 314   0.0000      11.010512       299.6113 
 315   0.0000      11.076289       301.4011 
 316   0.0000      11.076289       301.4011 
 317   0.0000      11.297145       307.4109 
 318   0.0000      11.297145       307.4109 
 319   0.0000      11.392673       310.0104 
 320   0.0000      11.392673       310.0104 
 321   0.0000      11.619373       316.1792 
 322   0.0000      11.619375       316.1793 
 323   0.0000      11.643177       316.8269 
 324   0.0000      11.643177       316.8270 
 325   0.0000      11.652681       317.0856 
 326   0.0000      11.652681       317.0856 
 327   0.0000      11.850005       322.4550 
 328   0.0000      11.850005       322.4550 
 329   0.0000      11.982042       326.0479 
 330   0.0000      11.982042       326.0479 
 331   0.0000      11.993121       326.3494 
 332   0.0000      11.994071       326.3753 
 333   0.0000      11.994071       326.3753 
 334   0.0000      12.031715       327.3996 
 335   0.0000      12.031715       327.3996 
 336   0.0000      12.045561       327.7764 
 337   0.0000      12.045561       327.7764 
 338   0.0000      12.308285       334.9255 
 339   0.0000      12.374384       336.7241 
 340   0.0000      12.374384       336.7241 
 341   0.0000      12.515893       340.5748 
 342   0.0000      12.515893       340.5748 
 343   0.0000      12.567235       341.9719 
 344   0.0000      12.567235       341.9719 
 345   0.0000      12.697438       345.5149 
 346   0.0000      12.697438       345.5149 
 347   0.0000      12.952997       352.4690 
 348   0.0000      12.960044       352.6607 
 349   0.0000      12.960044       352.6607 
 350   0.0000      12.961359       352.6965 
 351   0.0000      13.039806       354.8312 
 352   0.0000      13.039806       354.8312 
 353   0.0000      13.229006       359.9796 
 354   0.0000      13.229006       359.9796 
 355   0.0000      13.240619       360.2956 
 356   0.0000      13.240619       360.2956 
 357   0.0000      13.697094       372.7169 
 358   0.0000      14.119029       384.1983 
 359   0.0000      14.119029       384.1983 
 360   0.0000      14.239396       387.4737 
 361   0.0000      14.239396       387.4737 
 362   0.0000      14.268246       388.2587 
 363   0.0000      14.941085       406.5676 
 364   0.0000      14.941085       406.5676 
 365   0.0000      14.941457       406.5777 
 366   0.0000      14.941457       406.5777 
 367   0.0000      15.740213       428.3130 
 368   0.0000      16.305752       443.7021 
 369   0.0000      16.305752       443.7021 
 370   0.0000      16.813055       457.5065 
 371   0.0000      16.944401       461.0806 
 372   0.0000      16.944401       461.0806 
 373   0.0000      16.947828       461.1738 
 374   0.0000      16.947828       461.1738 
 375   0.0000      17.118628       465.8215 
 376   0.0000      17.118628       465.8216 
 377   0.0000      17.136861       466.3177 
 378   0.0000      17.136861       466.3177 
 379   0.0000      17.308176       470.9794 
 380   0.0000      17.308176       470.9794 
 381   0.0000      17.436293       474.4657 
 382   0.0000      17.849268       485.7033 
 383   0.0000      17.849268       485.7033 
 384   0.0000      18.317078       498.4330 
 385   0.0000      18.317078       498.4330 
 386   0.0000      18.319156       498.4896 
 387   0.0000      18.319156       498.4896 
 388   0.0000      18.583161       505.6735 
 389   0.0000      18.709766       509.1186 
 390   0.0000      18.709766       509.1186 
 391   0.0000      18.797621       511.5093 
 392   0.0000      18.991176       516.7762 
 393   0.0000      19.056818       518.5624 
 394   0.0000      19.056818       518.5624 
 395   0.0000      20.167381       548.7823 
 396   0.0000      20.167381       548.7823 
 397   0.0000      21.565798       586.8352 
 398   0.0000      23.038298       626.9040 
 399   0.0000      23.038298       626.9040 
 400   0.0000      23.045245       627.0930 
 401   0.0000      23.045245       627.0930 
 402   0.0000      24.188113       658.1920 
 403   0.0000      24.188113       658.1920 
 404   0.0000      24.600416       669.4114 
 405   0.0000      24.804023       674.9518 
 406   0.0000      24.804023       674.9518 
 407   0.0000      26.737853       727.5740 
 408   0.0000      27.133045       738.3277 
 409   0.0000      30.253177       823.2308 
 410   0.0000      30.679688       834.8368 
 411   0.0000      31.856388       866.8564 
 412   0.0000      31.856392       866.8565 
 413   0.0000      32.132518       874.3703 
 414   0.0000      32.132518       874.3703 
 415   0.0000      32.173259       875.4789 
 416   0.0000      32.173259       875.4789 
 417   0.0000      33.430057       909.6781 
 418   0.0000      33.430057       909.6781 
 419   0.0000      34.287823       933.0191 
 420   0.0000      35.313797       960.9373 
 421   0.0000      36.813997      1001.7598 
 422   0.0000      66.565015      1811.3262 
 423   0.0000      66.565019      1811.3263 
 424   0.0000      66.576251      1811.6319 
 425   0.0000      66.576255      1811.6320 
 426   0.0000      67.224418      1829.2694 
 427   0.0000      67.224418      1829.2694 
 428   0.0000      67.681582      1841.7095 
 429   0.0000      67.681582      1841.7095 
 430   0.0000      69.013795      1877.9608 
 431   0.0000      69.087805      1879.9747 
 432   0.0000      77.444835      2107.3811 
 433   0.0000     143.417625      3902.5920 
 434   0.0000     144.175147      3923.2052 

                 SPIN DOWN ORBITALS
  NO   OCC          E(Eh)            E(eV) 
   0   1.0000     -18.831284      -512.4253 
   1   1.0000     -18.831284      -512.4253 
   2   1.0000     -10.059274      -273.7268 
   3   1.0000      -1.072251       -29.1774 
   4   1.0000      -1.035412       -28.1750 
   5   1.0000      -0.506927       -13.7942 
   6   1.0000      -0.468565       -12.7503 
   7   1.0000      -0.468565       -12.7503 
   8   1.0000      -0.466417       -12.6919 
   9   1.0000      -0.333897        -9.0858 
  10   1.0000      -0.333897        -9.0858 
  11   0.0000      -0.034488        -0.9385 
  12   0.0000      -0.012608        -0.3431 
  13   0.0000      -0.012608        -0.3431 
  14   0.0000       0.017026         0.4633 
  15   0.0000       0.017088         0.4650 
  16   0.0000       0.017088         0.4650 
  17   0.0000       0.039793         1.0828 
  18   0.0000       0.052716         1.4345 
  19   0.0000       0.052716         1.4345 
  20   0.0000       0.057949         1.5769 
  21   0.0000       0.060558         1.6479 
  22   0.0000       0.062952         1.7130 
  23   0.0000       0.062952         1.7130 
  24   0.0000       0.084765         2.3066 
  25   0.0000       0.084765         2.3066 
  26   0.0000       0.100721         2.7408 
  27   0.0000       0.111790         3.0420 
  28   0.0000       0.111790         3.0420 
  29   0.0000       0.124857         3.3975 
  30   0.0000       0.138756         3.7757 
  31   0.0000       0.138756         3.7757 
  32   0.0000       0.152841         4.1590 
  33   0.0000       0.162138         4.4120 
  34   0.0000       0.173312         4.7161 
  35   0.0000       0.173312         4.7161 
  36   0.0000       0.188369         5.1258 
  37   0.0000       0.188369         5.1258 
  38   0.0000       0.201232         5.4758 
  39   0.0000       0.201232         5.4758 
  40   0.0000       0.214179         5.8281 
  41   0.0000       0.214179         5.8281 
  42   0.0000       0.225550         6.1375 
  43   0.0000       0.226524         6.1640 
  44   0.0000       0.234666         6.3856 
  45   0.0000       0.234666         6.3856 
  46   0.0000       0.256523         6.9803 
  47   0.0000       0.256523         6.9803 
  48   0.0000       0.283037         7.7018 
  49   0.0000       0.296276         8.0621 
  50   0.0000       0.296276         8.0621 
  51   0.0000       0.306672         8.3450 
  52   0.0000       0.311581         8.4785 
  53   0.0000       0.311581         8.4785 
  54   0.0000       0.311588         8.4787 
  55   0.0000       0.314999         8.5715 
  56   0.0000       0.314999         8.5716 
  57   0.0000       0.324205         8.8221 
  58   0.0000       0.324205         8.8221 
  59   0.0000       0.328850         8.9485 
  60   0.0000       0.328850         8.9485 
  61   0.0000       0.352967         9.6047 
  62   0.0000       0.352967         9.6047 
  63   0.0000       0.354911         9.6576 
  64   0.0000       0.394058        10.7229 
  65   0.0000       0.394058        10.7229 
  66   0.0000       0.432929        11.7806 
  67   0.0000       0.447353        12.1731 
  68   0.0000       0.447353        12.1731 
  69   0.0000       0.459303        12.4983 
  70   0.0000       0.461869        12.5681 
  71   0.0000       0.461869        12.5681 
  72   0.0000       0.489605        13.3228 
  73   0.0000       0.489605        13.3228 
  74   0.0000       0.496215        13.5027 
  75   0.0000       0.496215        13.5027 
  76   0.0000       0.498140        13.5551 
  77   0.0000       0.500649        13.6234 
  78   0.0000       0.500649        13.6234 
  79   0.0000       0.503743        13.7075 
  80   0.0000       0.503743        13.7076 
  81   0.0000       0.505871        13.7654 
  82   0.0000       0.505871        13.7654 
  83   0.0000       0.546277        14.8650 
  84   0.0000       0.546277        14.8650 
  85   0.0000       0.549549        14.9540 
  86   0.0000       0.549549        14.9540 
  87   0.0000       0.567788        15.4503 
  88   0.0000       0.567788        15.4503 
  89   0.0000       0.572483        15.5780 
  90   0.0000       0.601823        16.3764 
  91   0.0000       0.601823        16.3764 
  92   0.0000       0.603887        16.4326 
  93   0.0000       0.627643        17.0790 
  94   0.0000       0.641094        17.4450 
  95   0.0000       0.641094        17.4450 
  96   0.0000       0.641345        17.4519 
  97   0.0000       0.641345        17.4519 
  98   0.0000       0.669615        18.2211 
  99   0.0000       0.669615        18.2211 
 100   0.0000       0.678600        18.4656 
 101   0.0000       0.708166        19.2702 
 102   0.0000       0.708166        19.2702 
 103   0.0000       0.719572        19.5806 
 104   0.0000       0.741381        20.1740 
 105   0.0000       0.741381        20.1740 
 106   0.0000       0.762559        20.7503 
 107   0.0000       0.762559        20.7503 
 108   0.0000       0.772628        21.0243 
 109   0.0000       0.772628        21.0243 
 110   0.0000       0.794173        21.6105 
 111   0.0000       0.829551        22.5732 
 112   0.0000       0.829551        22.5732 
 113   0.0000       0.850023        23.1303 
 114   0.0000       0.850023        23.1303 
 115   0.0000       0.864075        23.5127 
 116   0.0000       0.865438        23.5498 
 117   0.0000       0.865438        23.5498 
 118   0.0000       0.896460        24.3939 
 119   0.0000       0.905932        24.6517 
 120   0.0000       0.905932        24.6517 
 121   0.0000       0.915587        24.9144 
 122   0.0000       0.915587        24.9144 
 123   0.0000       0.924079        25.1455 
 124   0.0000       0.924079        25.1455 
 125   0.0000       0.940628        25.5958 
 126   0.0000       0.940628        25.5958 
 127   0.0000       0.943434        25.6722 
 128   0.0000       0.958031        26.0694 
 129   0.0000       0.958031        26.0694 
 130   0.0000       0.961853        26.1733 
 131   0.0000       0.961853        26.1734 
 132   0.0000       0.992988        27.0206 
 133   0.0000       0.992988        27.0206 
 134   0.0000       1.040087        28.3022 
 135   0.0000       1.040087        28.3022 
 136   0.0000       1.042402        28.3652 
 137   0.0000       1.043526        28.3958 
 138   0.0000       1.043526        28.3958 
 139   0.0000       1.062895        28.9228 
 140   0.0000       1.062895        28.9228 
 141   0.0000       1.087440        29.5907 
 142   0.0000       1.087440        29.5907 
 143   0.0000       1.116249        30.3747 
 144   0.0000       1.126375        30.6502 
 145   0.0000       1.126375        30.6502 
 146   0.0000       1.147399        31.2223 
 147   0.0000       1.147399        31.2223 
 148   0.0000       1.187852        32.3231 
 149   0.0000       1.199302        32.6347 
 150   0.0000       1.199302        32.6347 
 151   0.0000       1.221750        33.2455 
 152   0.0000       1.221750        33.2455 
 153   0.0000       1.251165        34.0459 
 154   0.0000       1.265524        34.4366 
 155   0.0000       1.265524        34.4366 
 156   0.0000       1.292915        35.1820 
 157   0.0000       1.292915        35.1820 
 158   0.0000       1.293247        35.1911 
 159   0.0000       1.293377        35.1946 
 160   0.0000       1.293377        35.1946 
 161   0.0000       1.375701        37.4347 
 162   0.0000       1.426078        38.8056 
 163   0.0000       1.426079        38.8056 
 164   0.0000       1.430915        38.9372 
 165   0.0000       1.430916        38.9372 
 166   0.0000       1.506304        40.9886 
 167   0.0000       1.620989        44.1094 
 168   0.0000       1.620989        44.1094 
 169   0.0000       1.644571        44.7511 
 170   0.0000       1.740522        47.3620 
 171   0.0000       1.740522        47.3620 
 172   0.0000       1.748212        47.5713 
 173   0.0000       1.817776        49.4642 
 174   0.0000       1.817776        49.4642 
 175   0.0000       1.892607        51.5005 
 176   0.0000       1.892607        51.5005 
 177   0.0000       1.903949        51.8091 
 178   0.0000       1.922182        52.3052 
 179   0.0000       1.922182        52.3052 
 180   0.0000       1.931589        52.5612 
 181   0.0000       2.030122        55.2424 
 182   0.0000       2.030122        55.2424 
 183   0.0000       2.115185        57.5571 
 184   0.0000       2.115185        57.5571 
 185   0.0000       2.140184        58.2374 
 186   0.0000       2.140184        58.2374 
 187   0.0000       2.165260        58.9197 
 188   0.0000       2.165260        58.9197 
 189   0.0000       2.166918        58.9648 
 190   0.0000       2.166918        58.9649 
 191   0.0000       2.170107        59.0516 
 192   0.0000       2.283043        62.1248 
 193   0.0000       2.283043        62.1248 
 194   0.0000       2.378987        64.7355 
 195   0.0000       2.386896        64.9507 
 196   0.0000       2.405640        65.4608 
 197   0.0000       2.405640        65.4608 
 198   0.0000       2.488682        67.7205 
 199   0.0000       2.488682        67.7205 
 200   0.0000       2.492430        67.8225 
 201   0.0000       2.492430        67.8225 
 202   0.0000       2.706977        73.6606 
 203   0.0000       2.776859        75.5622 
 204   0.0000       2.776859        75.5622 
 205   0.0000       2.921030        79.4853 
 206   0.0000       2.921030        79.4853 
 207   0.0000       2.969416        80.8019 
 208   0.0000       3.290855        89.5487 
 209   0.0000       3.451204        93.9120 
 210   0.0000       3.451204        93.9120 
 211   0.0000       3.515166        95.6525 
 212   0.0000       3.528058        96.0033 
 213   0.0000       3.528058        96.0033 
 214   0.0000       3.546901        96.5161 
 215   0.0000       3.824850       104.0795 
 216   0.0000       3.824850       104.0795 
 217   0.0000       4.005227       108.9878 
 218   0.0000       4.009050       109.0918 
 219   0.0000       4.009050       109.0918 
 220   0.0000       4.064039       110.5881 
 221   0.0000       4.064039       110.5881 
 222   0.0000       4.160627       113.2164 
 223   0.0000       4.160627       113.2164 
 224   0.0000       4.165916       113.3603 
 225   0.0000       4.165916       113.3603 
 226   0.0000       4.178109       113.6921 
 227   0.0000       4.209550       114.5477 
 228   0.0000       4.209550       114.5477 
 229   0.0000       4.283199       116.5518 
 230   0.0000       4.336994       118.0156 
 231   0.0000       4.336994       118.0156 
 232   0.0000       4.400663       119.7481 
 233   0.0000       4.400663       119.7481 
 234   0.0000       4.488194       122.1300 
 235   0.0000       4.655174       126.6737 
 236   0.0000       4.713397       128.2581 
 237   0.0000       4.713397       128.2581 
 238   0.0000       4.749266       129.2341 
 239   0.0000       4.749266       129.2341 
 240   0.0000       4.811011       130.9143 
 241   0.0000       4.811011       130.9143 
 242   0.0000       4.838693       131.6675 
 243   0.0000       4.838693       131.6675 
 244   0.0000       4.983835       135.6170 
 245   0.0000       4.983835       135.6170 
 246   0.0000       5.124445       139.4432 
 247   0.0000       5.124445       139.4432 
 248   0.0000       5.141377       139.9040 
 249   0.0000       5.141377       139.9040 
 250   0.0000       5.164394       140.5303 
 251   0.0000       5.182233       141.0157 
 252   0.0000       5.182233       141.0157 
 253   0.0000       5.395473       146.8183 
 254   0.0000       5.751881       156.5166 
 255   0.0000       5.809694       158.0898 
 256   0.0000       5.809694       158.0898 
 257   0.0000       5.896878       160.4622 
 258   0.0000       5.896878       160.4622 
 259   0.0000       5.901421       160.5858 
 260   0.0000       5.901421       160.5858 
 261   0.0000       5.960720       162.1994 
 262   0.0000       5.960720       162.1994 
 263   0.0000       6.068877       165.1425 
 264   0.0000       6.098353       165.9446 
 265   0.0000       6.098353       165.9446 
 266   0.0000       6.102734       166.0638 
 267   0.0000       6.102734       166.0638 
 268   0.0000       6.391101       173.9107 
 269   0.0000       6.617265       180.0649 
 270   0.0000       6.617265       180.0649 
 271   0.0000       6.783110       184.5778 
 272   0.0000       6.783110       184.5778 
 273   0.0000       6.901371       187.7958 
 274   0.0000       6.901371       187.7959 
 275   0.0000       7.035987       191.4589 
 276   0.0000       7.401112       201.3945 
 277   0.0000       7.401112       201.3945 
 278   0.0000       7.455311       202.8693 
 279   0.0000       8.072752       219.6707 
 280   0.0000       8.072752       219.6707 
 281   0.0000       8.126236       221.1261 
 282   0.0000       8.258080       224.7138 
 283   0.0000       8.258080       224.7138 
 284   0.0000       8.328912       226.6412 
 285   0.0000       8.328912       226.6412 
 286   0.0000       8.386539       228.2093 
 287   0.0000       8.386539       228.2093 
 288   0.0000       8.467585       230.4147 
 289   0.0000       9.226196       251.0576 
 290   0.0000       9.415501       256.2088 
 291   0.0000       9.415501       256.2088 
 292   0.0000       9.570184       260.4179 
 293   0.0000       9.570184       260.4179 
 294   0.0000       9.635324       262.1905 
 295   0.0000      10.133050       275.7343 
 296   0.0000      10.133051       275.7343 
 297   0.0000      10.236127       278.5392 
 298   0.0000      10.236127       278.5392 
 299   0.0000      10.324974       280.9568 
 300   0.0000      10.324974       280.9568 
 301   0.0000      10.429646       283.8051 
 302   0.0000      10.429646       283.8051 
 303   0.0000      10.463219       284.7187 
 304   0.0000      10.468973       284.8752 
 305   0.0000      10.468973       284.8752 
 306   0.0000      10.553008       287.1619 
 307   0.0000      10.553008       287.1619 
 308   0.0000      10.565830       287.5109 
 309   0.0000      10.565830       287.5109 
 310   0.0000      10.567447       287.5549 
 311   0.0000      10.658008       290.0192 
 312   0.0000      10.658008       290.0192 
 313   0.0000      10.983434       298.8744 
 314   0.0000      11.010512       299.6113 
 315   0.0000      11.076289       301.4011 
 316   0.0000      11.076289       301.4011 
 317   0.0000      11.297145       307.4109 
 318   0.0000      11.297145       307.4109 
 319   0.0000      11.392673       310.0104 
 320   0.0000      11.392673       310.0104 
 321   0.0000      11.619373       316.1792 
 322   0.0000      11.619375       316.1793 
 323   0.0000      11.643177       316.8269 
 324   0.0000      11.643177       316.8270 
 325   0.0000      11.652681       317.0856 
 326   0.0000      11.652681       317.0856 
 327   0.0000      11.850005       322.4550 
 328   0.0000      11.850005       322.4550 
 329   0.0000      11.982042       326.0479 
 330   0.0000      11.982042       326.0479 
 331   0.0000      11.993121       326.3494 
 332   0.0000      11.994071       326.3753 
 333   0.0000      11.994071       326.3753 
 334   0.0000      12.031715       327.3996 
 335   0.0000      12.031715       327.3996 
 336   0.0000      12.045561       327.7764 
 337   0.0000      12.045561       327.7764 
 338   0.0000      12.308285       334.9255 
 339   0.0000      12.374384       336.7241 
 340   0.0000      12.374384       336.7241 
 341   0.0000      12.515893       340.5748 
 342   0.0000      12.515893       340.5748 
 343   0.0000      12.567235       341.9719 
 344   0.0000      12.567235       341.9719 
 345   0.0000      12.697438       345.5149 
 346   0.0000      12.697438       345.5149 
 347   0.0000      12.952997       352.4690 
 348   0.0000      12.960044       352.6607 
 349   0.0000      12.960044       352.6607 
 350   0.0000      12.961359       352.6965 
 351   0.0000      13.039806       354.8312 
 352   0.0000      13.039806       354.8312 
 353   0.0000      13.229006       359.9796 
 354   0.0000      13.229006       359.9796 
 355   0.0000      13.240619       360.2956 
 356   0.0000      13.240619       360.2956 
 357   0.0000      13.697094       372.7169 
 358   0.0000      14.119029       384.1983 
 359   0.0000      14.119029       384.1983 
 360   0.0000      14.239396       387.4737 
 361   0.0000      14.239396       387.4737 
 362   0.0000      14.268246       388.2587 
 363   0.0000      14.941085       406.5676 
 364   0.0000      14.941085       406.5676 
 365   0.0000      14.941457       406.5777 
 366   0.0000      14.941457       406.5777 
 367   0.0000      15.740213       428.3130 
 368   0.0000      16.305752       443.7021 
 369   0.0000      16.305752       443.7021 
 370   0.0000      16.813055       457.5065 
 371   0.0000      16.944401       461.0806 
 372   0.0000      16.944401       461.0806 
 373   0.0000      16.947828       461.1738 
 374   0.0000      16.947828       461.1738 
 375   0.0000      17.118628       465.8215 
 376   0.0000      17.118628       465.8216 
 377   0.0000      17.136861       466.3177 
 378   0.0000      17.136861       466.3177 
 379   0.0000      17.308176       470.9794 
 380   0.0000      17.308176       470.9794 
 381   0.0000      17.436293       474.4657 
 382   0.0000      17.849268       485.7033 
 383   0.0000      17.849268       485.7033 
 384   0.0000      18.317078       498.4330 
 385   0.0000      18.317078       498.4330 
 386   0.0000      18.319156       498.4896 
 387   0.0000      18.319156       498.4896 
 388   0.0000      18.583161       505.6735 
 389   0.0000      18.709766       509.1186 
 390   0.0000      18.709766       509.1186 
 391   0.0000      18.797621       511.5093 
 392   0.0000      18.991176       516.7762 
 393   0.0000      19.056818       518.5624 
 394   0.0000      19.056818       518.5624 
 395   0.0000      20.167381       548.7823 
 396   0.0000      20.167381       548.7823 
 397   0.0000      21.565798       586.8352 
 398   0.0000      23.038298       626.9040 
 399   0.0000      23.038298       626.9040 
 400   0.0000      23.045245       627.0930 
 401   0.0000      23.045245       627.0930 
 402   0.0000      24.188113       658.1920 
 403   0.0000      24.188113       658.1920 
 404   0.0000      24.600416       669.4114 
 405   0.0000      24.804023       674.9518 
 406   0.0000      24.804023       674.9518 
 407   0.0000      26.737853       727.5740 
 408   0.0000      27.133045       738.3277 
 409   0.0000      30.253177       823.2308 
 410   0.0000      30.679688       834.8368 
 411   0.0000      31.856388       866.8564 
 412   0.0000      31.856392       866.8565 
 413   0.0000      32.132518       874.3703 
 414   0.0000      32.132518       874.3703 
 415   0.0000      32.173259       875.4789 
 416   0.0000      32.173259       875.4789 
 417   0.0000      33.430057       909.6781 
 418   0.0000      33.430057       909.6781 
 419   0.0000      34.287823       933.0191 
 420   0.0000      35.313797       960.9373 
 421   0.0000      36.813997      1001.7598 
 422   0.0000      66.565015      1811.3262 
 423   0.0000      66.565019      1811.3263 
 424   0.0000      66.576251      1811.6319 
 425   0.0000      66.576255      1811.6320 
 426   0.0000      67.224418      1829.2694 
 427   0.0000      67.224418      1829.2694 
 428   0.0000      67.681582      1841.7095 
 429   0.0000      67.681582      1841.7095 
 430   0.0000      69.013795      1877.9608 
 431   0.0000      69.087805      1879.9747 
 432   0.0000      77.444835      2107.3811 
 433   0.0000     143.417625      3902.5920 
 434   0.0000     144.175147      3923.2052 

                    ********************************
                    * MULLIKEN POPULATION ANALYSIS *
                    ********************************

--------------------------------------------
MULLIKEN ATOMIC CHARGES AND SPIN POPULATIONS
--------------------------------------------
   0 C :    0.196443   -0.000000
   1 O :   -0.098207    0.000000
   2 O :   -0.098237    0.000000
Sum of atomic charges         :    0.0000000
Sum of atomic spin populations:   -0.0000000

-----------------------------------------------------
MULLIKEN REDUCED ORBITAL CHARGES AND SPIN POPULATIONS
-----------------------------------------------------
CHARGE
  0 C s       :     3.127438  s :     3.127438
      pz      :     0.781787  p :     2.378765
      px      :     0.798489
      py      :     0.798489
      dz2     :     0.069592  d :     0.261597
      dxz     :     0.096003
      dyz     :     0.096003
      dx2y2   :     0.000000
      dxy     :     0.000000
      f0      :     0.007816  f :     0.031504
      f+1     :     0.011844
      f-1     :     0.011844
      f+2     :    -0.000000
      f-2     :    -0.000000
      f+3     :     0.000000
      f-3     :     0.000000
      g0      :     0.000849  g :     0.004053
      g+1     :     0.001602
      g-1     :     0.001602
      g+2     :     0.000000
      g-2     :     0.000000
      g+3     :     0.000000
      g-3     :     0.000000
      g+4     :     0.000000
      g-4     :     0.000000
      h0      :    -0.000040  h :     0.000200
      h+1     :     0.000120
      h-1     :     0.000120
      h+2     :     0.000000
      h-2     :     0.000000
      h+3     :     0.000000
      h-3     :     0.000000
      h+4     :     0.000000
      h-4     :     0.000000
      h+5     :     0.000000
      h-5     :     0.000000
  1 O s       :     3.770724  s :     3.770724
      pz      :     1.229314  p :     4.294714
      px      :     1.532700
      py      :     1.532700
      dz2     :     0.007759  d :     0.030742
      dxz     :     0.011491
      dyz     :     0.011491
      dx2y2   :     0.000000
      dxy     :     0.000000
      f0      :    -0.001018  f :     0.001314
      f+1     :     0.001166
      f-1     :     0.001166
      f+2     :    -0.000000
      f-2     :    -0.000000
      f+3     :     0.000000
      f-3     :     0.000000
      g0      :    -0.000433  g :     0.000475
      g+1     :     0.000454
      g-1     :     0.000454
      g+2     :     0.000000
      g-2     :     0.000000
      g+3     :     0.000000
      g-3     :     0.000000
      g+4     :     0.000000
      g-4     :    -0.000000
      h0      :    -0.000082  h :     0.000238
      h+1     :     0.000160
      h-1     :     0.000160
      h+2     :    -0.000000
      h-2     :    -0.000000
      h+3     :     0.000000
      h-3     :     0.000000
      h+4     :     0.000000
      h-4     :     0.000000
      h+5     :     0.000000
      h-5     :     0.000000
  2 O s       :     3.770767  s :     3.770767
      pz      :     1.229301  p :     4.294701
      px      :     1.532700
      py      :     1.532700
      dz2     :     0.007759  d :     0.030742
      dxz     :     0.011491
      dyz     :     0.011491
      dx2y2   :     0.000000
      dxy     :     0.000000
      f0      :    -0.001018  f :     0.001314
      f+1     :     0.001166
      f-1     :     0.001166
      f+2     :    -0.000000
      f-2     :    -0.000000
      f+3     :     0.000000
      f-3     :     0.000000
      g0      :    -0.000434  g :     0.000475
      g+1     :     0.000454
      g-1     :     0.000454
      g+2     :     0.000000
      g-2     :     0.000000
      g+3     :     0.000000
      g-3     :     0.000000
      g+4     :     0.000000
      g-4     :    -0.000000
      h0      :    -0.000082  h :     0.000238
      h+1     :     0.000160
      h-1     :     0.000160
      h+2     :    -0.000000
      h-2     :    -0.000000
      h+3     :     0.000000
      h-3     :     0.000000
      h+4     :     0.000000
      h-4     :     0.000000
      h+5     :     0.000000
      h-5     :     0.000000

SPIN
  0 C s       :    -0.000000  s :    -0.000000
      pz      :     0.000000  p :     0.000000
      px      :     0.000000
      py      :     0.000000
      dz2     :     0.000000  d :     0.000000
      dxz     :    -0.000000
      dyz     :    -0.000000
      dx2y2   :    -0.000000
      dxy     :     0.000000
      f0      :     0.000000  f :     0.000000
      f+1     :     0.000000
      f-1     :    -0.000000
      f+2     :    -0.000000
      f-2     :     0.000000
      f+3     :     0.000000
      f-3     :    -0.000000
      g0      :    -0.000000  g :    -0.000000
      g+1     :     0.000000
      g-1     :     0.000000
      g+2     :    -0.000000
      g-2     :     0.000000
      g+3     :     0.000000
      g-3     :    -0.000000
      g+4     :    -0.000000
      g-4     :    -0.000000
      h0      :    -0.000000  h :     0.000000
      h+1     :     0.000000
      h-1     :     0.000000
      h+2     :    -0.000000
      h-2     :     0.000000
      h+3     :     0.000000
      h-3     :    -0.000000
      h+4     :     0.000000
      h-4     :    -0.000000
      h+5     :    -0.000000
      h-5     :    -0.000000
  1 O s       :     0.000000  s :     0.000000
      pz      :     0.000000  p :     0.000000
      px      :     0.000000
      py      :    -0.000000
      dz2     :     0.000000  d :     0.000000
      dxz     :    -0.000000
      dyz     :    -0.000000
      dx2y2   :     0.000000
      dxy     :     0.000000
      f0      :    -0.000000  f :    -0.000000
      f+1     :    -0.000000
      f-1     :    -0.000000
      f+2     :     0.000000
      f-2     :     0.000000
      f+3     :    -0.000000
      f-3     :     0.000000
      g0      :    -0.000000  g :    -0.000000
      g+1     :    -0.000000
      g-1     :    -0.000000
      g+2     :    -0.000000
      g-2     :     0.000000
      g+3     :    -0.000000
      g-3     :     0.000000
      g+4     :     0.000000
      g-4     :     0.000000
      h0      :     0.000000  h :     0.000000
      h+1     :    -0.000000
      h-1     :    -0.000000
      h+2     :     0.000000
      h-2     :     0.000000
      h+3     :     0.000000
      h-3     :     0.000000
      h+4     :    -0.000000
      h-4     :    -0.000000
      h+5     :     0.000000
      h-5     :     0.000000
  2 O s       :    -0.000000  s :    -0.000000
      pz      :     0.000000  p :     0.000000
      px      :    -0.000000
      py      :    -0.000000
      dz2     :     0.000000  d :     0.000000
      dxz     :    -0.000000
      dyz     :    -0.000000
      dx2y2   :    -0.000000
      dxy     :    -0.000000
      f0      :    -0.000000  f :    -0.000000
      f+1     :    -0.000000
      f-1     :    -0.000000
      f+2     :    -0.000000
      f-2     :    -0.000000
      f+3     :    -0.000000
      f-3     :     0.000000
      g0      :    -0.000000  g :    -0.000000
      g+1     :     0.000000
      g-1     :    -0.000000
      g+2     :    -0.000000
      g-2     :    -0.000000
      g+3     :     0.000000
      g-3     :     0.000000
      g+4     :    -0.000000
      g-4     :    -0.000000
      h0      :    -0.000000  h :    -0.000000
      h+1     :     0.000000
      h-1     :    -0.000000
      h+2     :    -0.000000
      h-2     :    -0.000000
      h+3     :    -0.000000
      h-3     :    -0.000000
      h+4     :    -0.000000
      h-4     :     0.000000
      h+5     :    -0.000000
      h-5     :     0.000000


                     *******************************
                     * LOEWDIN POPULATION ANALYSIS *
                     *******************************

-------------------------------------------
LOEWDIN ATOMIC CHARGES AND SPIN POPULATIONS
-------------------------------------------
   0 C :   -0.582734   -0.000000
   1 O :    0.291367    0.000000
   2 O :    0.291367   -0.000000

----------------------------------------------------
LOEWDIN REDUCED ORBITAL CHARGES AND SPIN POPULATIONS
----------------------------------------------------
CHARGE
  0 C s       :     2.593741  s :     2.593741
      pz      :     1.127059  p :     2.397130
      px      :     0.635035
      py      :     0.635035
      dz2     :     0.399427  d :     1.163168
      dxz     :     0.381870
      dyz     :     0.381870
      dx2y2   :     0.000000
      dxy     :     0.000000
      f0      :     0.131316  f :     0.288194
      f+1     :     0.078439
      f-1     :     0.078439
      f+2     :     0.000000
      f-2     :     0.000000
      f+3     :     0.000000
      f-3     :     0.000000
      g0      :     0.022998  g :     0.126859
      g+1     :     0.051930
      g-1     :     0.051930
      g+2     :     0.000000
      g-2     :     0.000000
      g+3     :     0.000000
      g-3     :     0.000000
      g+4     :     0.000000
      g-4     :     0.000000
      h0      :     0.005568  h :     0.013643
      h+1     :     0.004038
      h-1     :     0.004038
      h+2     :     0.000000
      h-2     :     0.000000
      h+3     :     0.000000
      h-3     :     0.000000
      h+4     :     0.000000
      h-4     :     0.000000
      h+5     :     0.000000
      h-5     :     0.000000
  1 O s       :     3.147622  s :     3.147622
      pz      :     1.461574  p :     3.940544
      px      :     1.239485
      py      :     1.239485
      dz2     :     0.113855  d :     0.250847
      dxz     :     0.068496
      dyz     :     0.068496
      dx2y2   :     0.000000
      dxy     :     0.000000
      f0      :     0.063477  f :     0.166901
      f+1     :     0.051712
      f-1     :     0.051712
      f+2     :     0.000000
      f-2     :     0.000000
      f+3     :     0.000000
      f-3     :     0.000000
      g0      :     0.044910  g :     0.118879
      g+1     :     0.036984
      g-1     :     0.036984
      g+2     :     0.000000
      g-2     :     0.000000
      g+3     :     0.000000
      g-3     :     0.000000
      g+4     :     0.000000
      g-4     :     0.000000
      h0      :     0.028508  h :     0.083840
      h+1     :     0.027666
      h-1     :     0.027666
      h+2     :     0.000000
      h-2     :     0.000000
      h+3     :     0.000000
      h-3     :     0.000000
      h+4     :     0.000000
      h-4     :     0.000000
      h+5     :     0.000000
      h-5     :     0.000000
  2 O s       :     3.147623  s :     3.147623
      pz      :     1.461574  p :     3.940544
      px      :     1.239485
      py      :     1.239485
      dz2     :     0.113855  d :     0.250847
      dxz     :     0.068496
      dyz     :     0.068496
      dx2y2   :     0.000000
      dxy     :     0.000000
      f0      :     0.063477  f :     0.166901
      f+1     :     0.051712
      f-1     :     0.051712
      f+2     :     0.000000
      f-2     :     0.000000
      f+3     :     0.000000
      f-3     :     0.000000
      g0      :     0.044910  g :     0.118879
      g+1     :     0.036984
      g-1     :     0.036984
      g+2     :     0.000000
      g-2     :     0.000000
      g+3     :     0.000000
      g-3     :     0.000000
      g+4     :     0.000000
      g-4     :     0.000000
      h0      :     0.028508  h :     0.083840
      h+1     :     0.027666
      h-1     :     0.027666
      h+2     :     0.000000
      h-2     :     0.000000
      h+3     :     0.000000
      h-3     :     0.000000
      h+4     :     0.000000
      h-4     :     0.000000
      h+5     :     0.000000
      h-5     :     0.000000

SPIN
  0 C s       :    -0.000000  s :    -0.000000
      pz      :     0.000000  p :     0.000000
      px      :     0.000000
      py      :     0.000000
      dz2     :    -0.000000  d :    -0.000000
      dxz     :    -0.000000
      dyz     :     0.000000
      dx2y2   :    -0.000000
      dxy     :     0.000000
      f0      :    -0.000000  f :    -0.000000
      f+1     :    -0.000000
      f-1     :     0.000000
      f+2     :    -0.000000
      f-2     :     0.000000
      f+3     :     0.000000
      f-3     :    -0.000000
      g0      :     0.000000  g :    -0.000000
      g+1     :    -0.000000
      g-1     :    -0.000000
      g+2     :    -0.000000
      g-2     :    -0.000000
      g+3     :     0.000000
      g-3     :    -0.000000
      g+4     :    -0.000000
      g-4     :    -0.000000
      h0      :    -0.000000  h :    -0.000000
      h+1     :    -0.000000
      h-1     :    -0.000000
      h+2     :     0.000000
      h-2     :     0.000000
      h+3     :     0.000000
      h-3     :     0.000000
      h+4     :     0.000000
      h-4     :    -0.000000
      h+5     :    -0.000000
      h-5     :    -0.000000
  1 O s       :     0.000000  s :     0.000000
      pz      :     0.000000  p :     0.000000
      px      :    -0.000000
      py      :    -0.000000
      dz2     :    -0.000000  d :    -0.000000
      dxz     :    -0.000000
      dyz     :     0.000000
      dx2y2   :     0.000000
      dxy     :     0.000000
      f0      :     0.000000  f :     0.000000
      f+1     :    -0.000000
      f-1     :    -0.000000
      f+2     :    -0.000000
      f-2     :     0.000000
      f+3     :     0.000000
      f-3     :     0.000000
      g0      :     0.000000  g :     0.000000
      g+1     :     0.000000
      g-1     :    -0.000000
      g+2     :    -0.000000
      g-2     :     0.000000
      g+3     :    -0.000000
      g-3     :    -0.000000
      g+4     :     0.000000
      g-4     :     0.000000
      h0      :    -0.000000  h :    -0.000000
      h+1     :    -0.000000
      h-1     :    -0.000000
      h+2     :    -0.000000
      h-2     :     0.000000
      h+3     :     0.000000
      h-3     :     0.000000
      h+4     :    -0.000000
      h-4     :    -0.000000
      h+5     :     0.000000
      h-5     :     0.000000
  2 O s       :    -0.000000  s :    -0.000000
      pz      :     0.000000  p :    -0.000000
      px      :    -0.000000
      py      :    -0.000000
      dz2     :    -0.000000  d :    -0.000000
      dxz     :    -0.000000
      dyz     :     0.000000
      dx2y2   :    -0.000000
      dxy     :     0.000000
      f0      :     0.000000  f :     0.000000
      f+1     :     0.000000
      f-1     :    -0.000000
      f+2     :    -0.000000
      f-2     :     0.000000
      f+3     :    -0.000000
      f-3     :     0.000000
      g0      :    -0.000000  g :    -0.000000
      g+1     :     0.000000
      g-1     :     0.000000
      g+2     :    -0.000000
      g-2     :    -0.000000
      g+3     :     0.000000
      g-3     :     0.000000
      g+4     :    -0.000000
      g-4     :    -0.000000
      h0      :     0.000000  h :    -0.000000
      h+1     :    -0.000000
      h-1     :    -0.000000
      h+2     :     0.000000
      h-2     :     0.000000
      h+3     :    -0.000000
      h-3     :     0.000000
      h+4     :    -0.000000
      h-4     :     0.000000
      h+5     :    -0.000000
      h-5     :     0.000000


                      *****************************
                      * MAYER POPULATION ANALYSIS *
                      *****************************

  NA   - Mulliken gross atomic population
  ZA   - Total nuclear charge
  QA   - Mulliken gross atomic charge
  VA   - Mayer's total valence
  BVA  - Mayer's bonded valence
  FA   - Mayer's free valence

  ATOM       NA         ZA         QA         VA         BVA        FA
  0 C      5.8036     6.0000     0.1964     4.2490     4.2490     0.0000
  1 O      8.0982     8.0000    -0.0982     2.3139     2.3139     0.0000
  2 O      8.0982     8.0000    -0.0982     2.3138     2.3138     0.0000

  Mayer bond orders larger than 0.1
B(  0-C ,  1-O ) :   2.1245 B(  0-C ,  2-O ) :   2.1245 B(  1-O ,  2-O ) :   0.1893 


-------
TIMINGS
-------

Total SCF time: 0 days 1 hours 25 min 20 sec 

Total time                  ....    5121.000 sec
Sum of individual times     ....    5120.142 sec  (100.0%)

Fock matrix formation       ....    5108.684 sec  ( 99.8%)
  XC integration            ....     132.963 sec  (  2.6% of F)
    Basis function eval.    ....       8.385 sec  (  6.3% of XC)
    Density eval.           ....      28.811 sec  ( 21.7% of XC)
    XC-Functional eval.     ....       0.982 sec  (  0.7% of XC)
    XC-Potential eval.      ....      94.101 sec  ( 70.8% of XC)
Diagonalization             ....       1.607 sec  (  0.0%)
Density matrix formation    ....       0.034 sec  (  0.0%)
Population analysis         ....       0.159 sec  (  0.0%)
Initial guess               ....       6.259 sec  (  0.1%)
Orbital Transformation      ....       0.000 sec  (  0.0%)
Orbital Orthonormalization  ....       0.000 sec  (  0.0%)
DIIS solution               ....       0.687 sec  (  0.0%)
Grid generation             ....       2.711 sec  (  0.1%)

-------------------------   --------------------
FINAL SINGLE POINT ENERGY      -188.492363131966
-------------------------   --------------------


                            ***************************************
                            *     ORCA property calculations      *
                            ***************************************

                                    ---------------------
                                    Active property flags
                                    ---------------------
   (+) Dipole Moment
   (+) Polarizability


------------------------------------------------------------------------------
                       ORCA ELECTRIC PROPERTIES CALCULATION
------------------------------------------------------------------------------

Dipole Moment Calculation                       ... on
Quadrupole Moment Calculation                   ... off
Polarizability Calculation                      ... Analytic (CP-SCF)
GBWName                                         ... co2_pbe.gbw
Electron density file                           ... co2_pbe.scfp.tmp
The origin for moment calculation is the CENTER OF MASS  = ( 0.000000,  0.000000  0.000000)

-------------
DIPOLE MOMENT
-------------
                                X             Y             Z
Electronic contribution:      0.00000       0.00000       0.00000
Nuclear contribution   :      0.00000       0.00000       0.00000
                        -----------------------------------------
Total Dipole Moment    :      0.00000       0.00000       0.00000
                        -----------------------------------------
Magnitude (a.u.)       :      0.00000
Magnitude (Debye)      :      0.00000



--------------------
Rotational spectrum 
--------------------
 
Rotational constants in cm-1:     0.000000     0.390110     0.390110 
Rotational constants in MHz :     0.000000 11695.203081 11695.203081 

 Dipole components along the rotational axes: 
x,y,z [a.u.] :     0.000000     0.000000     0.000000 
x,y,z [Debye]:     0.000000     0.000000     0.000000 

 
Transforming and storing MO dipole integrals   ... done

                ... starting polarizability calculation

Opening the Dipole integral file               ... (co2_pbe.dmo.tmp) done
Reading Dipole-MO integrals                    ... done
Solving CP-SCF equations                       ... 
------------------------------------------------------------------------------
                           ORCA CP-SCF CALCULATION
------------------------------------------------------------------------------

Input orbitals are from        ... co2_pbe.gbw
Input Perturbation             ... co2_pbe.cpv.tmp
Wavefunction output            ... co2_pbe.cpu.tmp
Perturbation mode              ... Real perturbation (singlet)
Solver                         ... POPLE
Max. number of iterations      ... 200
Convergence tolerance          ... 1.000e-06
Integral handling              ... Direct
Number of perturbations        ... 3
Number of operators            ... 2
Orbital ranges used for CP-SCF:
 Operator 0:  Orbitals   0... 10  to  11...434
 Operator 1:  Orbitals   0... 10  to  11...434
DFT calculation                         ... on
Exchange functional (SCF)               ... PBE
Exchange functional (CP-SCF)            ... PBE
   PBE kappa parameter  XKappa (SCF)    ...  0.804000
   PBE kappa parameter  XKappa (CP-SCF) ...  0.804000
   PBE mue parameter   XMuePBE (SCF)    ...  0.219520
   PBE mue parameter   XMuePBE (CP-SCF) ...  0.219520
Correlation functional (SCF)            ... PBE
Correlation functional (CP-SCF)         ... PBE
   PBE beta parameter CBetaPBE (SCF)    ...  0.066725
   PBE beta parameter CBetaPBE (CP-SCF) ...  0.066725
 LDA part of GGA corr.  LDAOpt (SCF)    ... PW91-LDA
 LDA part of GGA corr.  LDAOpt (CP-SCF) ... PW91-LDA
Variables per vector in CP-SCF ... 9328
Number of vectors sought       ... 3
Recalculating density on grid  ... done
Calculating the xc-kernel      ... done
     CP-SCF ITERATION   0: 
     CP-SCF ITERATION   1:      0.089544724459
     CP-SCF ITERATION   2:      0.001568355751
     CP-SCF ITERATION   3:      0.000011127999
     CP-SCF ITERATION   4:      0.000000029674
done
Reading CP-SCF coefficients                    ... done
Doing the polarizability tensor   ... done
Cleaning up                                    ... done

-------------------------
THE POLARIZABILITY TENSOR
-------------------------

The raw cartesian tensor (atomic units):
   13.36209      0.00000     -0.00000  
    0.00000     13.36209     -0.00000  
   -0.00000     -0.00000     26.74204  
diagonalized tensor: 
   13.36209     13.36209     26.74204  

    0.00817     -0.99997     -0.00000  
   -0.99997     -0.00817     -0.00000  
   -0.00000     -0.00000      1.00000  

Isotropic polarizability :  17.82208


Timings for individual modules:

Sum of individual times         ...     8463.254 sec (= 141.054 min)
GTO integral calculation        ...        1.720 sec (=   0.029 min)   0.0 %
SCF iterations                  ...     5121.063 sec (=  85.351 min)  60.5 %
Solution of CP-SCF eqns.        ...     3340.472 sec (=  55.675 min)  39.5 %
                             ****ORCA TERMINATED NORMALLY****
TOTAL RUN TIME: 0 days 2 hours 21 minutes 3 seconds 850 msec
