
                                 *****************
                                 * O   R   C   A *
                                 *****************

           --- An Ab Initio, DFT and Semiempirical electronic structure package ---

                  #######################################################
                  #                        -***-                        #
                  #          Department of theory and spectroscopy      #
                  #               Directorship: Frank Neese             #
                  #        Max Planck Institute fuer Kohlenforschung    #
                  #                Kaiser Wilhelm Platz 1               #
                  #                 D-45470 Muelheim/Ruhr               #
                  #                      Germany                        #
                  #                                                     #
                  #                  All rights reserved                #
                  #                        -***-                        #
                  #######################################################


                         Program Version 4.1.2  - RELEASE  -


 With contributions from (in alphabetic order):
   Daniel Aravena         : Magnetic Properties
   Michael Atanasov       : Ab Initio Ligand Field Theory
   Alexander A. Auer      : GIAO ZORA
   Ute Becker             : Parallelization
   Giovanni Bistoni       : ED, Open-shell LED
   Martin Brehm           : Molecular dynamics
   Dmytro Bykov           : SCF Hessian
   Vijay G. Chilkuri      : MRCI spin determinant printing
   Dipayan Datta          : RHF DLPNO-CCSD density
   Achintya Kumar Dutta   : EOM-CC, STEOM-CC
   Dmitry Ganyushin       : Spin-Orbit,Spin-Spin,Magnetic field MRCI
   Miquel Garcia          : C-PCM Hessian
   Yang Guo               : DLPNO-NEVPT2, CIM, IAO-localization
   Andreas Hansen         : Spin unrestricted coupled pair/coupled cluster methods
   Benjamin Helmich-Paris : CASSCF linear response (MC-RPA)
   Lee Huntington         : MR-EOM, pCC
   Robert Izsak           : Overlap fitted RIJCOSX, COSX-SCS-MP3, EOM
   Christian Kollmar      : KDIIS, OOCD, Brueckner-CCSD(T), CCSD density
   Simone Kossmann        : Meta GGA functionals, TD-DFT gradient, OOMP2, MP2 Hessian
   Martin Krupicka        : AUTO-CI
   Lucas Lang             : DCDCAS
   Dagmar Lenk            : GEPOL surface, SMD
   Dimitrios Liakos       : Extrapolation schemes; parallel MDCI
   Dimitrios Manganas     : ROCIS; embedding schemes
   Dimitrios Pantazis     : SARC Basis sets
   Taras Petrenko         : DFT Hessian,TD-DFT gradient, ASA, ECA, R-Raman, ABS, FL, XAS/XES, NRVS
   Peter Pinski           : DLPNO-MP2, DLPNO-MP2 Gradient
   Christoph Reimann      : Effective Core Potentials
   Marius Retegan         : Local ZFS, SOC
   Christoph Riplinger    : Optimizer, TS searches, QM/MM, DLPNO-CCSD(T), (RO)-DLPNO pert. Triples
   Tobias Risthaus        : Range-separated hybrids, TD-DFT gradient, RPA, STAB
   Michael Roemelt        : Restricted open shell CIS
   Masaaki Saitow         : Open-shell DLPNO
   Barbara Sandhoefer     : DKH picture change effects
   Avijit Sen             : IP-ROCIS
   Kantharuban Sivalingam : CASSCF convergence, NEVPT2, FIC-MRCI
   Bernardo de Souza      : ESD, SOC TD-DFT
   Georgi Stoychev        : AutoAux, RI-MP2 NMR
   Willem Van den Heuvel  : Paramagnetic NMR
   Boris Wezisla          : Elementary symmetry handling
   Frank Wennmohs         : Technical directorship


 We gratefully acknowledge several colleagues who have allowed us to
 interface, adapt or use parts of their codes:
   Stefan Grimme, W. Hujo, H. Kruse,             : VdW corrections, initial TS optimization,
                  C. Bannwarth                     DFT functionals, gCP, sTDA/sTD-DF
   Ed Valeev                                     : LibInt (2-el integral package), F12 methods
   Garnet Chan, S. Sharma, J. Yang, R. Olivares  : DMRG
   Ulf Ekstrom                                   : XCFun DFT Library
   Mihaly Kallay                                 : mrcc  (arbitrary order and MRCC methods)
   Andreas Klamt, Michael Diedenhofen            : otool_cosmo (COSMO solvation model)
   Jiri Pittner, Ondrej Demel                    : Mk-CCSD
   Frank Weinhold                                : gennbo (NPA and NBO analysis)
   Christopher J. Cramer and Donald G. Truhlar   : smd solvation model
   Lars Goerigk                                  : TD-DFT with DH, B97 family of functionals
   V. Asgeirsson, H. Jonsson                     : NEB implementation
   FAccTs GmbH                                   : IRC, NEB, NEB-TS, Multilevel


 Your calculation uses the libint2 library for the computation of 2-el integrals
 For citations please refer to: http://libint.valeyev.net

 This ORCA versions uses:
   CBLAS   interface :  Fast vector & matrix operations
   LAPACKE interface :  Fast linear algebra routines
   SCALAPACK package :  Parallel linear algebra routines


----- Orbital basis set information -----
Your calculation utilizes the basis: aug-pc-4
   H, C-F              : F. Jensen, J. Chem. Phys. 115, 9113 (2001).
                         F. Jensen, J. Chem. Phys. 116, 7372 (2002).
                         F. Jensen, J. Chem. Phys. 117, 9234 (2002).
   Si-Cl               : F. Jensen, T. Helgaker, J. Chem. Phys. 121, 3463 (2004).
   He-B, Ne-Mg, Al, Ar : F. Jensen, J. Phys. Chem. A 111, 11198 (2007).
   K, Ca, Ga-Kr        : F. Jensen, J. Chem. Phys. 136, 094110 (2012).
   Sc-Zn               : F. Jensen, J. Chem. Phys. 138, 014107 (2013).

================================================================================
                                        WARNINGS
                       Please study these warnings very carefully!
================================================================================


INFO   : the flag for use of LIBINT has been found!

================================================================================
                                       INPUT FILE
================================================================================
NAME = co_pbe.inp
|  1> !uks pbe nori aug-pc-4 grid7 nofinalgrid verytightscf
|  2> 
|  3> %maxcore 1500
|  4> 
|  5> %pal nprocs 1 end
|  6> 
|  7> %scf
|  8> 	maxiter 200
|  9> end
| 10> %elprop
| 11> 	dipole true
| 12> 	 polar 1
| 13> 	 maxiter 200
| 14> end
| 15> 
| 16> * xyz 0 1
| 17> C 0.0000 0.0000 0.0000
| 18> O 0.0000 0.0000 1.1282
| 19> *
| 20> 
| 21>                          ****END OF INPUT****
================================================================================

                       ****************************
                       * Single Point Calculation *
                       ****************************

---------------------------------
CARTESIAN COORDINATES (ANGSTROEM)
---------------------------------
  C      0.000000    0.000000    0.000000
  O      0.000000    0.000000    1.128200

----------------------------
CARTESIAN COORDINATES (A.U.)
----------------------------
  NO LB      ZA    FRAG     MASS         X           Y           Z
   0 C     6.0000    0    12.011    0.000000    0.000000    0.000000
   1 O     8.0000    0    15.999    0.000000    0.000000    2.131989

--------------------------------
INTERNAL COORDINATES (ANGSTROEM)
--------------------------------
 C      0   0   0     0.000000000000     0.00000000     0.00000000
 O      1   0   0     1.128200000000     0.00000000     0.00000000

---------------------------
INTERNAL COORDINATES (A.U.)
---------------------------
 C      0   0   0     0.000000000000     0.00000000     0.00000000
 O      1   0   0     2.131989024290     0.00000000     0.00000000

---------------------
BASIS SET INFORMATION
---------------------
There are 2 groups of distinct atoms

 Group   1 Type C   : 28s12p7d4f3g2h contracted to 9s8p7d4f3g2h pattern {11101111111/51111111/1111111/1111/111/11}
 Group   2 Type O   : 27s12p7d4f3g2h contracted to 9s8p7d4f3g2h pattern {1191111111/51111111/1111111/1111/111/11}

Atom   0C    basis set group =>   1
Atom   1O    basis set group =>   2
------------------------------------------------------------------------------
                           ORCA GTO INTEGRAL CALCULATION
------------------------------------------------------------------------------

                         BASIS SET STATISTICS AND STARTUP INFO

 # of primitive gaussian shells          ...  111
 # of primitive gaussian functions       ...  351
 # of contracted shells                  ...   66
 # of contracted basis functions         ...  290
 Highest angular momentum                ...    5
 Maximum contraction depth               ...   11
 Integral package used                   ... LIBINT
 Integral threshhold            Thresh   ...  1.000e-12
 Primitive cut-off              TCut     ...  1.000e-14


------------------------------ INTEGRAL EVALUATION ----------------------------


 * One electron integrals 
 Pre-screening matrix                    ... done
 Shell pair data                         ... done (   0.001 sec)

-------------------------------------------------------------------------------
                                 ORCA SCF
-------------------------------------------------------------------------------

------------
SCF SETTINGS
------------
Hamiltonian:
 Density Functional     Method          .... DFT(GTOs)
 Exchange Functional    Exchange        .... PBE
   PBE kappa parameter   XKappa         ....  0.804000
   PBE mue parameter    XMuePBE         ....  0.219520
 Correlation Functional Correlation     .... PBE
   PBE beta parameter  CBetaPBE         ....  0.066725
 LDA part of GGA corr.  LDAOpt          .... PW91-LDA
 Gradients option       PostSCFGGA      .... off
   Density functional embedding theory  .... OFF
   NL short-range parameter             ....  6.400000


General Settings:
 Integral files         IntName         .... co_pbe
 Hartree-Fock type      HFTyp           .... UHF
 Total Charge           Charge          ....    0
 Multiplicity           Mult            ....    1
 Number of Electrons    NEL             ....   14
 Basis Dimension        Dim             ....  290
 Nuclear Repulsion      ENuc            ....     22.5141871994 Eh

Convergence Acceleration:
 DIIS                   CNVDIIS         .... on
   Start iteration      DIISMaxIt       ....    12
   Startup error        DIISStart       ....  0.200000
   # of expansion vecs  DIISMaxEq       ....     5
   Bias factor          DIISBfac        ....   1.050
   Max. coefficient     DIISMaxC        ....  10.000
 Newton-Raphson         CNVNR           .... off
 SOSCF                  CNVSOSCF        .... off
 Level Shifting         CNVShift        .... on
   Level shift para.    LevelShift      ....    0.2500
   Turn off err/grad.   ShiftErr        ....    0.0010
 Zerner damping         CNVZerner       .... off
 Static damping         CNVDamp         .... on
   Fraction old density DampFac         ....    0.7000
   Max. Damping (<1)    DampMax         ....    0.9800
   Min. Damping (>=0)   DampMin         ....    0.0000
   Turn off err/grad.   DampErr         ....    0.1000
 Fernandez-Rico         CNVRico         .... off

SCF Procedure:
 Maximum # iterations   MaxIter         ....   200
 SCF integral mode      SCFMode         .... Direct
   Integral package                     .... LIBINT
 Reset frequency        DirectResetFreq ....    20
 Integral Threshold     Thresh          ....  1.000e-12 Eh
 Primitive CutOff       TCut            ....  1.000e-14 Eh

Convergence Tolerance:
 Convergence Check Mode ConvCheckMode   .... Total+1el-Energy
 Convergence forced     ConvForced      .... 0
 Energy Change          TolE            ....  1.000e-09 Eh
 1-El. energy change                    ....  1.000e-06 Eh
 DIIS Error             TolErr          ....  1.000e-08


Diagonalization of the overlap matrix:
Smallest eigenvalue                        ... 1.033e-06
Time for diagonalization                   ...    0.016 sec
Threshold for overlap eigenvalues          ... 1.000e-08
Number of eigenvalues below threshold      ... 0
Time for construction of square roots      ...    0.010 sec
Total time needed                          ...    0.026 sec

-------------------
DFT GRID GENERATION
-------------------

General Integration Accuracy     IntAcc      ...  5.670
Radial Grid Type                 RadialGrid  ... Gauss-Chebyshev
Angular Grid (max. acc.)         AngularGrid ... Lebedev-770
Angular grid pruning method      GridPruning ... 3 (G Style)
Weight generation scheme         WeightScheme... Becke
Basis function cutoff            BFCut       ...    1.0000e-12
Integration weight cutoff        WCut        ...    1.0000e-14
Grids for H and He will be reduced by one unit

# of grid points (after initial pruning)     ...  50044 (   0.0 sec)
# of grid points (after weights+screening)   ...  49846 (   0.0 sec)
nearest neighbour list constructed           ...    0.0 sec
Grid point re-assignment to atoms done       ...    0.0 sec
Grid point division into batches done        ...    1.1 sec
Reduced shell lists constructed in    1.5 sec

Total number of grid points                  ...    49846
Total number of batches                      ...      780
Average number of points per batch           ...       63
Average number of grid points per atom       ...    24923
Average number of shells per batch           ...    50.38 (76.33%)
Average number of basis functions per batch  ...   227.73 (78.53%)
Average number of large shells per batch     ...    45.97 (91.25%)
Average number of large basis fcns per batch ...   209.07 (91.80%)
Maximum spatial batch extension              ...  20.36, 20.36, 20.35 au
Average spatial batch extension              ...   2.73,  2.72,  2.42 au

Time for grid setup =    1.562 sec

------------------------------
INITIAL GUESS: MODEL POTENTIAL
------------------------------
Loading Hartree-Fock densities                     ... done
Calculating cut-offs                               ... done
Setting up the integral package                    ... done
Initializing the effective Hamiltonian             ... done
Starting the Coulomb interaction                   ... done (   0.0 sec)
Reading the grid                                   ... done
Mapping shells                                     ... done
Starting the XC term evaluation                    ... done (   2.2 sec)
  promolecular density results
     # of electrons  =     14.000000996
     EX              =    -13.174319090
     EC              =     -0.445379499
     EX+EC           =    -13.619698589
Transforming the Hamiltonian                       ... done (   0.0 sec)
Diagonalizing the Hamiltonian                      ... done (   0.0 sec)
Back transforming the eigenvectors                 ... done (   0.0 sec)
Now organizing SCF variables                       ... done
                      ------------------
                      INITIAL GUESS DONE (   3.9 sec)
                      ------------------
--------------
SCF ITERATIONS
--------------
ITER       Energy         Delta-E        Max-DP      RMS-DP      [F,P]     Damp
               ***  Starting incremental Fock matrix formation  ***
  0   -113.2060409976   0.000000000000 0.01133830  0.00013987  0.1873118 0.7000
  1   -113.2254645524  -0.019423554776 0.00683660  0.00007447  0.0425927 0.7000
                               ***Turning on DIIS***
  2   -113.2288374676  -0.003372915270 0.01848126  0.00014355  0.0301406 0.0000
  3   -113.2420305214  -0.013193053719 0.01138754  0.00007819  0.0197856 0.0000
  4   -113.2425295591  -0.000499037728 0.00126355  0.00001423  0.0073567 0.0000
  5   -113.2425922801  -0.000062721023 0.00055448  0.00000389  0.0014798 0.0000
  6   -113.2425945338  -0.000002253713 0.00080368  0.00000546  0.0002098 0.0000
  7   -113.2425946433  -0.000000109518 0.00008809  0.00000072  0.0000901 0.0000
  8   -113.2425946502  -0.000000006901 0.00000277  0.00000004  0.0000303 0.0000
  9   -113.2425946511  -0.000000000829 0.00000094  0.00000001  0.0000027 0.0000
 10   -113.2425946511  -0.000000000007 0.00000443  0.00000005  0.0000004 0.0000
 11   -113.2425946511   0.000000000001 0.00000991  0.00000012  0.0000001 0.0000
                 **** Energy Check signals convergence ****

               *****************************************************
               *                     SUCCESS                       *
               *           SCF CONVERGED AFTER  12 CYCLES          *
               *****************************************************


----------------
TOTAL SCF ENERGY
----------------

Total Energy       :         -113.24259465 Eh           -3081.48766 eV

Components:
Nuclear Repulsion  :           22.51418720 Eh             612.64218 eV
Electronic Energy  :         -135.75678185 Eh           -3694.12984 eV
One Electron Energy:         -198.35363683 Eh           -5397.47686 eV
Two Electron Energy:           62.59685498 Eh            1703.34702 eV

Virial components:
Potential Energy   :         -226.14290800 Eh           -6153.66137 eV
Kinetic Energy     :          112.90031335 Eh            3072.17371 eV
Virial Ratio       :            2.00303171


DFT components:
N(Alpha)           :        7.000000255129 electrons
N(Beta)            :        7.000000255129 electrons
N(Total)           :       14.000000510258 electrons
E(X)               :      -13.313771684055 Eh       
E(C)               :       -0.448241352005 Eh       
E(XC)              :      -13.762013036060 Eh       
DFET-embed. en.    :        0.000000000000 Eh       

---------------
SCF CONVERGENCE
---------------

  Last Energy change         ...    1.7053e-13  Tolerance :   1.0000e-09
  Last MAX-Density change    ...    3.5628e-05  Tolerance :   1.0000e-08
  Last RMS-Density change    ...    2.8240e-07  Tolerance :   1.0000e-09
  Last DIIS Error            ...    1.2514e-08  Tolerance :   1.0000e-08

             **** THE GBW FILE WAS UPDATED (co_pbe.gbw) ****
             **** DENSITY FILE WAS UPDATED (co_pbe.scfp.tmp) ****
             **** ENERGY FILE WAS UPDATED (co_pbe.en.tmp) ****
----------------------
UHF SPIN CONTAMINATION
----------------------

Warning: in a DFT calculation there is little theoretical justification to 
         calculate <S**2> as in Hartree-Fock theory. We will do it anyways
         but you should keep in mind that the values have only limited relevance

Expectation value of <S**2>     :    -0.000000
Ideal value S*(S+1) for S=0.0   :     0.000000
Deviation                       :    -0.000000

----------------
ORBITAL ENERGIES
----------------
                 SPIN UP ORBITALS
  NO   OCC          E(Eh)            E(eV) 
   0   1.0000     -18.857644      -513.1426 
   1   1.0000      -9.999808      -272.1086 
   2   1.0000      -1.076791       -29.3010 
   3   1.0000      -0.519224       -14.1288 
   4   1.0000      -0.435893       -11.8612 
   5   1.0000      -0.435893       -11.8612 
   6   1.0000      -0.332237        -9.0406 
   7   0.0000      -0.073857        -2.0098 
   8   0.0000      -0.073857        -2.0098 
   9   0.0000       0.001703         0.0463 
  10   0.0000       0.019081         0.5192 
  11   0.0000       0.021088         0.5738 
  12   0.0000       0.021088         0.5738 
  13   0.0000       0.054550         1.4844 
  14   0.0000       0.057330         1.5600 
  15   0.0000       0.057330         1.5600 
  16   0.0000       0.080907         2.2016 
  17   0.0000       0.090581         2.4648 
  18   0.0000       0.090581         2.4648 
  19   0.0000       0.091017         2.4767 
  20   0.0000       0.091017         2.4767 
  21   0.0000       0.091828         2.4988 
  22   0.0000       0.135405         3.6846 
  23   0.0000       0.146270         3.9802 
  24   0.0000       0.146270         3.9802 
  25   0.0000       0.188142         5.1196 
  26   0.0000       0.205501         5.5920 
  27   0.0000       0.205501         5.5920 
  28   0.0000       0.206850         5.6287 
  29   0.0000       0.206850         5.6287 
  30   0.0000       0.208832         5.6826 
  31   0.0000       0.208832         5.6826 
  32   0.0000       0.233700         6.3593 
  33   0.0000       0.233700         6.3593 
  34   0.0000       0.243654         6.6302 
  35   0.0000       0.254820         6.9340 
  36   0.0000       0.254820         6.9340 
  37   0.0000       0.267847         7.2885 
  38   0.0000       0.267847         7.2885 
  39   0.0000       0.269548         7.3348 
  40   0.0000       0.278717         7.5843 
  41   0.0000       0.314171         8.5490 
  42   0.0000       0.317695         8.6449 
  43   0.0000       0.317695         8.6449 
  44   0.0000       0.355255         9.6670 
  45   0.0000       0.355255         9.6670 
  46   0.0000       0.355387         9.6706 
  47   0.0000       0.355387         9.6706 
  48   0.0000       0.356968         9.7136 
  49   0.0000       0.356968         9.7136 
  50   0.0000       0.441273        12.0076 
  51   0.0000       0.454013        12.3543 
  52   0.0000       0.464434        12.6379 
  53   0.0000       0.464434        12.6379 
  54   0.0000       0.467351        12.7173 
  55   0.0000       0.467351        12.7173 
  56   0.0000       0.509350        13.8601 
  57   0.0000       0.509350        13.8601 
  58   0.0000       0.520979        14.1765 
  59   0.0000       0.520979        14.1765 
  60   0.0000       0.535442        14.5701 
  61   0.0000       0.535442        14.5701 
  62   0.0000       0.550354        14.9759 
  63   0.0000       0.565377        15.3847 
  64   0.0000       0.565377        15.3847 
  65   0.0000       0.565885        15.3985 
  66   0.0000       0.565885        15.3985 
  67   0.0000       0.568131        15.4596 
  68   0.0000       0.568131        15.4596 
  69   0.0000       0.572827        15.5874 
  70   0.0000       0.572827        15.5874 
  71   0.0000       0.582589        15.8530 
  72   0.0000       0.590165        16.0592 
  73   0.0000       0.590165        16.0592 
  74   0.0000       0.609512        16.5857 
  75   0.0000       0.609512        16.5857 
  76   0.0000       0.631534        17.1849 
  77   0.0000       0.660508        17.9733 
  78   0.0000       0.676858        18.4182 
  79   0.0000       0.676858        18.4182 
  80   0.0000       0.682021        18.5587 
  81   0.0000       0.682021        18.5587 
  82   0.0000       0.712715        19.3940 
  83   0.0000       0.758106        20.6291 
  84   0.0000       0.758106        20.6291 
  85   0.0000       0.792391        21.5621 
  86   0.0000       0.798309        21.7231 
  87   0.0000       0.798309        21.7231 
  88   0.0000       0.803956        21.8768 
  89   0.0000       0.803956        21.8768 
  90   0.0000       0.805860        21.9286 
  91   0.0000       0.805860        21.9286 
  92   0.0000       0.933533        25.4027 
  93   0.0000       0.947806        25.7911 
  94   0.0000       0.947806        25.7911 
  95   0.0000       0.957358        26.0510 
  96   0.0000       0.957358        26.0510 
  97   0.0000       0.960143        26.1268 
  98   0.0000       0.960143        26.1268 
  99   0.0000       0.998319        27.1656 
 100   0.0000       0.998319        27.1656 
 101   0.0000       1.008100        27.4318 
 102   0.0000       1.008100        27.4318 
 103   0.0000       1.073732        29.2177 
 104   0.0000       1.073732        29.2177 
 105   0.0000       1.083643        29.4874 
 106   0.0000       1.098676        29.8965 
 107   0.0000       1.098676        29.8965 
 108   0.0000       1.133009        30.8307 
 109   0.0000       1.133009        30.8307 
 110   0.0000       1.142797        31.0971 
 111   0.0000       1.261695        34.3325 
 112   0.0000       1.301235        35.4084 
 113   0.0000       1.301235        35.4084 
 114   0.0000       1.356934        36.9241 
 115   0.0000       1.588582        43.2275 
 116   0.0000       1.596489        43.4427 
 117   0.0000       1.596489        43.4427 
 118   0.0000       1.607478        43.7417 
 119   0.0000       1.607478        43.7417 
 120   0.0000       1.679032        45.6888 
 121   0.0000       1.679032        45.6888 
 122   0.0000       1.727891        47.0183 
 123   0.0000       1.822892        49.6034 
 124   0.0000       1.822892        49.6034 
 125   0.0000       1.890837        51.4523 
 126   0.0000       1.890837        51.4523 
 127   0.0000       2.031026        55.2670 
 128   0.0000       2.031026        55.2670 
 129   0.0000       2.075316        56.4722 
 130   0.0000       2.075316        56.4722 
 131   0.0000       2.106329        57.3161 
 132   0.0000       2.217416        60.3390 
 133   0.0000       2.217416        60.3390 
 134   0.0000       2.225641        60.5628 
 135   0.0000       2.332821        63.4793 
 136   0.0000       2.332821        63.4793 
 137   0.0000       2.393401        65.1278 
 138   0.0000       2.442239        66.4567 
 139   0.0000       2.442239        66.4567 
 140   0.0000       2.635818        71.7243 
 141   0.0000       2.638362        71.7935 
 142   0.0000       2.638362        71.7935 
 143   0.0000       3.063186        83.3535 
 144   0.0000       3.063186        83.3535 
 145   0.0000       3.172808        86.3365 
 146   0.0000       3.308628        90.0324 
 147   0.0000       3.845097       104.6304 
 148   0.0000       3.845097       104.6304 
 149   0.0000       3.916295       106.5678 
 150   0.0000       3.916295       106.5678 
 151   0.0000       4.020604       109.4062 
 152   0.0000       4.020604       109.4062 
 153   0.0000       4.045631       110.0872 
 154   0.0000       4.045631       110.0872 
 155   0.0000       4.065671       110.6325 
 156   0.0000       4.163842       113.3039 
 157   0.0000       4.163842       113.3039 
 158   0.0000       4.221443       114.8713 
 159   0.0000       4.221443       114.8713 
 160   0.0000       4.274804       116.3233 
 161   0.0000       4.309848       117.2769 
 162   0.0000       4.309849       117.2769 
 163   0.0000       4.644658       126.3876 
 164   0.0000       4.644658       126.3876 
 165   0.0000       4.708621       128.1281 
 166   0.0000       4.708621       128.1281 
 167   0.0000       4.768448       129.7561 
 168   0.0000       4.820442       131.1709 
 169   0.0000       4.820442       131.1709 
 170   0.0000       4.862835       132.3245 
 171   0.0000       4.862835       132.3245 
 172   0.0000       4.926220       134.0493 
 173   0.0000       5.103730       138.8796 
 174   0.0000       5.103730       138.8796 
 175   0.0000       5.351646       145.6257 
 176   0.0000       5.568458       151.5255 
 177   0.0000       5.568458       151.5255 
 178   0.0000       5.709993       155.3768 
 179   0.0000       5.709993       155.3768 
 180   0.0000       5.901040       160.5755 
 181   0.0000       5.901040       160.5755 
 182   0.0000       5.910064       160.8210 
 183   0.0000       6.140394       167.0886 
 184   0.0000       6.140394       167.0886 
 185   0.0000       6.227752       169.4657 
 186   0.0000       6.418586       174.6586 
 187   0.0000       6.418586       174.6586 
 188   0.0000       6.461770       175.8337 
 189   0.0000       6.820597       185.5979 
 190   0.0000       6.820597       185.5979 
 191   0.0000       7.548275       205.3990 
 192   0.0000       7.548275       205.3990 
 193   0.0000       7.931997       215.8406 
 194   0.0000       8.210586       223.4214 
 195   0.0000       8.210586       223.4214 
 196   0.0000       9.071627       246.8515 
 197   0.0000       9.244576       251.5577 
 198   0.0000       9.244576       251.5577 
 199   0.0000       9.908571       269.6259 
 200   0.0000       9.908571       269.6259 
 201   0.0000      10.066598       273.9261 
 202   0.0000      10.066598       273.9261 
 203   0.0000      10.265328       279.3338 
 204   0.0000      10.265328       279.3338 
 205   0.0000      10.271922       279.5132 
 206   0.0000      10.271922       279.5132 
 207   0.0000      10.359825       281.9052 
 208   0.0000      10.549639       287.0703 
 209   0.0000      10.549639       287.0703 
 210   0.0000      10.604301       288.5577 
 211   0.0000      10.604301       288.5577 
 212   0.0000      10.709079       291.4088 
 213   0.0000      10.709079       291.4088 
 214   0.0000      10.777523       293.2713 
 215   0.0000      11.025616       300.0223 
 216   0.0000      11.025616       300.0223 
 217   0.0000      11.169493       303.9373 
 218   0.0000      11.390181       309.9426 
 219   0.0000      11.390181       309.9426 
 220   0.0000      11.499444       312.9158 
 221   0.0000      11.499444       312.9158 
 222   0.0000      11.611147       315.9554 
 223   0.0000      11.611147       315.9554 
 224   0.0000      11.688022       318.0472 
 225   0.0000      11.698888       318.3429 
 226   0.0000      11.698888       318.3429 
 227   0.0000      11.837764       322.1219 
 228   0.0000      11.837764       322.1219 
 229   0.0000      11.958707       325.4130 
 230   0.0000      11.958707       325.4130 
 231   0.0000      12.268671       333.8475 
 232   0.0000      12.268671       333.8475 
 233   0.0000      12.409868       337.6897 
 234   0.0000      12.409868       337.6897 
 235   0.0000      12.421941       338.0182 
 236   0.0000      12.521818       340.7360 
 237   0.0000      12.521818       340.7360 
 238   0.0000      12.661595       344.5395 
 239   0.0000      12.661596       344.5395 
 240   0.0000      12.837860       349.3359 
 241   0.0000      12.837860       349.3359 
 242   0.0000      12.971196       352.9642 
 243   0.0000      13.261863       360.8736 
 244   0.0000      13.261863       360.8736 
 245   0.0000      13.588819       369.7706 
 246   0.0000      13.588819       369.7706 
 247   0.0000      14.419798       392.3826 
 248   0.0000      14.419798       392.3826 
 249   0.0000      14.439841       392.9280 
 250   0.0000      15.478380       421.1881 
 251   0.0000      15.922970       433.2860 
 252   0.0000      15.922970       433.2860 
 253   0.0000      16.120235       438.6539 
 254   0.0000      16.909739       460.1374 
 255   0.0000      16.909739       460.1374 
 256   0.0000      17.213265       468.3968 
 257   0.0000      17.213265       468.3968 
 258   0.0000      17.356068       472.2826 
 259   0.0000      17.356068       472.2826 
 260   0.0000      17.846130       485.6179 
 261   0.0000      17.981967       489.3142 
 262   0.0000      17.981967       489.3142 
 263   0.0000      18.560989       505.0702 
 264   0.0000      18.560989       505.0702 
 265   0.0000      19.054602       518.5021 
 266   0.0000      19.054602       518.5021 
 267   0.0000      19.483264       530.1666 
 268   0.0000      22.054507       600.1336 
 269   0.0000      22.876498       622.5012 
 270   0.0000      22.876498       622.5012 
 271   0.0000      24.043316       654.2519 
 272   0.0000      24.043316       654.2519 
 273   0.0000      26.606846       724.0091 
 274   0.0000      30.460441       828.8707 
 275   0.0000      31.821333       865.9025 
 276   0.0000      31.821336       865.9026 
 277   0.0000      31.832118       866.1960 
 278   0.0000      31.832118       866.1960 
 279   0.0000      32.753248       891.2612 
 280   0.0000      32.753248       891.2612 
 281   0.0000      33.601117       914.3329 
 282   0.0000      34.893595       949.5030 
 283   0.0000      66.451265      1808.2309 
 284   0.0000      66.451267      1808.2309 
 285   0.0000      67.122031      1826.4833 
 286   0.0000      67.122031      1826.4833 
 287   0.0000      68.962617      1876.5682 
 288   0.0000      73.883678      2010.4771 
 289   0.0000     143.480234      3904.2957 

                 SPIN DOWN ORBITALS
  NO   OCC          E(Eh)            E(eV) 
   0   1.0000     -18.857644      -513.1426 
   1   1.0000      -9.999808      -272.1086 
   2   1.0000      -1.076791       -29.3010 
   3   1.0000      -0.519224       -14.1288 
   4   1.0000      -0.435893       -11.8612 
   5   1.0000      -0.435893       -11.8612 
   6   1.0000      -0.332237        -9.0406 
   7   0.0000      -0.073857        -2.0098 
   8   0.0000      -0.073857        -2.0098 
   9   0.0000       0.001703         0.0463 
  10   0.0000       0.019081         0.5192 
  11   0.0000       0.021088         0.5738 
  12   0.0000       0.021088         0.5738 
  13   0.0000       0.054550         1.4844 
  14   0.0000       0.057330         1.5600 
  15   0.0000       0.057330         1.5600 
  16   0.0000       0.080907         2.2016 
  17   0.0000       0.090581         2.4648 
  18   0.0000       0.090581         2.4648 
  19   0.0000       0.091017         2.4767 
  20   0.0000       0.091017         2.4767 
  21   0.0000       0.091828         2.4988 
  22   0.0000       0.135405         3.6846 
  23   0.0000       0.146270         3.9802 
  24   0.0000       0.146270         3.9802 
  25   0.0000       0.188142         5.1196 
  26   0.0000       0.205501         5.5920 
  27   0.0000       0.205501         5.5920 
  28   0.0000       0.206850         5.6287 
  29   0.0000       0.206850         5.6287 
  30   0.0000       0.208832         5.6826 
  31   0.0000       0.208832         5.6826 
  32   0.0000       0.233700         6.3593 
  33   0.0000       0.233700         6.3593 
  34   0.0000       0.243654         6.6302 
  35   0.0000       0.254820         6.9340 
  36   0.0000       0.254820         6.9340 
  37   0.0000       0.267847         7.2885 
  38   0.0000       0.267847         7.2885 
  39   0.0000       0.269548         7.3348 
  40   0.0000       0.278717         7.5843 
  41   0.0000       0.314171         8.5490 
  42   0.0000       0.317695         8.6449 
  43   0.0000       0.317695         8.6449 
  44   0.0000       0.355255         9.6670 
  45   0.0000       0.355255         9.6670 
  46   0.0000       0.355387         9.6706 
  47   0.0000       0.355387         9.6706 
  48   0.0000       0.356968         9.7136 
  49   0.0000       0.356968         9.7136 
  50   0.0000       0.441273        12.0076 
  51   0.0000       0.454013        12.3543 
  52   0.0000       0.464434        12.6379 
  53   0.0000       0.464434        12.6379 
  54   0.0000       0.467351        12.7173 
  55   0.0000       0.467351        12.7173 
  56   0.0000       0.509350        13.8601 
  57   0.0000       0.509350        13.8601 
  58   0.0000       0.520979        14.1765 
  59   0.0000       0.520979        14.1765 
  60   0.0000       0.535442        14.5701 
  61   0.0000       0.535442        14.5701 
  62   0.0000       0.550354        14.9759 
  63   0.0000       0.565377        15.3847 
  64   0.0000       0.565377        15.3847 
  65   0.0000       0.565885        15.3985 
  66   0.0000       0.565885        15.3985 
  67   0.0000       0.568131        15.4596 
  68   0.0000       0.568131        15.4596 
  69   0.0000       0.572827        15.5874 
  70   0.0000       0.572827        15.5874 
  71   0.0000       0.582589        15.8530 
  72   0.0000       0.590165        16.0592 
  73   0.0000       0.590165        16.0592 
  74   0.0000       0.609512        16.5857 
  75   0.0000       0.609512        16.5857 
  76   0.0000       0.631534        17.1849 
  77   0.0000       0.660508        17.9733 
  78   0.0000       0.676858        18.4182 
  79   0.0000       0.676858        18.4182 
  80   0.0000       0.682021        18.5587 
  81   0.0000       0.682021        18.5587 
  82   0.0000       0.712715        19.3940 
  83   0.0000       0.758106        20.6291 
  84   0.0000       0.758106        20.6291 
  85   0.0000       0.792391        21.5621 
  86   0.0000       0.798309        21.7231 
  87   0.0000       0.798309        21.7231 
  88   0.0000       0.803956        21.8768 
  89   0.0000       0.803956        21.8768 
  90   0.0000       0.805860        21.9286 
  91   0.0000       0.805860        21.9286 
  92   0.0000       0.933533        25.4027 
  93   0.0000       0.947806        25.7911 
  94   0.0000       0.947806        25.7911 
  95   0.0000       0.957358        26.0510 
  96   0.0000       0.957358        26.0510 
  97   0.0000       0.960143        26.1268 
  98   0.0000       0.960143        26.1268 
  99   0.0000       0.998319        27.1656 
 100   0.0000       0.998319        27.1656 
 101   0.0000       1.008100        27.4318 
 102   0.0000       1.008100        27.4318 
 103   0.0000       1.073732        29.2177 
 104   0.0000       1.073732        29.2177 
 105   0.0000       1.083643        29.4874 
 106   0.0000       1.098676        29.8965 
 107   0.0000       1.098676        29.8965 
 108   0.0000       1.133009        30.8307 
 109   0.0000       1.133009        30.8307 
 110   0.0000       1.142797        31.0971 
 111   0.0000       1.261695        34.3325 
 112   0.0000       1.301235        35.4084 
 113   0.0000       1.301235        35.4084 
 114   0.0000       1.356934        36.9241 
 115   0.0000       1.588582        43.2275 
 116   0.0000       1.596489        43.4427 
 117   0.0000       1.596489        43.4427 
 118   0.0000       1.607478        43.7417 
 119   0.0000       1.607478        43.7417 
 120   0.0000       1.679032        45.6888 
 121   0.0000       1.679032        45.6888 
 122   0.0000       1.727891        47.0183 
 123   0.0000       1.822892        49.6034 
 124   0.0000       1.822892        49.6034 
 125   0.0000       1.890837        51.4523 
 126   0.0000       1.890837        51.4523 
 127   0.0000       2.031026        55.2670 
 128   0.0000       2.031026        55.2670 
 129   0.0000       2.075316        56.4722 
 130   0.0000       2.075316        56.4722 
 131   0.0000       2.106329        57.3161 
 132   0.0000       2.217416        60.3390 
 133   0.0000       2.217416        60.3390 
 134   0.0000       2.225641        60.5628 
 135   0.0000       2.332821        63.4793 
 136   0.0000       2.332821        63.4793 
 137   0.0000       2.393401        65.1278 
 138   0.0000       2.442239        66.4567 
 139   0.0000       2.442239        66.4567 
 140   0.0000       2.635818        71.7243 
 141   0.0000       2.638362        71.7935 
 142   0.0000       2.638362        71.7935 
 143   0.0000       3.063186        83.3535 
 144   0.0000       3.063186        83.3535 
 145   0.0000       3.172808        86.3365 
 146   0.0000       3.308628        90.0324 
 147   0.0000       3.845097       104.6304 
 148   0.0000       3.845097       104.6304 
 149   0.0000       3.916295       106.5678 
 150   0.0000       3.916295       106.5678 
 151   0.0000       4.020604       109.4062 
 152   0.0000       4.020604       109.4062 
 153   0.0000       4.045631       110.0872 
 154   0.0000       4.045631       110.0872 
 155   0.0000       4.065671       110.6325 
 156   0.0000       4.163842       113.3039 
 157   0.0000       4.163842       113.3039 
 158   0.0000       4.221443       114.8713 
 159   0.0000       4.221443       114.8713 
 160   0.0000       4.274804       116.3233 
 161   0.0000       4.309848       117.2769 
 162   0.0000       4.309849       117.2769 
 163   0.0000       4.644658       126.3876 
 164   0.0000       4.644658       126.3876 
 165   0.0000       4.708621       128.1281 
 166   0.0000       4.708621       128.1281 
 167   0.0000       4.768448       129.7561 
 168   0.0000       4.820442       131.1709 
 169   0.0000       4.820442       131.1709 
 170   0.0000       4.862835       132.3245 
 171   0.0000       4.862835       132.3245 
 172   0.0000       4.926220       134.0493 
 173   0.0000       5.103730       138.8796 
 174   0.0000       5.103730       138.8796 
 175   0.0000       5.351646       145.6257 
 176   0.0000       5.568458       151.5255 
 177   0.0000       5.568458       151.5255 
 178   0.0000       5.709993       155.3768 
 179   0.0000       5.709993       155.3768 
 180   0.0000       5.901040       160.5755 
 181   0.0000       5.901040       160.5755 
 182   0.0000       5.910064       160.8210 
 183   0.0000       6.140394       167.0886 
 184   0.0000       6.140394       167.0886 
 185   0.0000       6.227752       169.4657 
 186   0.0000       6.418586       174.6586 
 187   0.0000       6.418586       174.6586 
 188   0.0000       6.461770       175.8337 
 189   0.0000       6.820597       185.5979 
 190   0.0000       6.820597       185.5979 
 191   0.0000       7.548275       205.3990 
 192   0.0000       7.548275       205.3990 
 193   0.0000       7.931997       215.8406 
 194   0.0000       8.210586       223.4214 
 195   0.0000       8.210586       223.4214 
 196   0.0000       9.071627       246.8515 
 197   0.0000       9.244576       251.5577 
 198   0.0000       9.244576       251.5577 
 199   0.0000       9.908571       269.6259 
 200   0.0000       9.908571       269.6259 
 201   0.0000      10.066598       273.9261 
 202   0.0000      10.066598       273.9261 
 203   0.0000      10.265328       279.3338 
 204   0.0000      10.265328       279.3338 
 205   0.0000      10.271922       279.5132 
 206   0.0000      10.271922       279.5132 
 207   0.0000      10.359825       281.9052 
 208   0.0000      10.549639       287.0703 
 209   0.0000      10.549639       287.0703 
 210   0.0000      10.604301       288.5577 
 211   0.0000      10.604301       288.5577 
 212   0.0000      10.709079       291.4088 
 213   0.0000      10.709079       291.4088 
 214   0.0000      10.777523       293.2713 
 215   0.0000      11.025616       300.0223 
 216   0.0000      11.025616       300.0223 
 217   0.0000      11.169493       303.9373 
 218   0.0000      11.390181       309.9426 
 219   0.0000      11.390181       309.9426 
 220   0.0000      11.499444       312.9158 
 221   0.0000      11.499444       312.9158 
 222   0.0000      11.611147       315.9554 
 223   0.0000      11.611147       315.9554 
 224   0.0000      11.688022       318.0472 
 225   0.0000      11.698888       318.3429 
 226   0.0000      11.698888       318.3429 
 227   0.0000      11.837764       322.1219 
 228   0.0000      11.837764       322.1219 
 229   0.0000      11.958707       325.4130 
 230   0.0000      11.958707       325.4130 
 231   0.0000      12.268671       333.8475 
 232   0.0000      12.268671       333.8475 
 233   0.0000      12.409868       337.6897 
 234   0.0000      12.409868       337.6897 
 235   0.0000      12.421941       338.0182 
 236   0.0000      12.521818       340.7360 
 237   0.0000      12.521818       340.7360 
 238   0.0000      12.661595       344.5395 
 239   0.0000      12.661596       344.5395 
 240   0.0000      12.837860       349.3359 
 241   0.0000      12.837860       349.3359 
 242   0.0000      12.971196       352.9642 
 243   0.0000      13.261863       360.8736 
 244   0.0000      13.261863       360.8736 
 245   0.0000      13.588819       369.7706 
 246   0.0000      13.588819       369.7706 
 247   0.0000      14.419798       392.3826 
 248   0.0000      14.419798       392.3826 
 249   0.0000      14.439841       392.9280 
 250   0.0000      15.478380       421.1881 
 251   0.0000      15.922970       433.2860 
 252   0.0000      15.922970       433.2860 
 253   0.0000      16.120235       438.6539 
 254   0.0000      16.909739       460.1374 
 255   0.0000      16.909739       460.1374 
 256   0.0000      17.213265       468.3968 
 257   0.0000      17.213265       468.3968 
 258   0.0000      17.356068       472.2826 
 259   0.0000      17.356068       472.2826 
 260   0.0000      17.846130       485.6179 
 261   0.0000      17.981967       489.3142 
 262   0.0000      17.981967       489.3142 
 263   0.0000      18.560989       505.0702 
 264   0.0000      18.560989       505.0702 
 265   0.0000      19.054602       518.5021 
 266   0.0000      19.054602       518.5021 
 267   0.0000      19.483264       530.1666 
 268   0.0000      22.054507       600.1336 
 269   0.0000      22.876498       622.5012 
 270   0.0000      22.876498       622.5012 
 271   0.0000      24.043316       654.2519 
 272   0.0000      24.043316       654.2519 
 273   0.0000      26.606846       724.0091 
 274   0.0000      30.460441       828.8707 
 275   0.0000      31.821333       865.9025 
 276   0.0000      31.821336       865.9026 
 277   0.0000      31.832118       866.1960 
 278   0.0000      31.832118       866.1960 
 279   0.0000      32.753248       891.2612 
 280   0.0000      32.753248       891.2612 
 281   0.0000      33.601117       914.3329 
 282   0.0000      34.893595       949.5030 
 283   0.0000      66.451265      1808.2309 
 284   0.0000      66.451267      1808.2309 
 285   0.0000      67.122031      1826.4833 
 286   0.0000      67.122031      1826.4833 
 287   0.0000      68.962617      1876.5682 
 288   0.0000      73.883678      2010.4771 
 289   0.0000     143.480234      3904.2957 

                    ********************************
                    * MULLIKEN POPULATION ANALYSIS *
                    ********************************

--------------------------------------------
MULLIKEN ATOMIC CHARGES AND SPIN POPULATIONS
--------------------------------------------
   0 C :   -0.085722   -0.000000
   1 O :    0.085722    0.000000
Sum of atomic charges         :   -0.0000000
Sum of atomic spin populations:   -0.0000000

-----------------------------------------------------
MULLIKEN REDUCED ORBITAL CHARGES AND SPIN POPULATIONS
-----------------------------------------------------
CHARGE
  0 C s       :     3.940395  s :     3.940395
      pz      :     0.995945  p :     2.029755
      px      :     0.516905
      py      :     0.516905
      dz2     :     0.035892  d :     0.101407
      dxz     :     0.032758
      dyz     :     0.032758
      dx2y2   :     0.000000
      dxy     :    -0.000000
      f0      :     0.003500  f :     0.012203
      f+1     :     0.004351
      f-1     :     0.004351
      f+2     :     0.000000
      f-2     :    -0.000000
      f+3     :     0.000000
      f-3     :     0.000000
      g0      :     0.000445  g :     0.001827
      g+1     :     0.000691
      g-1     :     0.000691
      g+2     :     0.000000
      g-2     :     0.000000
      g+3     :     0.000000
      g-3     :     0.000000
      g+4     :     0.000000
      g-4     :     0.000000
      h0      :     0.000043  h :     0.000135
      h+1     :     0.000046
      h-1     :     0.000046
      h+2     :     0.000000
      h-2     :    -0.000000
      h+3     :     0.000000
      h-3     :     0.000000
      h+4     :     0.000000
      h-4     :     0.000000
      h+5     :     0.000000
      h-5     :     0.000000
  1 O s       :     3.732311  s :     3.732311
      pz      :     1.281413  p :     4.136763
      px      :     1.427675
      py      :     1.427675
      dz2     :     0.009179  d :     0.040636
      dxz     :     0.015729
      dyz     :     0.015729
      dx2y2   :    -0.000000
      dxy     :     0.000000
      f0      :     0.000783  f :     0.004092
      f+1     :     0.001655
      f-1     :     0.001655
      f+2     :    -0.000000
      f-2     :    -0.000000
      f+3     :     0.000000
      f-3     :     0.000000
      g0      :     0.000078  g :     0.000430
      g+1     :     0.000176
      g-1     :     0.000176
      g+2     :    -0.000000
      g-2     :     0.000000
      g+3     :     0.000000
      g-3     :     0.000000
      g+4     :     0.000000
      g-4     :    -0.000000
      h0      :     0.000017  h :     0.000045
      h+1     :     0.000014
      h-1     :     0.000014
      h+2     :    -0.000000
      h-2     :    -0.000000
      h+3     :     0.000000
      h-3     :     0.000000
      h+4     :     0.000000
      h-4     :    -0.000000
      h+5     :     0.000000
      h-5     :     0.000000

SPIN
  0 C s       :     0.000000  s :     0.000000
      pz      :    -0.000000  p :    -0.000000
      px      :    -0.000000
      py      :    -0.000000
      dz2     :    -0.000000  d :    -0.000000
      dxz     :    -0.000000
      dyz     :    -0.000000
      dx2y2   :     0.000000
      dxy     :    -0.000000
      f0      :    -0.000000  f :    -0.000000
      f+1     :     0.000000
      f-1     :    -0.000000
      f+2     :    -0.000000
      f-2     :     0.000000
      f+3     :    -0.000000
      f-3     :    -0.000000
      g0      :     0.000000  g :     0.000000
      g+1     :     0.000000
      g-1     :    -0.000000
      g+2     :    -0.000000
      g-2     :    -0.000000
      g+3     :     0.000000
      g-3     :    -0.000000
      g+4     :    -0.000000
      g-4     :     0.000000
      h0      :     0.000000  h :     0.000000
      h+1     :    -0.000000
      h-1     :    -0.000000
      h+2     :     0.000000
      h-2     :    -0.000000
      h+3     :     0.000000
      h-3     :    -0.000000
      h+4     :     0.000000
      h-4     :     0.000000
      h+5     :     0.000000
      h-5     :    -0.000000
  1 O s       :     0.000000  s :     0.000000
      pz      :    -0.000000  p :    -0.000000
      px      :     0.000000
      py      :     0.000000
      dz2     :    -0.000000  d :    -0.000000
      dxz     :     0.000000
      dyz     :     0.000000
      dx2y2   :    -0.000000
      dxy     :     0.000000
      f0      :     0.000000  f :     0.000000
      f+1     :    -0.000000
      f-1     :     0.000000
      f+2     :     0.000000
      f-2     :     0.000000
      f+3     :     0.000000
      f-3     :    -0.000000
      g0      :     0.000000  g :     0.000000
      g+1     :    -0.000000
      g-1     :    -0.000000
      g+2     :    -0.000000
      g-2     :     0.000000
      g+3     :     0.000000
      g-3     :     0.000000
      g+4     :    -0.000000
      g-4     :    -0.000000
      h0      :     0.000000  h :     0.000000
      h+1     :    -0.000000
      h-1     :    -0.000000
      h+2     :     0.000000
      h-2     :     0.000000
      h+3     :     0.000000
      h-3     :     0.000000
      h+4     :    -0.000000
      h-4     :     0.000000
      h+5     :     0.000000
      h-5     :     0.000000


                     *******************************
                     * LOEWDIN POPULATION ANALYSIS *
                     *******************************

-------------------------------------------
LOEWDIN ATOMIC CHARGES AND SPIN POPULATIONS
-------------------------------------------
   0 C :   -0.172616    0.000000
   1 O :    0.172616   -0.000000

----------------------------------------------------
LOEWDIN REDUCED ORBITAL CHARGES AND SPIN POPULATIONS
----------------------------------------------------
CHARGE
  0 C s       :     3.184768  s :     3.184768
      pz      :     1.219214  p :     2.264918
      px      :     0.522852
      py      :     0.522852
      dz2     :     0.238879  d :     0.481123
      dxz     :     0.121122
      dyz     :     0.121122
      dx2y2   :     0.000000
      dxy     :     0.000000
      f0      :     0.068627  f :     0.185935
      f+1     :     0.058654
      f-1     :     0.058654
      f+2     :     0.000000
      f-2     :     0.000000
      f+3     :     0.000000
      f-3     :     0.000000
      g0      :     0.012374  g :     0.049689
      g+1     :     0.018658
      g-1     :     0.018658
      g+2     :     0.000000
      g-2     :     0.000000
      g+3     :     0.000000
      g-3     :     0.000000
      g+4     :     0.000000
      g-4     :     0.000000
      h0      :     0.001936  h :     0.006182
      h+1     :     0.002123
      h-1     :     0.002123
      h+2     :     0.000000
      h-2     :     0.000000
      h+3     :     0.000000
      h-3     :     0.000000
      h+4     :     0.000000
      h-4     :     0.000000
      h+5     :     0.000000
      h-5     :     0.000000
  1 O s       :     3.360753  s :     3.360753
      pz      :     1.690366  p :     4.140216
      px      :     1.224925
      py      :     1.224925
      dz2     :     0.164728  d :     0.228510
      dxz     :     0.031891
      dyz     :     0.031891
      dx2y2   :     0.000000
      dxy     :     0.000000
      f0      :     0.044498  f :     0.075435
      f+1     :     0.015468
      f-1     :     0.015468
      f+2     :     0.000000
      f-2     :     0.000000
      f+3     :     0.000000
      f-3     :     0.000000
      g0      :     0.011511  g :     0.018942
      g+1     :     0.003716
      g-1     :     0.003716
      g+2     :     0.000000
      g-2     :     0.000000
      g+3     :     0.000000
      g-3     :     0.000000
      g+4     :     0.000000
      g-4     :     0.000000
      h0      :     0.002346  h :     0.003529
      h+1     :     0.000591
      h-1     :     0.000591
      h+2     :     0.000000
      h-2     :     0.000000
      h+3     :     0.000000
      h-3     :     0.000000
      h+4     :     0.000000
      h-4     :     0.000000
      h+5     :     0.000000
      h-5     :     0.000000

SPIN
  0 C s       :     0.000000  s :     0.000000
      pz      :    -0.000000  p :    -0.000000
      px      :     0.000000
      py      :     0.000000
      dz2     :     0.000000  d :     0.000000
      dxz     :    -0.000000
      dyz     :     0.000000
      dx2y2   :     0.000000
      dxy     :    -0.000000
      f0      :    -0.000000  f :    -0.000000
      f+1     :    -0.000000
      f-1     :     0.000000
      f+2     :     0.000000
      f-2     :     0.000000
      f+3     :     0.000000
      f-3     :     0.000000
      g0      :    -0.000000  g :    -0.000000
      g+1     :     0.000000
      g-1     :    -0.000000
      g+2     :    -0.000000
      g-2     :    -0.000000
      g+3     :     0.000000
      g-3     :    -0.000000
      g+4     :    -0.000000
      g-4     :     0.000000
      h0      :    -0.000000  h :    -0.000000
      h+1     :     0.000000
      h-1     :    -0.000000
      h+2     :     0.000000
      h-2     :     0.000000
      h+3     :     0.000000
      h-3     :    -0.000000
      h+4     :     0.000000
      h-4     :     0.000000
      h+5     :     0.000000
      h-5     :    -0.000000
  1 O s       :    -0.000000  s :    -0.000000
      pz      :    -0.000000  p :    -0.000000
      px      :    -0.000000
      py      :     0.000000
      dz2     :    -0.000000  d :    -0.000000
      dxz     :    -0.000000
      dyz     :     0.000000
      dx2y2   :     0.000000
      dxy     :    -0.000000
      f0      :     0.000000  f :     0.000000
      f+1     :     0.000000
      f-1     :    -0.000000
      f+2     :    -0.000000
      f-2     :    -0.000000
      f+3     :     0.000000
      f-3     :    -0.000000
      g0      :     0.000000  g :    -0.000000
      g+1     :    -0.000000
      g-1     :    -0.000000
      g+2     :     0.000000
      g-2     :     0.000000
      g+3     :     0.000000
      g-3     :     0.000000
      g+4     :    -0.000000
      g-4     :    -0.000000
      h0      :     0.000000  h :     0.000000
      h+1     :    -0.000000
      h-1     :    -0.000000
      h+2     :     0.000000
      h-2     :     0.000000
      h+3     :     0.000000
      h-3     :     0.000000
      h+4     :    -0.000000
      h-4     :     0.000000
      h+5     :     0.000000
      h-5     :     0.000000


                      *****************************
                      * MAYER POPULATION ANALYSIS *
                      *****************************

  NA   - Mulliken gross atomic population
  ZA   - Total nuclear charge
  QA   - Mulliken gross atomic charge
  VA   - Mayer's total valence
  BVA  - Mayer's bonded valence
  FA   - Mayer's free valence

  ATOM       NA         ZA         QA         VA         BVA        FA
  0 C      6.0857     6.0000    -0.0857     2.3057     2.3057    -0.0000
  1 O      7.9143     8.0000     0.0857     2.3057     2.3057     0.0000

  Mayer bond orders larger than 0.1
B(  0-C ,  1-O ) :   2.3057 

-------
TIMINGS
-------

Total SCF time: 0 days 0 hours 20 min 24 sec 

Total time                  ....    1224.667 sec
Sum of individual times     ....    1224.153 sec  (100.0%)

Fock matrix formation       ....    1219.312 sec  ( 99.6%)
  XC integration            ....      53.329 sec  (  4.4% of F)
    Basis function eval.    ....       4.281 sec  (  8.0% of XC)
    Density eval.           ....      10.983 sec  ( 20.6% of XC)
    XC-Functional eval.     ....       0.684 sec  (  1.3% of XC)
    XC-Potential eval.      ....      36.880 sec  ( 69.2% of XC)
Diagonalization             ....       0.597 sec  (  0.0%)
Density matrix formation    ....       0.013 sec  (  0.0%)
Population analysis         ....       0.057 sec  (  0.0%)
Initial guess               ....       2.328 sec  (  0.2%)
Orbital Transformation      ....       0.000 sec  (  0.0%)
Orbital Orthonormalization  ....       0.000 sec  (  0.0%)
DIIS solution               ....       0.285 sec  (  0.0%)
Grid generation             ....       1.562 sec  (  0.1%)

-------------------------   --------------------
FINAL SINGLE POINT ENERGY      -113.242594651072
-------------------------   --------------------


                            ***************************************
                            *     ORCA property calculations      *
                            ***************************************

                                    ---------------------
                                    Active property flags
                                    ---------------------
   (+) Dipole Moment
   (+) Polarizability


------------------------------------------------------------------------------
                       ORCA ELECTRIC PROPERTIES CALCULATION
------------------------------------------------------------------------------

Dipole Moment Calculation                       ... on
Quadrupole Moment Calculation                   ... off
Polarizability Calculation                      ... Analytic (CP-SCF)
GBWName                                         ... co_pbe.gbw
Electron density file                           ... co_pbe.scfp.tmp
The origin for moment calculation is the CENTER OF MASS  = ( 0.000000,  0.000000  1.217768)

-------------
DIPOLE MOMENT
-------------
                                X             Y             Z
Electronic contribution:     -0.00000       0.00000       0.08094
Nuclear contribution   :      0.00000       0.00000       0.00715
                        -----------------------------------------
Total Dipole Moment    :     -0.00000       0.00000       0.08809
                        -----------------------------------------
Magnitude (a.u.)       :      0.08809
Magnitude (Debye)      :      0.22391



--------------------
Rotational spectrum 
--------------------
 
Rotational constants in cm-1:     0.000000     1.930482     1.930482 
Rotational constants in MHz :     0.000000 57874.402002 57874.402002 

 Dipole components along the rotational axes: 
x,y,z [a.u.] :     0.088093     0.000000    -0.000000 
x,y,z [Debye]:     0.223915     0.000000    -0.000000 

 
Transforming and storing MO dipole integrals   ... done

                ... starting polarizability calculation

Opening the Dipole integral file               ... (co_pbe.dmo.tmp) done
Reading Dipole-MO integrals                    ... done
Solving CP-SCF equations                       ... 
------------------------------------------------------------------------------
                           ORCA CP-SCF CALCULATION
------------------------------------------------------------------------------

Input orbitals are from        ... co_pbe.gbw
Input Perturbation             ... co_pbe.cpv.tmp
Wavefunction output            ... co_pbe.cpu.tmp
Perturbation mode              ... Real perturbation (singlet)
Solver                         ... POPLE
Max. number of iterations      ... 200
Convergence tolerance          ... 1.000e-06
Integral handling              ... Direct
Number of perturbations        ... 3
Number of operators            ... 2
Orbital ranges used for CP-SCF:
 Operator 0:  Orbitals   0...  6  to   7...289
 Operator 1:  Orbitals   0...  6  to   7...289
DFT calculation                         ... on
Exchange functional (SCF)               ... PBE
Exchange functional (CP-SCF)            ... PBE
   PBE kappa parameter  XKappa (SCF)    ...  0.804000
   PBE kappa parameter  XKappa (CP-SCF) ...  0.804000
   PBE mue parameter   XMuePBE (SCF)    ...  0.219520
   PBE mue parameter   XMuePBE (CP-SCF) ...  0.219520
Correlation functional (SCF)            ... PBE
Correlation functional (CP-SCF)         ... PBE
   PBE beta parameter CBetaPBE (SCF)    ...  0.066725
   PBE beta parameter CBetaPBE (CP-SCF) ...  0.066725
 LDA part of GGA corr.  LDAOpt (SCF)    ... PW91-LDA
 LDA part of GGA corr.  LDAOpt (CP-SCF) ... PW91-LDA
Variables per vector in CP-SCF ... 3962
Number of vectors sought       ... 3
Recalculating density on grid  ... done
Calculating the xc-kernel      ... done
     CP-SCF ITERATION   0: 
     CP-SCF ITERATION   1:      0.086097732177
     CP-SCF ITERATION   2:      0.003499790336
     CP-SCF ITERATION   3:      0.000022407745
     CP-SCF ITERATION   4:      0.000000376523
done
Reading CP-SCF coefficients                    ... done
Doing the polarizability tensor   ... done
Cleaning up                                    ... done

-------------------------
THE POLARIZABILITY TENSOR
-------------------------

The raw cartesian tensor (atomic units):
   12.50587      0.00000      0.00000  
    0.00000     12.50587      0.00000  
    0.00000      0.00000     15.92169  
diagonalized tensor: 
   12.50587     12.50587     15.92169  

    0.12818      0.99175      0.00000  
   -0.99175      0.12818      0.00000  
    0.00000     -0.00000      1.00000  

Isotropic polarizability :  13.64447


Timings for individual modules:

Sum of individual times         ...     1954.583 sec (=  32.576 min)
GTO integral calculation        ...        0.978 sec (=   0.016 min)   0.1 %
SCF iterations                  ...     1224.695 sec (=  20.412 min)  62.7 %
Solution of CP-SCF eqns.        ...      728.909 sec (=  12.148 min)  37.3 %
                             ****ORCA TERMINATED NORMALLY****
TOTAL RUN TIME: 0 days 0 hours 32 minutes 39 seconds 918 msec
