
                                 *****************
                                 * O   R   C   A *
                                 *****************

           --- An Ab Initio, DFT and Semiempirical electronic structure package ---

                  #######################################################
                  #                        -***-                        #
                  #          Department of theory and spectroscopy      #
                  #               Directorship: Frank Neese             #
                  #        Max Planck Institute fuer Kohlenforschung    #
                  #                Kaiser Wilhelm Platz 1               #
                  #                 D-45470 Muelheim/Ruhr               #
                  #                      Germany                        #
                  #                                                     #
                  #                  All rights reserved                #
                  #                        -***-                        #
                  #######################################################


                         Program Version 4.1.2  - RELEASE  -


 With contributions from (in alphabetic order):
   Daniel Aravena         : Magnetic Properties
   Michael Atanasov       : Ab Initio Ligand Field Theory
   Alexander A. Auer      : GIAO ZORA
   Ute Becker             : Parallelization
   Giovanni Bistoni       : ED, Open-shell LED
   Martin Brehm           : Molecular dynamics
   Dmytro Bykov           : SCF Hessian
   Vijay G. Chilkuri      : MRCI spin determinant printing
   Dipayan Datta          : RHF DLPNO-CCSD density
   Achintya Kumar Dutta   : EOM-CC, STEOM-CC
   Dmitry Ganyushin       : Spin-Orbit,Spin-Spin,Magnetic field MRCI
   Miquel Garcia          : C-PCM Hessian
   Yang Guo               : DLPNO-NEVPT2, CIM, IAO-localization
   Andreas Hansen         : Spin unrestricted coupled pair/coupled cluster methods
   Benjamin Helmich-Paris : CASSCF linear response (MC-RPA)
   Lee Huntington         : MR-EOM, pCC
   Robert Izsak           : Overlap fitted RIJCOSX, COSX-SCS-MP3, EOM
   Christian Kollmar      : KDIIS, OOCD, Brueckner-CCSD(T), CCSD density
   Simone Kossmann        : Meta GGA functionals, TD-DFT gradient, OOMP2, MP2 Hessian
   Martin Krupicka        : AUTO-CI
   Lucas Lang             : DCDCAS
   Dagmar Lenk            : GEPOL surface, SMD
   Dimitrios Liakos       : Extrapolation schemes; parallel MDCI
   Dimitrios Manganas     : ROCIS; embedding schemes
   Dimitrios Pantazis     : SARC Basis sets
   Taras Petrenko         : DFT Hessian,TD-DFT gradient, ASA, ECA, R-Raman, ABS, FL, XAS/XES, NRVS
   Peter Pinski           : DLPNO-MP2, DLPNO-MP2 Gradient
   Christoph Reimann      : Effective Core Potentials
   Marius Retegan         : Local ZFS, SOC
   Christoph Riplinger    : Optimizer, TS searches, QM/MM, DLPNO-CCSD(T), (RO)-DLPNO pert. Triples
   Tobias Risthaus        : Range-separated hybrids, TD-DFT gradient, RPA, STAB
   Michael Roemelt        : Restricted open shell CIS
   Masaaki Saitow         : Open-shell DLPNO
   Barbara Sandhoefer     : DKH picture change effects
   Avijit Sen             : IP-ROCIS
   Kantharuban Sivalingam : CASSCF convergence, NEVPT2, FIC-MRCI
   Bernardo de Souza      : ESD, SOC TD-DFT
   Georgi Stoychev        : AutoAux, RI-MP2 NMR
   Willem Van den Heuvel  : Paramagnetic NMR
   Boris Wezisla          : Elementary symmetry handling
   Frank Wennmohs         : Technical directorship


 We gratefully acknowledge several colleagues who have allowed us to
 interface, adapt or use parts of their codes:
   Stefan Grimme, W. Hujo, H. Kruse,             : VdW corrections, initial TS optimization,
                  C. Bannwarth                     DFT functionals, gCP, sTDA/sTD-DF
   Ed Valeev                                     : LibInt (2-el integral package), F12 methods
   Garnet Chan, S. Sharma, J. Yang, R. Olivares  : DMRG
   Ulf Ekstrom                                   : XCFun DFT Library
   Mihaly Kallay                                 : mrcc  (arbitrary order and MRCC methods)
   Andreas Klamt, Michael Diedenhofen            : otool_cosmo (COSMO solvation model)
   Jiri Pittner, Ondrej Demel                    : Mk-CCSD
   Frank Weinhold                                : gennbo (NPA and NBO analysis)
   Christopher J. Cramer and Donald G. Truhlar   : smd solvation model
   Lars Goerigk                                  : TD-DFT with DH, B97 family of functionals
   V. Asgeirsson, H. Jonsson                     : NEB implementation
   FAccTs GmbH                                   : IRC, NEB, NEB-TS, Multilevel


 Your calculation uses the libint2 library for the computation of 2-el integrals
 For citations please refer to: http://libint.valeyev.net

 This ORCA versions uses:
   CBLAS   interface :  Fast vector & matrix operations
   LAPACKE interface :  Fast linear algebra routines
   SCALAPACK package :  Parallel linear algebra routines


----- Orbital basis set information -----
Your calculation utilizes the basis: aug-pc-4
   H, C-F              : F. Jensen, J. Chem. Phys. 115, 9113 (2001).
                         F. Jensen, J. Chem. Phys. 116, 7372 (2002).
                         F. Jensen, J. Chem. Phys. 117, 9234 (2002).
   Si-Cl               : F. Jensen, T. Helgaker, J. Chem. Phys. 121, 3463 (2004).
   He-B, Ne-Mg, Al, Ar : F. Jensen, J. Phys. Chem. A 111, 11198 (2007).
   K, Ca, Ga-Kr        : F. Jensen, J. Chem. Phys. 136, 094110 (2012).
   Sc-Zn               : F. Jensen, J. Chem. Phys. 138, 014107 (2013).

================================================================================
                                        WARNINGS
                       Please study these warnings very carefully!
================================================================================


INFO   : the flag for use of LIBINT has been found!

================================================================================
                                       INPUT FILE
================================================================================
NAME = cs_pbe.inp
|  1> !uks pbe nori aug-pc-4 grid7 nofinalgrid verytightscf
|  2> 
|  3> %maxcore 1500
|  4> 
|  5> %pal nprocs 1 end
|  6> 
|  7> %scf
|  8> 	maxiter 200
|  9> end
| 10> %elprop
| 11> 	dipole true
| 12> 	 polar 1
| 13> 	 maxiter 200
| 14> end
| 15> 
| 16> * xyz 0 1
| 17> C 0.0000 0.0000 0.0000
| 18> S 0.0000 0.0000 1.5349
| 19> *
| 20> 
| 21>                          ****END OF INPUT****
================================================================================

                       ****************************
                       * Single Point Calculation *
                       ****************************

---------------------------------
CARTESIAN COORDINATES (ANGSTROEM)
---------------------------------
  C      0.000000    0.000000    0.000000
  S      0.000000    0.000000    1.534900

----------------------------
CARTESIAN COORDINATES (A.U.)
----------------------------
  NO LB      ZA    FRAG     MASS         X           Y           Z
   0 C     6.0000    0    12.011    0.000000    0.000000    0.000000
   1 S    16.0000    0    32.060    0.000000    0.000000    2.900541

--------------------------------
INTERNAL COORDINATES (ANGSTROEM)
--------------------------------
 C      0   0   0     0.000000000000     0.00000000     0.00000000
 S      1   0   0     1.534900000000     0.00000000     0.00000000

---------------------------
INTERNAL COORDINATES (A.U.)
---------------------------
 C      0   0   0     0.000000000000     0.00000000     0.00000000
 S      1   0   0     2.900540642956     0.00000000     0.00000000

---------------------
BASIS SET INFORMATION
---------------------
There are 2 groups of distinct atoms

 Group   1 Type C   : 28s12p7d4f3g2h contracted to 9s8p7d4f3g2h pattern {11101111111/51111111/1111111/1111/111/11}
 Group   2 Type S   : 44s27p7d4f3g2h contracted to 8s7p7d4f3g2h pattern {15121211111/111111111/1111111/1111/111/11}

Atom   0C    basis set group =>   1
Atom   1S    basis set group =>   2
------------------------------------------------------------------------------
                           ORCA GTO INTEGRAL CALCULATION
------------------------------------------------------------------------------

                         BASIS SET STATISTICS AND STARTUP INFO

 # of primitive gaussian shells          ...  143
 # of primitive gaussian functions       ...  413
 # of contracted shells                  ...   64
 # of contracted basis functions         ...  286
 Highest angular momentum                ...    5
 Maximum contraction depth               ...   15
 Integral package used                   ... LIBINT
 Integral threshhold            Thresh   ...  1.000e-12
 Primitive cut-off              TCut     ...  1.000e-14


------------------------------ INTEGRAL EVALUATION ----------------------------


 * One electron integrals 
 Pre-screening matrix                    ... done
 Shell pair data                         ... done (   0.001 sec)

-------------------------------------------------------------------------------
                                 ORCA SCF
-------------------------------------------------------------------------------

------------
SCF SETTINGS
------------
Hamiltonian:
 Density Functional     Method          .... DFT(GTOs)
 Exchange Functional    Exchange        .... PBE
   PBE kappa parameter   XKappa         ....  0.804000
   PBE mue parameter    XMuePBE         ....  0.219520
 Correlation Functional Correlation     .... PBE
   PBE beta parameter  CBetaPBE         ....  0.066725
 LDA part of GGA corr.  LDAOpt          .... PW91-LDA
 Gradients option       PostSCFGGA      .... off
   Density functional embedding theory  .... OFF
   NL short-range parameter             ....  6.400000


General Settings:
 Integral files         IntName         .... cs_pbe
 Hartree-Fock type      HFTyp           .... UHF
 Total Charge           Charge          ....    0
 Multiplicity           Mult            ....    1
 Number of Electrons    NEL             ....   22
 Basis Dimension        Dim             ....  286
 Nuclear Repulsion      ENuc            ....     33.0972779965 Eh

Convergence Acceleration:
 DIIS                   CNVDIIS         .... on
   Start iteration      DIISMaxIt       ....    12
   Startup error        DIISStart       ....  0.200000
   # of expansion vecs  DIISMaxEq       ....     5
   Bias factor          DIISBfac        ....   1.050
   Max. coefficient     DIISMaxC        ....  10.000
 Newton-Raphson         CNVNR           .... off
 SOSCF                  CNVSOSCF        .... off
 Level Shifting         CNVShift        .... on
   Level shift para.    LevelShift      ....    0.2500
   Turn off err/grad.   ShiftErr        ....    0.0010
 Zerner damping         CNVZerner       .... off
 Static damping         CNVDamp         .... on
   Fraction old density DampFac         ....    0.7000
   Max. Damping (<1)    DampMax         ....    0.9800
   Min. Damping (>=0)   DampMin         ....    0.0000
   Turn off err/grad.   DampErr         ....    0.1000
 Fernandez-Rico         CNVRico         .... off

SCF Procedure:
 Maximum # iterations   MaxIter         ....   200
 SCF integral mode      SCFMode         .... Direct
   Integral package                     .... LIBINT
 Reset frequency        DirectResetFreq ....    20
 Integral Threshold     Thresh          ....  1.000e-12 Eh
 Primitive CutOff       TCut            ....  1.000e-14 Eh

Convergence Tolerance:
 Convergence Check Mode ConvCheckMode   .... Total+1el-Energy
 Convergence forced     ConvForced      .... 0
 Energy Change          TolE            ....  1.000e-09 Eh
 1-El. energy change                    ....  1.000e-06 Eh
 DIIS Error             TolErr          ....  1.000e-08


Diagonalization of the overlap matrix:
Smallest eigenvalue                        ... 3.591e-06
Time for diagonalization                   ...    0.019 sec
Threshold for overlap eigenvalues          ... 1.000e-08
Number of eigenvalues below threshold      ... 0
Time for construction of square roots      ...    0.010 sec
Total time needed                          ...    0.029 sec

-------------------
DFT GRID GENERATION
-------------------

General Integration Accuracy     IntAcc      ...  5.670
Radial Grid Type                 RadialGrid  ... Gauss-Chebyshev
Angular Grid (max. acc.)         AngularGrid ... Lebedev-770
Angular grid pruning method      GridPruning ... 3 (G Style)
Weight generation scheme         WeightScheme... Becke
Basis function cutoff            BFCut       ...    1.0000e-12
Integration weight cutoff        WCut        ...    1.0000e-14
Grids for H and He will be reduced by one unit

# of grid points (after initial pruning)     ...  52226 (   0.0 sec)
# of grid points (after weights+screening)   ...  52047 (   0.0 sec)
nearest neighbour list constructed           ...    0.0 sec
Grid point re-assignment to atoms done       ...    0.0 sec
Grid point division into batches done        ...    1.2 sec
Reduced shell lists constructed in    1.7 sec

Total number of grid points                  ...    52047
Total number of batches                      ...      815
Average number of points per batch           ...       63
Average number of grid points per atom       ...    26024
Average number of shells per batch           ...    49.24 (76.94%)
Average number of basis functions per batch  ...   225.06 (78.69%)
Average number of large shells per batch     ...    44.62 (90.62%)
Average number of large basis fcns per batch ...   204.36 (90.80%)
Maximum spatial batch extension              ...  15.92, 15.92, 22.37 au
Average spatial batch extension              ...   2.75,  2.75,  2.54 au

Time for grid setup =    1.753 sec

------------------------------
INITIAL GUESS: MODEL POTENTIAL
------------------------------
Loading Hartree-Fock densities                     ... done
Calculating cut-offs                               ... done
Setting up the integral package                    ... done
Initializing the effective Hamiltonian             ... done
Starting the Coulomb interaction                   ... done (   0.1 sec)
Reading the grid                                   ... done
Mapping shells                                     ... done
Starting the XC term evaluation                    ... done (   2.2 sec)
  promolecular density results
     # of electrons  =     22.000000266
     EX              =    -29.901669745
     EC              =     -0.791102479
     EX+EC           =    -30.692772224
Transforming the Hamiltonian                       ... done (   0.0 sec)
Diagonalizing the Hamiltonian                      ... done (   0.0 sec)
Back transforming the eigenvectors                 ... done (   0.0 sec)
Now organizing SCF variables                       ... done
                      ------------------
                      INITIAL GUESS DONE (   4.2 sec)
                      ------------------
--------------
SCF ITERATIONS
--------------
ITER       Energy         Delta-E        Max-DP      RMS-DP      [F,P]     Damp
               ***  Starting incremental Fock matrix formation  ***
  0   -435.9852274489   0.000000000000 0.03762609  0.00033792  0.1745371 0.7000
  1   -436.0178906791  -0.032663230206 0.01520994  0.00016125  0.0464598 0.7000
                               ***Turning on DIIS***
  2   -436.0208834665  -0.002992787395 0.03036607  0.00023902  0.0354889 0.0000
  3   -436.0345775689  -0.013694102337 0.01061749  0.00013721  0.0396737 0.0000
  4   -436.0340767650   0.000500803901 0.01004624  0.00009176  0.0458305 0.0000
  5   -436.0370215111  -0.002944746158 0.00269152  0.00003125  0.0207750 0.0000
  6   -436.0375931951  -0.000571683994 0.00057159  0.00000906  0.0092110 0.0000
  7   -436.0377028437  -0.000109648612 0.00023806  0.00000374  0.0042132 0.0000
  8   -436.0377252323  -0.000022388530 0.00015881  0.00000217  0.0019733 0.0000
  9   -436.0377300778  -0.000004845565 0.00012260  0.00000213  0.0009511 0.0000
 10   -436.0377314488  -0.000001370989 0.00009511  0.00000100  0.0002414 0.0000
 11   -436.0377315383  -0.000000089457 0.00003818  0.00000033  0.0000691 0.0000
 12   -436.0377315505  -0.000000012219 0.00000519  0.00000007  0.0000055 0.0000
 13   -436.0377315505  -0.000000000048 0.00002049  0.00000016  0.0000015 0.0000
 14   -436.0377315505  -0.000000000005 0.00001455  0.00000011  0.0000003 0.0000
                 **** Energy Check signals convergence ****

               *****************************************************
               *                     SUCCESS                       *
               *           SCF CONVERGED AFTER  15 CYCLES          *
               *****************************************************


----------------
TOTAL SCF ENERGY
----------------

Total Energy       :         -436.03773155 Eh          -11865.18989 eV

Components:
Nuclear Repulsion  :           33.09727800 Eh             900.62272 eV
Electronic Energy  :         -469.13500955 Eh          -12765.81261 eV
One Electron Energy:         -666.06015329 Eh          -18124.41820 eV
Two Electron Energy:          196.92514374 Eh            5358.60559 eV

Virial components:
Potential Energy   :         -871.63334403 Eh          -23718.34911 eV
Kinetic Energy     :          435.59561248 Eh           11853.15922 eV
Virial Ratio       :            2.00101498


DFT components:
N(Alpha)           :       10.999999987435 electrons
N(Beta)            :       10.999999987435 electrons
N(Total)           :       21.999999974870 electrons
E(X)               :      -29.960133868448 Eh       
E(C)               :       -0.791969648070 Eh       
E(XC)              :      -30.752103516518 Eh       
DFET-embed. en.    :        0.000000000000 Eh       

---------------
SCF CONVERGENCE
---------------

  Last Energy change         ...    2.2737e-13  Tolerance :   1.0000e-09
  Last MAX-Density change    ...    1.1674e-05  Tolerance :   1.0000e-08
  Last RMS-Density change    ...    1.0961e-07  Tolerance :   1.0000e-09
  Last DIIS Error            ...    3.3865e-08  Tolerance :   1.0000e-08

             **** THE GBW FILE WAS UPDATED (cs_pbe.gbw) ****
             **** DENSITY FILE WAS UPDATED (cs_pbe.scfp.tmp) ****
             **** ENERGY FILE WAS UPDATED (cs_pbe.en.tmp) ****
----------------------
UHF SPIN CONTAMINATION
----------------------

Warning: in a DFT calculation there is little theoretical justification to 
         calculate <S**2> as in Hartree-Fock theory. We will do it anyways
         but you should keep in mind that the values have only limited relevance

Expectation value of <S**2>     :    -0.000000
Ideal value S*(S+1) for S=0.0   :     0.000000
Deviation                       :    -0.000000

----------------
ORBITAL ENERGIES
----------------
                 SPIN UP ORBITALS
  NO   OCC          E(Eh)            E(eV) 
   0   1.0000     -88.084200     -2396.8929 
   1   1.0000      -9.982753      -271.6445 
   2   1.0000      -7.727138      -210.2661 
   3   1.0000      -5.744118      -156.3054 
   4   1.0000      -5.744118      -156.3054 
   5   1.0000      -5.742285      -156.2555 
   6   1.0000      -0.767533       -20.8856 
   7   1.0000      -0.479146       -13.0382 
   8   1.0000      -0.328200        -8.9308 
   9   1.0000      -0.328200        -8.9308 
  10   1.0000      -0.271287        -7.3821 
  11   0.0000      -0.125926        -3.4266 
  12   0.0000      -0.125926        -3.4266 
  13   0.0000      -0.009596        -0.2611 
  14   0.0000       0.001119         0.0305 
  15   0.0000       0.015928         0.4334 
  16   0.0000       0.015928         0.4334 
  17   0.0000       0.030442         0.8284 
  18   0.0000       0.041909         1.1404 
  19   0.0000       0.041909         1.1404 
  20   0.0000       0.059904         1.6301 
  21   0.0000       0.069722         1.8972 
  22   0.0000       0.069722         1.8972 
  23   0.0000       0.070796         1.9265 
  24   0.0000       0.087208         2.3731 
  25   0.0000       0.087208         2.3731 
  26   0.0000       0.093723         2.5503 
  27   0.0000       0.115750         3.1497 
  28   0.0000       0.115750         3.1497 
  29   0.0000       0.126467         3.4413 
  30   0.0000       0.130161         3.5419 
  31   0.0000       0.130161         3.5419 
  32   0.0000       0.140124         3.8130 
  33   0.0000       0.140124         3.8130 
  34   0.0000       0.155854         4.2410 
  35   0.0000       0.200922         5.4674 
  36   0.0000       0.202084         5.4990 
  37   0.0000       0.202084         5.4990 
  38   0.0000       0.213788         5.8175 
  39   0.0000       0.213788         5.8175 
  40   0.0000       0.217752         5.9253 
  41   0.0000       0.217752         5.9253 
  42   0.0000       0.245671         6.6851 
  43   0.0000       0.245671         6.6851 
  44   0.0000       0.254427         6.9233 
  45   0.0000       0.254733         6.9316 
  46   0.0000       0.254733         6.9316 
  47   0.0000       0.259499         7.0613 
  48   0.0000       0.261068         7.1040 
  49   0.0000       0.261068         7.1040 
  50   0.0000       0.268733         7.3126 
  51   0.0000       0.268733         7.3126 
  52   0.0000       0.295470         8.0402 
  53   0.0000       0.295470         8.0402 
  54   0.0000       0.304647         8.2899 
  55   0.0000       0.354596         9.6490 
  56   0.0000       0.354596         9.6490 
  57   0.0000       0.363678         9.8962 
  58   0.0000       0.366007         9.9596 
  59   0.0000       0.366007         9.9596 
  60   0.0000       0.371170        10.1000 
  61   0.0000       0.407764        11.0958 
  62   0.0000       0.407764        11.0958 
  63   0.0000       0.413357        11.2480 
  64   0.0000       0.413357        11.2480 
  65   0.0000       0.444970        12.1082 
  66   0.0000       0.451142        12.2762 
  67   0.0000       0.451142        12.2762 
  68   0.0000       0.459876        12.5139 
  69   0.0000       0.459876        12.5139 
  70   0.0000       0.469174        12.7669 
  71   0.0000       0.469174        12.7669 
  72   0.0000       0.490664        13.3516 
  73   0.0000       0.490664        13.3516 
  74   0.0000       0.501072        13.6349 
  75   0.0000       0.501072        13.6349 
  76   0.0000       0.524371        14.2688 
  77   0.0000       0.524371        14.2688 
  78   0.0000       0.524727        14.2785 
  79   0.0000       0.524727        14.2785 
  80   0.0000       0.528472        14.3805 
  81   0.0000       0.555544        15.1171 
  82   0.0000       0.555544        15.1171 
  83   0.0000       0.568100        15.4588 
  84   0.0000       0.568100        15.4588 
  85   0.0000       0.587192        15.9783 
  86   0.0000       0.612319        16.6620 
  87   0.0000       0.612319        16.6620 
  88   0.0000       0.614757        16.7284 
  89   0.0000       0.614997        16.7349 
  90   0.0000       0.614997        16.7349 
  91   0.0000       0.623108        16.9556 
  92   0.0000       0.623108        16.9556 
  93   0.0000       0.658679        17.9236 
  94   0.0000       0.658679        17.9236 
  95   0.0000       0.667414        18.1613 
  96   0.0000       0.667414        18.1613 
  97   0.0000       0.667755        18.1705 
  98   0.0000       0.686319        18.6757 
  99   0.0000       0.686319        18.6757 
 100   0.0000       0.692370        18.8403 
 101   0.0000       0.692370        18.8403 
 102   0.0000       0.733247        19.9527 
 103   0.0000       0.733247        19.9527 
 104   0.0000       0.736442        20.0396 
 105   0.0000       0.776495        21.1295 
 106   0.0000       0.776495        21.1295 
 107   0.0000       0.786277        21.3957 
 108   0.0000       0.809872        22.0377 
 109   0.0000       0.809872        22.0377 
 110   0.0000       0.866675        23.5834 
 111   0.0000       0.876876        23.8610 
 112   0.0000       0.876876        23.8610 
 113   0.0000       0.967750        26.3338 
 114   0.0000       0.967750        26.3338 
 115   0.0000       0.971947        26.4480 
 116   0.0000       0.971948        26.4480 
 117   0.0000       0.993728        27.0407 
 118   0.0000       1.027609        27.9627 
 119   0.0000       1.027609        27.9627 
 120   0.0000       1.101879        29.9837 
 121   0.0000       1.101879        29.9837 
 122   0.0000       1.115293        30.3487 
 123   0.0000       1.196535        32.5594 
 124   0.0000       1.245405        33.8892 
 125   0.0000       1.245405        33.8892 
 126   0.0000       1.257618        34.2215 
 127   0.0000       1.257618        34.2215 
 128   0.0000       1.340455        36.4756 
 129   0.0000       1.340455        36.4756 
 130   0.0000       1.375553        37.4307 
 131   0.0000       1.420032        38.6410 
 132   0.0000       1.548719        42.1428 
 133   0.0000       1.548719        42.1428 
 134   0.0000       1.555361        42.3235 
 135   0.0000       1.555361        42.3235 
 136   0.0000       1.607196        43.7340 
 137   0.0000       1.724744        46.9327 
 138   0.0000       1.724744        46.9327 
 139   0.0000       1.937409        52.7196 
 140   0.0000       1.937409        52.7196 
 141   0.0000       2.016784        54.8795 
 142   0.0000       2.016784        54.8795 
 143   0.0000       2.104061        57.2544 
 144   0.0000       2.113584        57.5135 
 145   0.0000       2.113584        57.5135 
 146   0.0000       2.151916        58.5566 
 147   0.0000       2.151917        58.5566 
 148   0.0000       2.247227        61.1501 
 149   0.0000       2.354440        64.0676 
 150   0.0000       2.354440        64.0676 
 151   0.0000       2.464720        67.0684 
 152   0.0000       2.469375        67.1951 
 153   0.0000       2.469375        67.1951 
 154   0.0000       2.520980        68.5994 
 155   0.0000       2.520980        68.5994 
 156   0.0000       2.545529        69.2674 
 157   0.0000       2.545529        69.2674 
 158   0.0000       2.671996        72.7087 
 159   0.0000       2.818343        76.6910 
 160   0.0000       2.818343        76.6910 
 161   0.0000       2.848491        77.5114 
 162   0.0000       3.174143        86.3728 
 163   0.0000       3.174143        86.3728 
 164   0.0000       3.199036        87.0502 
 165   0.0000       3.239191        88.1429 
 166   0.0000       3.239191        88.1429 
 167   0.0000       3.251275        88.4717 
 168   0.0000       3.251275        88.4717 
 169   0.0000       3.381747        92.0220 
 170   0.0000       3.471962        94.4769 
 171   0.0000       3.471962        94.4769 
 172   0.0000       3.598927        97.9318 
 173   0.0000       3.807114       103.5968 
 174   0.0000       3.807114       103.5968 
 175   0.0000       3.964314       107.8745 
 176   0.0000       3.964314       107.8745 
 177   0.0000       4.012675       109.1904 
 178   0.0000       4.012675       109.1904 
 179   0.0000       4.013740       109.2194 
 180   0.0000       4.013740       109.2194 
 181   0.0000       4.168856       113.4403 
 182   0.0000       4.168856       113.4403 
 183   0.0000       4.359147       118.6184 
 184   0.0000       4.359147       118.6184 
 185   0.0000       4.474432       121.7555 
 186   0.0000       4.593524       124.9961 
 187   0.0000       4.593524       124.9961 
 188   0.0000       4.764033       129.6359 
 189   0.0000       4.767003       129.7167 
 190   0.0000       4.767003       129.7167 
 191   0.0000       4.779277       130.0507 
 192   0.0000       4.779277       130.0507 
 193   0.0000       5.117953       139.2666 
 194   0.0000       5.117953       139.2666 
 195   0.0000       5.142773       139.9420 
 196   0.0000       5.142773       139.9420 
 197   0.0000       5.286344       143.8487 
 198   0.0000       5.433285       147.8472 
 199   0.0000       5.433285       147.8472 
 200   0.0000       5.486922       149.3067 
 201   0.0000       5.486922       149.3067 
 202   0.0000       5.547195       150.9469 
 203   0.0000       5.547196       150.9469 
 204   0.0000       5.723086       155.7331 
 205   0.0000       5.752732       156.5398 
 206   0.0000       5.811112       158.1284 
 207   0.0000       5.811112       158.1284 
 208   0.0000       6.028901       164.0547 
 209   0.0000       6.296480       171.3359 
 210   0.0000       6.296480       171.3359 
 211   0.0000       6.364491       173.1866 
 212   0.0000       6.364491       173.1866 
 213   0.0000       6.703701       182.4170 
 214   0.0000       6.703701       182.4170 
 215   0.0000       7.465472       203.1458 
 216   0.0000       7.711432       209.8387 
 217   0.0000       8.139521       221.4876 
 218   0.0000       8.139523       221.4877 
 219   0.0000       8.190885       222.8853 
 220   0.0000       8.190885       222.8853 
 221   0.0000       8.408866       228.8169 
 222   0.0000       8.408867       228.8169 
 223   0.0000       8.561431       232.9684 
 224   0.0000       8.561431       232.9684 
 225   0.0000       9.099759       247.6170 
 226   0.0000      10.202282       277.6182 
 227   0.0000      10.202282       277.6182 
 228   0.0000      10.242706       278.7182 
 229   0.0000      10.242709       278.7183 
 230   0.0000      10.465564       284.7825 
 231   0.0000      10.465564       284.7825 
 232   0.0000      10.741285       292.2852 
 233   0.0000      10.741285       292.2852 
 234   0.0000      10.745195       292.3916 
 235   0.0000      10.745195       292.3916 
 236   0.0000      10.825006       294.5634 
 237   0.0000      10.876097       295.9536 
 238   0.0000      10.876097       295.9536 
 239   0.0000      11.055608       300.8384 
 240   0.0000      11.055608       300.8384 
 241   0.0000      11.252234       306.1889 
 242   0.0000      11.252234       306.1889 
 243   0.0000      11.421129       310.7847 
 244   0.0000      11.421130       310.7848 
 245   0.0000      11.548402       314.2480 
 246   0.0000      11.548402       314.2480 
 247   0.0000      11.600253       315.6589 
 248   0.0000      11.602822       315.7288 
 249   0.0000      11.602822       315.7288 
 250   0.0000      11.702255       318.4345 
 251   0.0000      11.702256       318.4346 
 252   0.0000      11.707790       318.5852 
 253   0.0000      11.707791       318.5852 
 254   0.0000      11.864246       322.8425 
 255   0.0000      11.864246       322.8425 
 256   0.0000      12.036178       327.5211 
 257   0.0000      12.456705       338.9642 
 258   0.0000      12.456705       338.9642 
 259   0.0000      12.539847       341.2266 
 260   0.0000      12.539847       341.2266 
 261   0.0000      13.266347       360.9956 
 262   0.0000      13.611548       370.3890 
 263   0.0000      13.611548       370.3890 
 264   0.0000      13.827069       376.2537 
 265   0.0000      15.521693       422.3667 
 266   0.0000      16.834661       458.0944 
 267   0.0000      16.834662       458.0944 
 268   0.0000      17.248274       469.3494 
 269   0.0000      17.248274       469.3494 
 270   0.0000      17.811740       484.6821 
 271   0.0000      17.811740       484.6821 
 272   0.0000      18.232361       496.1278 
 273   0.0000      19.199749       522.4517 
 274   0.0000      29.893293       813.4379 
 275   0.0000      31.755397       864.1083 
 276   0.0000      31.755401       864.1084 
 277   0.0000      31.923649       868.6867 
 278   0.0000      31.923649       868.6867 
 279   0.0000      32.397715       881.5866 
 280   0.0000      62.337617      1696.2928 
 281   0.0000      62.337618      1696.2928 
 282   0.0000      62.509924      1700.9815 
 283   0.0000      62.509924      1700.9815 
 284   0.0000      63.070041      1716.2231 
 285   0.0000      72.633234      1976.4508 

                 SPIN DOWN ORBITALS
  NO   OCC          E(Eh)            E(eV) 
   0   1.0000     -88.084200     -2396.8929 
   1   1.0000      -9.982753      -271.6445 
   2   1.0000      -7.727138      -210.2661 
   3   1.0000      -5.744118      -156.3054 
   4   1.0000      -5.744118      -156.3054 
   5   1.0000      -5.742285      -156.2555 
   6   1.0000      -0.767533       -20.8856 
   7   1.0000      -0.479146       -13.0382 
   8   1.0000      -0.328200        -8.9308 
   9   1.0000      -0.328200        -8.9308 
  10   1.0000      -0.271287        -7.3821 
  11   0.0000      -0.125926        -3.4266 
  12   0.0000      -0.125926        -3.4266 
  13   0.0000      -0.009596        -0.2611 
  14   0.0000       0.001119         0.0305 
  15   0.0000       0.015928         0.4334 
  16   0.0000       0.015928         0.4334 
  17   0.0000       0.030442         0.8284 
  18   0.0000       0.041909         1.1404 
  19   0.0000       0.041909         1.1404 
  20   0.0000       0.059904         1.6301 
  21   0.0000       0.069722         1.8972 
  22   0.0000       0.069722         1.8972 
  23   0.0000       0.070796         1.9265 
  24   0.0000       0.087208         2.3731 
  25   0.0000       0.087208         2.3731 
  26   0.0000       0.093723         2.5503 
  27   0.0000       0.115750         3.1497 
  28   0.0000       0.115750         3.1497 
  29   0.0000       0.126467         3.4413 
  30   0.0000       0.130161         3.5419 
  31   0.0000       0.130161         3.5419 
  32   0.0000       0.140124         3.8130 
  33   0.0000       0.140124         3.8130 
  34   0.0000       0.155854         4.2410 
  35   0.0000       0.200922         5.4674 
  36   0.0000       0.202084         5.4990 
  37   0.0000       0.202084         5.4990 
  38   0.0000       0.213788         5.8175 
  39   0.0000       0.213788         5.8175 
  40   0.0000       0.217752         5.9253 
  41   0.0000       0.217752         5.9253 
  42   0.0000       0.245671         6.6851 
  43   0.0000       0.245671         6.6851 
  44   0.0000       0.254427         6.9233 
  45   0.0000       0.254733         6.9316 
  46   0.0000       0.254733         6.9316 
  47   0.0000       0.259499         7.0613 
  48   0.0000       0.261068         7.1040 
  49   0.0000       0.261068         7.1040 
  50   0.0000       0.268733         7.3126 
  51   0.0000       0.268733         7.3126 
  52   0.0000       0.295470         8.0402 
  53   0.0000       0.295470         8.0402 
  54   0.0000       0.304647         8.2899 
  55   0.0000       0.354596         9.6490 
  56   0.0000       0.354596         9.6490 
  57   0.0000       0.363678         9.8962 
  58   0.0000       0.366007         9.9596 
  59   0.0000       0.366007         9.9596 
  60   0.0000       0.371170        10.1000 
  61   0.0000       0.407764        11.0958 
  62   0.0000       0.407764        11.0958 
  63   0.0000       0.413357        11.2480 
  64   0.0000       0.413357        11.2480 
  65   0.0000       0.444970        12.1082 
  66   0.0000       0.451142        12.2762 
  67   0.0000       0.451142        12.2762 
  68   0.0000       0.459876        12.5139 
  69   0.0000       0.459876        12.5139 
  70   0.0000       0.469174        12.7669 
  71   0.0000       0.469174        12.7669 
  72   0.0000       0.490664        13.3516 
  73   0.0000       0.490664        13.3516 
  74   0.0000       0.501072        13.6349 
  75   0.0000       0.501072        13.6349 
  76   0.0000       0.524371        14.2688 
  77   0.0000       0.524371        14.2688 
  78   0.0000       0.524727        14.2785 
  79   0.0000       0.524727        14.2785 
  80   0.0000       0.528472        14.3805 
  81   0.0000       0.555544        15.1171 
  82   0.0000       0.555544        15.1171 
  83   0.0000       0.568100        15.4588 
  84   0.0000       0.568100        15.4588 
  85   0.0000       0.587192        15.9783 
  86   0.0000       0.612319        16.6620 
  87   0.0000       0.612319        16.6620 
  88   0.0000       0.614757        16.7284 
  89   0.0000       0.614997        16.7349 
  90   0.0000       0.614997        16.7349 
  91   0.0000       0.623108        16.9556 
  92   0.0000       0.623108        16.9556 
  93   0.0000       0.658679        17.9236 
  94   0.0000       0.658679        17.9236 
  95   0.0000       0.667414        18.1613 
  96   0.0000       0.667414        18.1613 
  97   0.0000       0.667755        18.1705 
  98   0.0000       0.686319        18.6757 
  99   0.0000       0.686319        18.6757 
 100   0.0000       0.692370        18.8403 
 101   0.0000       0.692370        18.8403 
 102   0.0000       0.733247        19.9527 
 103   0.0000       0.733247        19.9527 
 104   0.0000       0.736442        20.0396 
 105   0.0000       0.776495        21.1295 
 106   0.0000       0.776495        21.1295 
 107   0.0000       0.786277        21.3957 
 108   0.0000       0.809872        22.0377 
 109   0.0000       0.809872        22.0377 
 110   0.0000       0.866675        23.5834 
 111   0.0000       0.876876        23.8610 
 112   0.0000       0.876876        23.8610 
 113   0.0000       0.967750        26.3338 
 114   0.0000       0.967750        26.3338 
 115   0.0000       0.971947        26.4480 
 116   0.0000       0.971948        26.4480 
 117   0.0000       0.993728        27.0407 
 118   0.0000       1.027609        27.9627 
 119   0.0000       1.027609        27.9627 
 120   0.0000       1.101879        29.9837 
 121   0.0000       1.101879        29.9837 
 122   0.0000       1.115293        30.3487 
 123   0.0000       1.196535        32.5594 
 124   0.0000       1.245405        33.8892 
 125   0.0000       1.245405        33.8892 
 126   0.0000       1.257618        34.2215 
 127   0.0000       1.257618        34.2215 
 128   0.0000       1.340455        36.4756 
 129   0.0000       1.340455        36.4756 
 130   0.0000       1.375553        37.4307 
 131   0.0000       1.420032        38.6410 
 132   0.0000       1.548719        42.1428 
 133   0.0000       1.548719        42.1428 
 134   0.0000       1.555361        42.3235 
 135   0.0000       1.555361        42.3235 
 136   0.0000       1.607196        43.7340 
 137   0.0000       1.724744        46.9327 
 138   0.0000       1.724744        46.9327 
 139   0.0000       1.937409        52.7196 
 140   0.0000       1.937409        52.7196 
 141   0.0000       2.016784        54.8795 
 142   0.0000       2.016784        54.8795 
 143   0.0000       2.104061        57.2544 
 144   0.0000       2.113584        57.5135 
 145   0.0000       2.113584        57.5135 
 146   0.0000       2.151916        58.5566 
 147   0.0000       2.151917        58.5566 
 148   0.0000       2.247227        61.1501 
 149   0.0000       2.354440        64.0676 
 150   0.0000       2.354440        64.0676 
 151   0.0000       2.464720        67.0684 
 152   0.0000       2.469375        67.1951 
 153   0.0000       2.469375        67.1951 
 154   0.0000       2.520980        68.5994 
 155   0.0000       2.520980        68.5994 
 156   0.0000       2.545529        69.2674 
 157   0.0000       2.545529        69.2674 
 158   0.0000       2.671996        72.7087 
 159   0.0000       2.818343        76.6910 
 160   0.0000       2.818343        76.6910 
 161   0.0000       2.848491        77.5114 
 162   0.0000       3.174143        86.3728 
 163   0.0000       3.174143        86.3728 
 164   0.0000       3.199036        87.0502 
 165   0.0000       3.239191        88.1429 
 166   0.0000       3.239191        88.1429 
 167   0.0000       3.251275        88.4717 
 168   0.0000       3.251275        88.4717 
 169   0.0000       3.381747        92.0220 
 170   0.0000       3.471962        94.4769 
 171   0.0000       3.471962        94.4769 
 172   0.0000       3.598927        97.9318 
 173   0.0000       3.807114       103.5968 
 174   0.0000       3.807114       103.5968 
 175   0.0000       3.964314       107.8745 
 176   0.0000       3.964314       107.8745 
 177   0.0000       4.012675       109.1904 
 178   0.0000       4.012675       109.1904 
 179   0.0000       4.013740       109.2194 
 180   0.0000       4.013740       109.2194 
 181   0.0000       4.168856       113.4403 
 182   0.0000       4.168856       113.4403 
 183   0.0000       4.359147       118.6184 
 184   0.0000       4.359147       118.6184 
 185   0.0000       4.474432       121.7555 
 186   0.0000       4.593524       124.9961 
 187   0.0000       4.593524       124.9961 
 188   0.0000       4.764033       129.6359 
 189   0.0000       4.767003       129.7167 
 190   0.0000       4.767003       129.7167 
 191   0.0000       4.779277       130.0507 
 192   0.0000       4.779277       130.0507 
 193   0.0000       5.117953       139.2666 
 194   0.0000       5.117953       139.2666 
 195   0.0000       5.142773       139.9420 
 196   0.0000       5.142773       139.9420 
 197   0.0000       5.286344       143.8487 
 198   0.0000       5.433285       147.8472 
 199   0.0000       5.433285       147.8472 
 200   0.0000       5.486922       149.3067 
 201   0.0000       5.486922       149.3067 
 202   0.0000       5.547195       150.9469 
 203   0.0000       5.547196       150.9469 
 204   0.0000       5.723086       155.7331 
 205   0.0000       5.752732       156.5398 
 206   0.0000       5.811112       158.1284 
 207   0.0000       5.811112       158.1284 
 208   0.0000       6.028901       164.0547 
 209   0.0000       6.296480       171.3359 
 210   0.0000       6.296480       171.3359 
 211   0.0000       6.364491       173.1866 
 212   0.0000       6.364491       173.1866 
 213   0.0000       6.703701       182.4170 
 214   0.0000       6.703701       182.4170 
 215   0.0000       7.465472       203.1458 
 216   0.0000       7.711432       209.8387 
 217   0.0000       8.139521       221.4876 
 218   0.0000       8.139523       221.4877 
 219   0.0000       8.190885       222.8853 
 220   0.0000       8.190885       222.8853 
 221   0.0000       8.408866       228.8169 
 222   0.0000       8.408867       228.8169 
 223   0.0000       8.561431       232.9684 
 224   0.0000       8.561431       232.9684 
 225   0.0000       9.099759       247.6170 
 226   0.0000      10.202282       277.6182 
 227   0.0000      10.202282       277.6182 
 228   0.0000      10.242706       278.7182 
 229   0.0000      10.242709       278.7183 
 230   0.0000      10.465564       284.7825 
 231   0.0000      10.465564       284.7825 
 232   0.0000      10.741285       292.2852 
 233   0.0000      10.741285       292.2852 
 234   0.0000      10.745195       292.3916 
 235   0.0000      10.745195       292.3916 
 236   0.0000      10.825006       294.5634 
 237   0.0000      10.876097       295.9536 
 238   0.0000      10.876097       295.9536 
 239   0.0000      11.055608       300.8384 
 240   0.0000      11.055608       300.8384 
 241   0.0000      11.252234       306.1889 
 242   0.0000      11.252234       306.1889 
 243   0.0000      11.421129       310.7847 
 244   0.0000      11.421130       310.7848 
 245   0.0000      11.548402       314.2480 
 246   0.0000      11.548402       314.2480 
 247   0.0000      11.600253       315.6589 
 248   0.0000      11.602822       315.7288 
 249   0.0000      11.602822       315.7288 
 250   0.0000      11.702255       318.4345 
 251   0.0000      11.702256       318.4346 
 252   0.0000      11.707790       318.5852 
 253   0.0000      11.707791       318.5852 
 254   0.0000      11.864246       322.8425 
 255   0.0000      11.864246       322.8425 
 256   0.0000      12.036178       327.5211 
 257   0.0000      12.456705       338.9642 
 258   0.0000      12.456705       338.9642 
 259   0.0000      12.539847       341.2266 
 260   0.0000      12.539847       341.2266 
 261   0.0000      13.266347       360.9956 
 262   0.0000      13.611548       370.3890 
 263   0.0000      13.611548       370.3890 
 264   0.0000      13.827069       376.2537 
 265   0.0000      15.521693       422.3667 
 266   0.0000      16.834661       458.0944 
 267   0.0000      16.834662       458.0944 
 268   0.0000      17.248274       469.3494 
 269   0.0000      17.248274       469.3494 
 270   0.0000      17.811740       484.6821 
 271   0.0000      17.811740       484.6821 
 272   0.0000      18.232361       496.1278 
 273   0.0000      19.199749       522.4517 
 274   0.0000      29.893293       813.4379 
 275   0.0000      31.755397       864.1083 
 276   0.0000      31.755401       864.1084 
 277   0.0000      31.923649       868.6867 
 278   0.0000      31.923649       868.6867 
 279   0.0000      32.397715       881.5866 
 280   0.0000      62.337617      1696.2928 
 281   0.0000      62.337618      1696.2928 
 282   0.0000      62.509924      1700.9815 
 283   0.0000      62.509924      1700.9815 
 284   0.0000      63.070041      1716.2231 
 285   0.0000      72.633234      1976.4508 

                    ********************************
                    * MULLIKEN POPULATION ANALYSIS *
                    ********************************

--------------------------------------------
MULLIKEN ATOMIC CHARGES AND SPIN POPULATIONS
--------------------------------------------
   0 C :   -0.034805    0.000000
   1 S :    0.034805   -0.000000
Sum of atomic charges         :   -0.0000000
Sum of atomic spin populations:   -0.0000000

-----------------------------------------------------
MULLIKEN REDUCED ORBITAL CHARGES AND SPIN POPULATIONS
-----------------------------------------------------
CHARGE
  0 C s       :     3.800144  s :     3.800144
      pz      :     1.014724  p :     2.158272
      px      :     0.571774
      py      :     0.571774
      dz2     :     0.009896  d :     0.067452
      dxz     :     0.028778
      dyz     :     0.028778
      dx2y2   :     0.000000
      dxy     :     0.000000
      f0      :     0.000241  f :     0.007576
      f+1     :     0.003667
      f-1     :     0.003667
      f+2     :     0.000000
      f-2     :    -0.000000
      f+3     :     0.000000
      f-3     :     0.000000
      g0      :     0.000275  g :     0.001242
      g+1     :     0.000483
      g-1     :     0.000483
      g+2     :     0.000000
      g-2     :    -0.000000
      g+3     :     0.000000
      g-3     :     0.000000
      g+4     :     0.000000
      g-4     :     0.000000
      h0      :     0.000093  h :     0.000120
      h+1     :     0.000014
      h-1     :     0.000014
      h+2     :    -0.000000
      h-2     :    -0.000000
      h+3     :     0.000000
      h-3     :     0.000000
      h+4     :     0.000000
      h-4     :    -0.000000
      h+5     :     0.000000
      h-5     :     0.000000
  1 S s       :     5.952607  s :     5.952607
      pz      :     3.159907  p :     9.891196
      px      :     3.365645
      py      :     3.365645
      dz2     :     0.054629  d :     0.104845
      dxz     :     0.025108
      dyz     :     0.025108
      dx2y2   :     0.000000
      dxy     :     0.000000
      f0      :     0.005980  f :     0.013835
      f+1     :     0.003927
      f-1     :     0.003927
      f+2     :     0.000000
      f-2     :    -0.000000
      f+3     :     0.000000
      f-3     :     0.000000
      g0      :     0.001286  g :     0.002421
      g+1     :     0.000568
      g-1     :     0.000568
      g+2     :    -0.000000
      g-2     :    -0.000000
      g+3     :     0.000000
      g-3     :     0.000000
      g+4     :     0.000000
      g-4     :    -0.000000
      h0      :     0.000220  h :     0.000292
      h+1     :     0.000036
      h-1     :     0.000036
      h+2     :     0.000000
      h-2     :     0.000000
      h+3     :     0.000000
      h-3     :     0.000000
      h+4     :     0.000000
      h-4     :    -0.000000
      h+5     :     0.000000
      h-5     :     0.000000

SPIN
  0 C s       :     0.000000  s :     0.000000
      pz      :     0.000000  p :     0.000000
      px      :     0.000000
      py      :     0.000000
      dz2     :     0.000000  d :     0.000000
      dxz     :     0.000000
      dyz     :    -0.000000
      dx2y2   :     0.000000
      dxy     :    -0.000000
      f0      :     0.000000  f :     0.000000
      f+1     :     0.000000
      f-1     :    -0.000000
      f+2     :    -0.000000
      f-2     :     0.000000
      f+3     :     0.000000
      f-3     :    -0.000000
      g0      :     0.000000  g :     0.000000
      g+1     :     0.000000
      g-1     :    -0.000000
      g+2     :    -0.000000
      g-2     :     0.000000
      g+3     :     0.000000
      g-3     :     0.000000
      g+4     :     0.000000
      g-4     :     0.000000
      h0      :     0.000000  h :     0.000000
      h+1     :     0.000000
      h-1     :     0.000000
      h+2     :     0.000000
      h-2     :     0.000000
      h+3     :    -0.000000
      h-3     :    -0.000000
      h+4     :     0.000000
      h-4     :    -0.000000
      h+5     :    -0.000000
      h-5     :    -0.000000
  1 S s       :    -0.000000  s :    -0.000000
      pz      :     0.000000  p :     0.000000
      px      :    -0.000000
      py      :    -0.000000
      dz2     :    -0.000000  d :    -0.000000
      dxz     :    -0.000000
      dyz     :    -0.000000
      dx2y2   :    -0.000000
      dxy     :    -0.000000
      f0      :     0.000000  f :     0.000000
      f+1     :     0.000000
      f-1     :    -0.000000
      f+2     :    -0.000000
      f-2     :    -0.000000
      f+3     :    -0.000000
      f-3     :    -0.000000
      g0      :     0.000000  g :     0.000000
      g+1     :     0.000000
      g-1     :    -0.000000
      g+2     :    -0.000000
      g-2     :     0.000000
      g+3     :     0.000000
      g-3     :     0.000000
      g+4     :     0.000000
      g-4     :    -0.000000
      h0      :     0.000000  h :     0.000000
      h+1     :    -0.000000
      h-1     :    -0.000000
      h+2     :    -0.000000
      h-2     :    -0.000000
      h+3     :     0.000000
      h-3     :    -0.000000
      h+4     :     0.000000
      h-4     :    -0.000000
      h+5     :     0.000000
      h-5     :     0.000000


                     *******************************
                     * LOEWDIN POPULATION ANALYSIS *
                     *******************************

-------------------------------------------
LOEWDIN ATOMIC CHARGES AND SPIN POPULATIONS
-------------------------------------------
   0 C :   -0.803098    0.000000
   1 S :    0.803098   -0.000000

----------------------------------------------------
LOEWDIN REDUCED ORBITAL CHARGES AND SPIN POPULATIONS
----------------------------------------------------
CHARGE
  0 C s       :     3.331448  s :     3.331448
      pz      :     1.425589  p :     2.669041
      px      :     0.621726
      py      :     0.621726
      dz2     :     0.248518  d :     0.553602
      dxz     :     0.152542
      dyz     :     0.152542
      dx2y2   :     0.000000
      dxy     :     0.000000
      f0      :     0.073847  f :     0.176673
      f+1     :     0.051413
      f-1     :     0.051413
      f+2     :     0.000000
      f-2     :     0.000000
      f+3     :     0.000000
      f-3     :     0.000000
      g0      :     0.023944  g :     0.054183
      g+1     :     0.015120
      g-1     :     0.015120
      g+2     :     0.000000
      g-2     :     0.000000
      g+3     :     0.000000
      g-3     :     0.000000
      g+4     :     0.000000
      g-4     :     0.000000
      h0      :     0.006939  h :     0.018151
      h+1     :     0.005606
      h-1     :     0.005606
      h+2     :     0.000000
      h-2     :     0.000000
      h+3     :     0.000000
      h-3     :     0.000000
      h+4     :     0.000000
      h-4     :     0.000000
      h+5     :     0.000000
      h-5     :     0.000000
  1 S s       :     5.277934  s :     5.277934
      pz      :     3.280838  p :     9.471173
      px      :     3.095168
      py      :     3.095168
      dz2     :     0.236023  d :     0.307401
      dxz     :     0.035689
      dyz     :     0.035689
      dx2y2   :     0.000000
      dxy     :     0.000000
      f0      :     0.065811  f :     0.089698
      f+1     :     0.011944
      f-1     :     0.011944
      f+2     :     0.000000
      f-2     :     0.000000
      f+3     :     0.000000
      f-3     :     0.000000
      g0      :     0.022056  g :     0.036585
      g+1     :     0.007265
      g-1     :     0.007265
      g+2     :     0.000000
      g-2     :     0.000000
      g+3     :     0.000000
      g-3     :     0.000000
      g+4     :     0.000000
      g-4     :     0.000000
      h0      :     0.007054  h :     0.014111
      h+1     :     0.003529
      h-1     :     0.003529
      h+2     :     0.000000
      h-2     :     0.000000
      h+3     :     0.000000
      h-3     :     0.000000
      h+4     :     0.000000
      h-4     :     0.000000
      h+5     :     0.000000
      h-5     :     0.000000

SPIN
  0 C s       :    -0.000000  s :    -0.000000
      pz      :     0.000000  p :     0.000000
      px      :    -0.000000
      py      :    -0.000000
      dz2     :     0.000000  d :     0.000000
      dxz     :     0.000000
      dyz     :     0.000000
      dx2y2   :     0.000000
      dxy     :     0.000000
      f0      :     0.000000  f :     0.000000
      f+1     :    -0.000000
      f-1     :    -0.000000
      f+2     :    -0.000000
      f-2     :     0.000000
      f+3     :     0.000000
      f-3     :    -0.000000
      g0      :     0.000000  g :     0.000000
      g+1     :     0.000000
      g-1     :     0.000000
      g+2     :    -0.000000
      g-2     :    -0.000000
      g+3     :     0.000000
      g-3     :     0.000000
      g+4     :     0.000000
      g-4     :     0.000000
      h0      :    -0.000000  h :     0.000000
      h+1     :     0.000000
      h-1     :     0.000000
      h+2     :     0.000000
      h-2     :    -0.000000
      h+3     :    -0.000000
      h-3     :    -0.000000
      h+4     :     0.000000
      h-4     :    -0.000000
      h+5     :    -0.000000
      h-5     :    -0.000000
  1 S s       :    -0.000000  s :    -0.000000
      pz      :     0.000000  p :     0.000000
      px      :    -0.000000
      py      :     0.000000
      dz2     :    -0.000000  d :    -0.000000
      dxz     :     0.000000
      dyz     :    -0.000000
      dx2y2   :     0.000000
      dxy     :    -0.000000
      f0      :     0.000000  f :     0.000000
      f+1     :     0.000000
      f-1     :     0.000000
      f+2     :    -0.000000
      f-2     :    -0.000000
      f+3     :    -0.000000
      f-3     :    -0.000000
      g0      :    -0.000000  g :    -0.000000
      g+1     :     0.000000
      g-1     :    -0.000000
      g+2     :    -0.000000
      g-2     :     0.000000
      g+3     :     0.000000
      g-3     :     0.000000
      g+4     :     0.000000
      g-4     :     0.000000
      h0      :    -0.000000  h :    -0.000000
      h+1     :    -0.000000
      h-1     :     0.000000
      h+2     :    -0.000000
      h-2     :    -0.000000
      h+3     :     0.000000
      h-3     :    -0.000000
      h+4     :     0.000000
      h-4     :    -0.000000
      h+5     :     0.000000
      h-5     :     0.000000


                      *****************************
                      * MAYER POPULATION ANALYSIS *
                      *****************************

  NA   - Mulliken gross atomic population
  ZA   - Total nuclear charge
  QA   - Mulliken gross atomic charge
  VA   - Mayer's total valence
  BVA  - Mayer's bonded valence
  FA   - Mayer's free valence

  ATOM       NA         ZA         QA         VA         BVA        FA
  0 C      6.0348     6.0000    -0.0348     2.5567     2.5567    -0.0000
  1 S     15.9652    16.0000     0.0348     2.5567     2.5567    -0.0000

  Mayer bond orders larger than 0.1
B(  0-C ,  1-S ) :   2.5567 

-------
TIMINGS
-------

Total SCF time: 0 days 0 hours 36 min 34 sec 

Total time                  ....    2194.203 sec
Sum of individual times     ....    2193.576 sec  (100.0%)

Fock matrix formation       ....    2188.215 sec  ( 99.7%)
  XC integration            ....      69.943 sec  (  3.2% of F)
    Basis function eval.    ....       6.288 sec  (  9.0% of XC)
    Density eval.           ....      14.207 sec  ( 20.3% of XC)
    XC-Functional eval.     ....       0.946 sec  (  1.4% of XC)
    XC-Potential eval.      ....      47.854 sec  ( 68.4% of XC)
Diagonalization             ....       0.750 sec  (  0.0%)
Density matrix formation    ....       0.019 sec  (  0.0%)
Population analysis         ....       0.055 sec  (  0.0%)
Initial guess               ....       2.398 sec  (  0.1%)
Orbital Transformation      ....       0.000 sec  (  0.0%)
Orbital Orthonormalization  ....       0.000 sec  (  0.0%)
DIIS solution               ....       0.388 sec  (  0.0%)
Grid generation             ....       1.753 sec  (  0.1%)

-------------------------   --------------------
FINAL SINGLE POINT ENERGY      -436.037731550546
-------------------------   --------------------


                            ***************************************
                            *     ORCA property calculations      *
                            ***************************************

                                    ---------------------
                                    Active property flags
                                    ---------------------
   (+) Dipole Moment
   (+) Polarizability


------------------------------------------------------------------------------
                       ORCA ELECTRIC PROPERTIES CALCULATION
------------------------------------------------------------------------------

Dipole Moment Calculation                       ... on
Quadrupole Moment Calculation                   ... off
Polarizability Calculation                      ... Analytic (CP-SCF)
GBWName                                         ... cs_pbe.gbw
Electron density file                           ... cs_pbe.scfp.tmp
The origin for moment calculation is the CENTER OF MASS  = ( 0.000000,  0.000000  2.110035)

-------------
DIPOLE MOMENT
-------------
                                X             Y             Z
Electronic contribution:      0.00000      -0.00000       0.80242
Nuclear contribution   :      0.00000       0.00000      -0.01211
                        -----------------------------------------
Total Dipole Moment    :      0.00000      -0.00000       0.79031
                        -----------------------------------------
Magnitude (a.u.)       :      0.79031
Magnitude (Debye)      :      2.00881



--------------------
Rotational spectrum 
--------------------
 
Rotational constants in cm-1:     0.000000     0.818930     0.818930 
Rotational constants in MHz :     0.000000 24550.913255 24550.913255 

 Dipole components along the rotational axes: 
x,y,z [a.u.] :     0.790311    -0.000000     0.000000 
x,y,z [Debye]:     2.008810    -0.000000     0.000000 

 
Transforming and storing MO dipole integrals   ... done

                ... starting polarizability calculation

Opening the Dipole integral file               ... (cs_pbe.dmo.tmp) done
Reading Dipole-MO integrals                    ... done
Solving CP-SCF equations                       ... 
------------------------------------------------------------------------------
                           ORCA CP-SCF CALCULATION
------------------------------------------------------------------------------

Input orbitals are from        ... cs_pbe.gbw
Input Perturbation             ... cs_pbe.cpv.tmp
Wavefunction output            ... cs_pbe.cpu.tmp
Perturbation mode              ... Real perturbation (singlet)
Solver                         ... POPLE
Max. number of iterations      ... 200
Convergence tolerance          ... 1.000e-06
Integral handling              ... Direct
Number of perturbations        ... 3
Number of operators            ... 2
Orbital ranges used for CP-SCF:
 Operator 0:  Orbitals   0... 10  to  11...285
 Operator 1:  Orbitals   0... 10  to  11...285
DFT calculation                         ... on
Exchange functional (SCF)               ... PBE
Exchange functional (CP-SCF)            ... PBE
   PBE kappa parameter  XKappa (SCF)    ...  0.804000
   PBE kappa parameter  XKappa (CP-SCF) ...  0.804000
   PBE mue parameter   XMuePBE (SCF)    ...  0.219520
   PBE mue parameter   XMuePBE (CP-SCF) ...  0.219520
Correlation functional (SCF)            ... PBE
Correlation functional (CP-SCF)         ... PBE
   PBE beta parameter CBetaPBE (SCF)    ...  0.066725
   PBE beta parameter CBetaPBE (CP-SCF) ...  0.066725
 LDA part of GGA corr.  LDAOpt (SCF)    ... PW91-LDA
 LDA part of GGA corr.  LDAOpt (CP-SCF) ... PW91-LDA
Variables per vector in CP-SCF ... 6050
Number of vectors sought       ... 3
Recalculating density on grid  ... done
Calculating the xc-kernel      ... done
     CP-SCF ITERATION   0: 
     CP-SCF ITERATION   1:      0.240684169011
     CP-SCF ITERATION   2:      0.010629245107
     CP-SCF ITERATION   3:      0.000439246305
     CP-SCF ITERATION   4:      0.000008408312
     CP-SCF ITERATION   5:      0.000000064076
done
Reading CP-SCF coefficients                    ... done
Doing the polarizability tensor   ... done
Cleaning up                                    ... done

-------------------------
THE POLARIZABILITY TENSOR
-------------------------

The raw cartesian tensor (atomic units):
   24.47874     -0.00000      0.00000  
   -0.00000     24.47874      0.00000  
    0.00000      0.00000     38.98365  
diagonalized tensor: 
   24.47874     24.47874     38.98365  

   -0.16742      0.98589      0.00000  
   -0.98589     -0.16742      0.00000  
    0.00000     -0.00000      1.00000  

Isotropic polarizability :  29.31371


Timings for individual modules:

Sum of individual times         ...     3317.815 sec (=  55.297 min)
GTO integral calculation        ...        1.369 sec (=   0.023 min)   0.0 %
SCF iterations                  ...     2194.221 sec (=  36.570 min)  66.1 %
Solution of CP-SCF eqns.        ...     1122.225 sec (=  18.704 min)  33.8 %
                             ****ORCA TERMINATED NORMALLY****
TOTAL RUN TIME: 0 days 0 hours 55 minutes 18 seconds 182 msec
