
                                 *****************
                                 * O   R   C   A *
                                 *****************

           --- An Ab Initio, DFT and Semiempirical electronic structure package ---

                  #######################################################
                  #                        -***-                        #
                  #          Department of theory and spectroscopy      #
                  #               Directorship: Frank Neese             #
                  #        Max Planck Institute fuer Kohlenforschung    #
                  #                Kaiser Wilhelm Platz 1               #
                  #                 D-45470 Muelheim/Ruhr               #
                  #                      Germany                        #
                  #                                                     #
                  #                  All rights reserved                #
                  #                        -***-                        #
                  #######################################################


                         Program Version 4.1.2  - RELEASE  -


 With contributions from (in alphabetic order):
   Daniel Aravena         : Magnetic Properties
   Michael Atanasov       : Ab Initio Ligand Field Theory
   Alexander A. Auer      : GIAO ZORA
   Ute Becker             : Parallelization
   Giovanni Bistoni       : ED, Open-shell LED
   Martin Brehm           : Molecular dynamics
   Dmytro Bykov           : SCF Hessian
   Vijay G. Chilkuri      : MRCI spin determinant printing
   Dipayan Datta          : RHF DLPNO-CCSD density
   Achintya Kumar Dutta   : EOM-CC, STEOM-CC
   Dmitry Ganyushin       : Spin-Orbit,Spin-Spin,Magnetic field MRCI
   Miquel Garcia          : C-PCM Hessian
   Yang Guo               : DLPNO-NEVPT2, CIM, IAO-localization
   Andreas Hansen         : Spin unrestricted coupled pair/coupled cluster methods
   Benjamin Helmich-Paris : CASSCF linear response (MC-RPA)
   Lee Huntington         : MR-EOM, pCC
   Robert Izsak           : Overlap fitted RIJCOSX, COSX-SCS-MP3, EOM
   Christian Kollmar      : KDIIS, OOCD, Brueckner-CCSD(T), CCSD density
   Simone Kossmann        : Meta GGA functionals, TD-DFT gradient, OOMP2, MP2 Hessian
   Martin Krupicka        : AUTO-CI
   Lucas Lang             : DCDCAS
   Dagmar Lenk            : GEPOL surface, SMD
   Dimitrios Liakos       : Extrapolation schemes; parallel MDCI
   Dimitrios Manganas     : ROCIS; embedding schemes
   Dimitrios Pantazis     : SARC Basis sets
   Taras Petrenko         : DFT Hessian,TD-DFT gradient, ASA, ECA, R-Raman, ABS, FL, XAS/XES, NRVS
   Peter Pinski           : DLPNO-MP2, DLPNO-MP2 Gradient
   Christoph Reimann      : Effective Core Potentials
   Marius Retegan         : Local ZFS, SOC
   Christoph Riplinger    : Optimizer, TS searches, QM/MM, DLPNO-CCSD(T), (RO)-DLPNO pert. Triples
   Tobias Risthaus        : Range-separated hybrids, TD-DFT gradient, RPA, STAB
   Michael Roemelt        : Restricted open shell CIS
   Masaaki Saitow         : Open-shell DLPNO
   Barbara Sandhoefer     : DKH picture change effects
   Avijit Sen             : IP-ROCIS
   Kantharuban Sivalingam : CASSCF convergence, NEVPT2, FIC-MRCI
   Bernardo de Souza      : ESD, SOC TD-DFT
   Georgi Stoychev        : AutoAux, RI-MP2 NMR
   Willem Van den Heuvel  : Paramagnetic NMR
   Boris Wezisla          : Elementary symmetry handling
   Frank Wennmohs         : Technical directorship


 We gratefully acknowledge several colleagues who have allowed us to
 interface, adapt or use parts of their codes:
   Stefan Grimme, W. Hujo, H. Kruse,             : VdW corrections, initial TS optimization,
                  C. Bannwarth                     DFT functionals, gCP, sTDA/sTD-DF
   Ed Valeev                                     : LibInt (2-el integral package), F12 methods
   Garnet Chan, S. Sharma, J. Yang, R. Olivares  : DMRG
   Ulf Ekstrom                                   : XCFun DFT Library
   Mihaly Kallay                                 : mrcc  (arbitrary order and MRCC methods)
   Andreas Klamt, Michael Diedenhofen            : otool_cosmo (COSMO solvation model)
   Jiri Pittner, Ondrej Demel                    : Mk-CCSD
   Frank Weinhold                                : gennbo (NPA and NBO analysis)
   Christopher J. Cramer and Donald G. Truhlar   : smd solvation model
   Lars Goerigk                                  : TD-DFT with DH, B97 family of functionals
   V. Asgeirsson, H. Jonsson                     : NEB implementation
   FAccTs GmbH                                   : IRC, NEB, NEB-TS, Multilevel


 Your calculation uses the libint2 library for the computation of 2-el integrals
 For citations please refer to: http://libint.valeyev.net

 This ORCA versions uses:
   CBLAS   interface :  Fast vector & matrix operations
   LAPACKE interface :  Fast linear algebra routines
   SCALAPACK package :  Parallel linear algebra routines


----- Orbital basis set information -----
Your calculation utilizes the basis: aug-pc-4
   H, C-F              : F. Jensen, J. Chem. Phys. 115, 9113 (2001).
                         F. Jensen, J. Chem. Phys. 116, 7372 (2002).
                         F. Jensen, J. Chem. Phys. 117, 9234 (2002).
   Si-Cl               : F. Jensen, T. Helgaker, J. Chem. Phys. 121, 3463 (2004).
   He-B, Ne-Mg, Al, Ar : F. Jensen, J. Phys. Chem. A 111, 11198 (2007).
   K, Ca, Ga-Kr        : F. Jensen, J. Chem. Phys. 136, 094110 (2012).
   Sc-Zn               : F. Jensen, J. Chem. Phys. 138, 014107 (2013).

================================================================================
                                        WARNINGS
                       Please study these warnings very carefully!
================================================================================


INFO   : the flag for use of LIBINT has been found!

================================================================================
                                       INPUT FILE
================================================================================
NAME = cso_pbe.inp
|  1> !uks pbe nori aug-pc-4 grid7 nofinalgrid verytightscf
|  2> 
|  3> %maxcore 1500
|  4> 
|  5> %pal nprocs 1 end
|  6> 
|  7> %scf
|  8> 	maxiter 200
|  9> end
| 10> %elprop
| 11> 	dipole true
| 12> 	 polar 1
| 13> 	 maxiter 200
| 14> end
| 15> 
| 16> * xyz 0 1
| 17> C 0.0000 0.0000 0.0000
| 18> O 0.0000 0.0000 1.1600
| 19> S 0.0000 0.0000 -1.5600
| 20> *
| 21> 
| 22>                          ****END OF INPUT****
================================================================================

                       ****************************
                       * Single Point Calculation *
                       ****************************

---------------------------------
CARTESIAN COORDINATES (ANGSTROEM)
---------------------------------
  C      0.000000    0.000000    0.000000
  O      0.000000    0.000000    1.160000
  S      0.000000    0.000000   -1.560000

----------------------------
CARTESIAN COORDINATES (A.U.)
----------------------------
  NO LB      ZA    FRAG     MASS         X           Y           Z
   0 C     6.0000    0    12.011    0.000000    0.000000    0.000000
   1 O     8.0000    0    15.999    0.000000    0.000000    2.192082
   2 S    16.0000    0    32.060    0.000000    0.000000   -2.947973

--------------------------------
INTERNAL COORDINATES (ANGSTROEM)
--------------------------------
 C      0   0   0     0.000000000000     0.00000000     0.00000000
 O      1   0   0     1.160000000000     0.00000000     0.00000000
 S      1   2   0     1.560000000000   180.00000000     0.00000000

---------------------------
INTERNAL COORDINATES (A.U.)
---------------------------
 C      0   0   0     0.000000000000     0.00000000     0.00000000
 O      1   0   0     2.192082315349     0.00000000     0.00000000
 S      1   2   0     2.947972768917   180.00000000     0.00000000

---------------------
BASIS SET INFORMATION
---------------------
There are 3 groups of distinct atoms

 Group   1 Type C   : 28s12p7d4f3g2h contracted to 9s8p7d4f3g2h pattern {11101111111/51111111/1111111/1111/111/11}
 Group   2 Type O   : 27s12p7d4f3g2h contracted to 9s8p7d4f3g2h pattern {1191111111/51111111/1111111/1111/111/11}
 Group   3 Type S   : 44s27p7d4f3g2h contracted to 8s7p7d4f3g2h pattern {15121211111/111111111/1111111/1111/111/11}

Atom   0C    basis set group =>   1
Atom   1O    basis set group =>   2
Atom   2S    basis set group =>   3
------------------------------------------------------------------------------
                           ORCA GTO INTEGRAL CALCULATION
------------------------------------------------------------------------------

                         BASIS SET STATISTICS AND STARTUP INFO

 # of primitive gaussian shells          ...  198
 # of primitive gaussian functions       ...  588
 # of contracted shells                  ...   97
 # of contracted basis functions         ...  431
 Highest angular momentum                ...    5
 Maximum contraction depth               ...   15
 Integral package used                   ... LIBINT
 Integral threshhold            Thresh   ...  1.000e-12
 Primitive cut-off              TCut     ...  1.000e-14


------------------------------ INTEGRAL EVALUATION ----------------------------


 * One electron integrals 
 Pre-screening matrix                    ... done
 Shell pair data                         ... done (   0.002 sec)

-------------------------------------------------------------------------------
                                 ORCA SCF
-------------------------------------------------------------------------------

------------
SCF SETTINGS
------------
Hamiltonian:
 Density Functional     Method          .... DFT(GTOs)
 Exchange Functional    Exchange        .... PBE
   PBE kappa parameter   XKappa         ....  0.804000
   PBE mue parameter    XMuePBE         ....  0.219520
 Correlation Functional Correlation     .... PBE
   PBE beta parameter  CBetaPBE         ....  0.066725
 LDA part of GGA corr.  LDAOpt          .... PW91-LDA
 Gradients option       PostSCFGGA      .... off
   Density functional embedding theory  .... OFF
   NL short-range parameter             ....  6.400000


General Settings:
 Integral files         IntName         .... cso_pbe
 Hartree-Fock type      HFTyp           .... UHF
 Total Charge           Charge          ....    0
 Multiplicity           Mult            ....    1
 Number of Electrons    NEL             ....   30
 Basis Dimension        Dim             ....  431
 Nuclear Repulsion      ENuc            ....     79.3641960708 Eh

Convergence Acceleration:
 DIIS                   CNVDIIS         .... on
   Start iteration      DIISMaxIt       ....    12
   Startup error        DIISStart       ....  0.200000
   # of expansion vecs  DIISMaxEq       ....     5
   Bias factor          DIISBfac        ....   1.050
   Max. coefficient     DIISMaxC        ....  10.000
 Newton-Raphson         CNVNR           .... off
 SOSCF                  CNVSOSCF        .... off
 Level Shifting         CNVShift        .... on
   Level shift para.    LevelShift      ....    0.2500
   Turn off err/grad.   ShiftErr        ....    0.0010
 Zerner damping         CNVZerner       .... off
 Static damping         CNVDamp         .... on
   Fraction old density DampFac         ....    0.7000
   Max. Damping (<1)    DampMax         ....    0.9800
   Min. Damping (>=0)   DampMin         ....    0.0000
   Turn off err/grad.   DampErr         ....    0.1000
 Fernandez-Rico         CNVRico         .... off

SCF Procedure:
 Maximum # iterations   MaxIter         ....   200
 SCF integral mode      SCFMode         .... Direct
   Integral package                     .... LIBINT
 Reset frequency        DirectResetFreq ....    20
 Integral Threshold     Thresh          ....  1.000e-12 Eh
 Primitive CutOff       TCut            ....  1.000e-14 Eh

Convergence Tolerance:
 Convergence Check Mode ConvCheckMode   .... Total+1el-Energy
 Convergence forced     ConvForced      .... 0
 Energy Change          TolE            ....  1.000e-09 Eh
 1-El. energy change                    ....  1.000e-06 Eh
 DIIS Error             TolErr          ....  1.000e-08


Diagonalization of the overlap matrix:
Smallest eigenvalue                        ... 2.595e-07
Time for diagonalization                   ...    0.117 sec
Threshold for overlap eigenvalues          ... 1.000e-08
Number of eigenvalues below threshold      ... 0
Time for construction of square roots      ...    0.024 sec
Total time needed                          ...    0.141 sec

-------------------
DFT GRID GENERATION
-------------------

General Integration Accuracy     IntAcc      ...  5.670
Radial Grid Type                 RadialGrid  ... Gauss-Chebyshev
Angular Grid (max. acc.)         AngularGrid ... Lebedev-770
Angular grid pruning method      GridPruning ... 3 (G Style)
Weight generation scheme         WeightScheme... Becke
Basis function cutoff            BFCut       ...    1.0000e-12
Integration weight cutoff        WCut        ...    1.0000e-14
Grids for H and He will be reduced by one unit

# of grid points (after initial pruning)     ...  77236 (   0.0 sec)
# of grid points (after weights+screening)   ...  76383 (   0.0 sec)
nearest neighbour list constructed           ...    0.0 sec
Grid point re-assignment to atoms done       ...    0.0 sec
Grid point division into batches done        ...    1.7 sec
Reduced shell lists constructed in    2.7 sec

Total number of grid points                  ...    76383
Total number of batches                      ...     1195
Average number of points per batch           ...       63
Average number of grid points per atom       ...    25461
Average number of shells per batch           ...    69.70 (71.86%)
Average number of basis functions per batch  ...   318.79 (73.96%)
Average number of large shells per batch     ...    61.91 (88.82%)
Average number of large basis fcns per batch ...   284.09 (89.12%)
Maximum spatial batch extension              ...  20.36, 20.36, 16.14 au
Average spatial batch extension              ...   2.51,  2.49,  2.09 au

Time for grid setup =    2.730 sec

------------------------------
INITIAL GUESS: MODEL POTENTIAL
------------------------------
Loading Hartree-Fock densities                     ... done
Calculating cut-offs                               ... done
Setting up the integral package                    ... done
Initializing the effective Hamiltonian             ... done
Starting the Coulomb interaction                   ... done (   0.2 sec)
Reading the grid                                   ... done
Mapping shells                                     ... done
Starting the XC term evaluation                    ... done (   5.8 sec)
  promolecular density results
     # of electrons  =     29.999999656
     EX              =    -38.124842815
     EC              =     -1.078052134
     EX+EC           =    -39.202894949
Transforming the Hamiltonian                       ... done (   0.0 sec)
Diagonalizing the Hamiltonian                      ... done (   0.0 sec)
Back transforming the eigenvectors                 ... done (   0.0 sec)
Now organizing SCF variables                       ... done
                      ------------------
                      INITIAL GUESS DONE (   8.9 sec)
                      ------------------
--------------
SCF ITERATIONS
--------------
ITER       Energy         Delta-E        Max-DP      RMS-DP      [F,P]     Damp
               ***  Starting incremental Fock matrix formation  ***
  0   -511.2755896014   0.000000000000 0.06647488  0.00031597  0.2244369 0.7000
  1   -511.3108853348  -0.035295733405 0.03339163  0.00017910  0.0444127 0.7000
                               ***Turning on DIIS***
  2   -511.3157979237  -0.004912588844 0.03169569  0.00027687  0.0299498 0.0000
  3   -511.3375234420  -0.021725518312 0.04643131  0.00020878  0.0245961 0.0000
  4   -511.3388479328  -0.001324490865 0.01634548  0.00006501  0.0169698 0.0000
  5   -511.3394803465  -0.000632413611 0.00681220  0.00003433  0.0054851 0.0000
  6   -511.3395931342  -0.000112787726 0.00066695  0.00000583  0.0018602 0.0000
  7   -511.3396060624  -0.000012928270 0.00047736  0.00000349  0.0007031 0.0000
  8   -511.3396074819  -0.000001419479 0.00014006  0.00000103  0.0005035 0.0000
  9   -511.3396077188  -0.000000236907 0.00015621  0.00000078  0.0002310 0.0000
 10   -511.3396078863  -0.000000167464 0.00004615  0.00000027  0.0000483 0.0000
 11   -511.3396078920  -0.000000005713 0.00027640  0.00000140  0.0000126 0.0000
 12   -511.3396078926  -0.000000000593 0.00030550  0.00000158  0.0000025 0.0000
 13   -511.3396078926  -0.000000000032 0.00019473  0.00000119  0.0000004 0.0000
 14   -511.3396078926   0.000000000004 0.00010599  0.00000080  0.0000002 0.0000
                 **** Energy Check signals convergence ****

               *****************************************************
               *                     SUCCESS                       *
               *           SCF CONVERGED AFTER  15 CYCLES          *
               *****************************************************


----------------
TOTAL SCF ENERGY
----------------

Total Energy       :         -511.33960789 Eh          -13914.25812 eV

Components:
Nuclear Repulsion  :           79.36419607 Eh            2159.60957 eV
Electronic Energy  :         -590.70380396 Eh          -16073.86769 eV
One Electron Energy:         -861.55231713 Eh          -23444.03042 eV
Two Electron Energy:          270.84851317 Eh            7370.16274 eV

Virial components:
Potential Energy   :        -1022.01336814 Eh          -27810.39760 eV
Kinetic Energy     :          510.67376024 Eh           13896.13948 eV
Virial Ratio       :            2.00130386


DFT components:
N(Alpha)           :       14.999999956214 electrons
N(Beta)            :       14.999999956214 electrons
N(Total)           :       29.999999912427 electrons
E(X)               :      -38.278645117699 Eh       
E(C)               :       -1.082391489827 Eh       
E(XC)              :      -39.361036607526 Eh       
DFET-embed. en.    :        0.000000000000 Eh       

---------------
SCF CONVERGENCE
---------------

  Last Energy change         ...    3.7517e-12  Tolerance :   1.0000e-09
  Last MAX-Density change    ...    1.5652e-04  Tolerance :   1.0000e-08
  Last RMS-Density change    ...    1.6188e-06  Tolerance :   1.0000e-09
  Last DIIS Error            ...    7.3851e-08  Tolerance :   1.0000e-08

             **** THE GBW FILE WAS UPDATED (cso_pbe.gbw) ****
             **** DENSITY FILE WAS UPDATED (cso_pbe.scfp.tmp) ****
             **** ENERGY FILE WAS UPDATED (cso_pbe.en.tmp) ****
----------------------
UHF SPIN CONTAMINATION
----------------------

Warning: in a DFT calculation there is little theoretical justification to 
         calculate <S**2> as in Hartree-Fock theory. We will do it anyways
         but you should keep in mind that the values have only limited relevance

Expectation value of <S**2>     :     0.000000
Ideal value S*(S+1) for S=0.0   :     0.000000
Deviation                       :     0.000000

----------------
ORBITAL ENERGIES
----------------
                 SPIN UP ORBITALS
  NO   OCC          E(Eh)            E(eV) 
   0   1.0000     -88.067274     -2396.4323 
   1   1.0000     -18.832908      -512.4695 
   2   1.0000     -10.034367      -273.0490 
   3   1.0000      -7.707554      -209.7332 
   4   1.0000      -5.728260      -155.8739 
   5   1.0000      -5.721973      -155.7028 
   6   1.0000      -5.721973      -155.7028 
   7   1.0000      -1.050038       -28.5730 
   8   1.0000      -0.754357       -20.5271 
   9   1.0000      -0.494076       -13.4445 
  10   1.0000      -0.430610       -11.7175 
  11   1.0000      -0.430610       -11.7175 
  12   1.0000      -0.427995       -11.6463 
  13   1.0000      -0.275166        -7.4876 
  14   1.0000      -0.275166        -7.4876 
  15   0.0000      -0.071987        -1.9589 
  16   0.0000      -0.071987        -1.9589 
  17   0.0000      -0.025135        -0.6840 
  18   0.0000       0.005314         0.1446 
  19   0.0000       0.015972         0.4346 
  20   0.0000       0.016185         0.4404 
  21   0.0000       0.016185         0.4404 
  22   0.0000       0.035774         0.9735 
  23   0.0000       0.038736         1.0541 
  24   0.0000       0.038736         1.0541 
  25   0.0000       0.062197         1.6925 
  26   0.0000       0.064176         1.7463 
  27   0.0000       0.064176         1.7463 
  28   0.0000       0.067882         1.8472 
  29   0.0000       0.067882         1.8472 
  30   0.0000       0.070772         1.9258 
  31   0.0000       0.073975         2.0130 
  32   0.0000       0.096306         2.6206 
  33   0.0000       0.096306         2.6206 
  34   0.0000       0.114979         3.1287 
  35   0.0000       0.116236         3.1629 
  36   0.0000       0.116236         3.1630 
  37   0.0000       0.126691         3.4474 
  38   0.0000       0.126691         3.4474 
  39   0.0000       0.163756         4.4560 
  40   0.0000       0.167435         4.5561 
  41   0.0000       0.167435         4.5561 
  42   0.0000       0.171698         4.6721 
  43   0.0000       0.176466         4.8019 
  44   0.0000       0.176466         4.8019 
  45   0.0000       0.179691         4.8897 
  46   0.0000       0.188661         5.1337 
  47   0.0000       0.188661         5.1337 
  48   0.0000       0.194446         5.2911 
  49   0.0000       0.194446         5.2911 
  50   0.0000       0.209586         5.7031 
  51   0.0000       0.225387         6.1331 
  52   0.0000       0.225387         6.1331 
  53   0.0000       0.239866         6.5271 
  54   0.0000       0.239866         6.5271 
  55   0.0000       0.251174         6.8348 
  56   0.0000       0.251174         6.8348 
  57   0.0000       0.254948         6.9375 
  58   0.0000       0.270327         7.3560 
  59   0.0000       0.270327         7.3560 
  60   0.0000       0.271708         7.3935 
  61   0.0000       0.271708         7.3935 
  62   0.0000       0.274413         7.4671 
  63   0.0000       0.294415         8.0114 
  64   0.0000       0.294415         8.0114 
  65   0.0000       0.326426         8.8825 
  66   0.0000       0.326426         8.8825 
  67   0.0000       0.342166         9.3108 
  68   0.0000       0.342166         9.3108 
  69   0.0000       0.342661         9.3243 
  70   0.0000       0.357293         9.7224 
  71   0.0000       0.357293         9.7224 
  72   0.0000       0.360643         9.8136 
  73   0.0000       0.374201        10.1825 
  74   0.0000       0.389848        10.6083 
  75   0.0000       0.389848        10.6083 
  76   0.0000       0.393824        10.7165 
  77   0.0000       0.393824        10.7165 
  78   0.0000       0.416168        11.3245 
  79   0.0000       0.416168        11.3245 
  80   0.0000       0.422856        11.5065 
  81   0.0000       0.433053        11.7840 
  82   0.0000       0.433053        11.7840 
  83   0.0000       0.461656        12.5623 
  84   0.0000       0.461656        12.5623 
  85   0.0000       0.466638        12.6979 
  86   0.0000       0.466638        12.6979 
  87   0.0000       0.479749        13.0546 
  88   0.0000       0.481027        13.0894 
  89   0.0000       0.500016        13.6061 
  90   0.0000       0.500016        13.6061 
  91   0.0000       0.501095        13.6355 
  92   0.0000       0.501096        13.6355 
  93   0.0000       0.526383        14.3236 
  94   0.0000       0.526383        14.3236 
  95   0.0000       0.529841        14.4177 
  96   0.0000       0.529841        14.4177 
  97   0.0000       0.532083        14.4787 
  98   0.0000       0.555494        15.1158 
  99   0.0000       0.555494        15.1158 
 100   0.0000       0.558905        15.2086 
 101   0.0000       0.558905        15.2086 
 102   0.0000       0.572227        15.5711 
 103   0.0000       0.572227        15.5711 
 104   0.0000       0.572952        15.5908 
 105   0.0000       0.572952        15.5908 
 106   0.0000       0.602419        16.3927 
 107   0.0000       0.610657        16.6168 
 108   0.0000       0.610657        16.6168 
 109   0.0000       0.631165        17.1749 
 110   0.0000       0.631643        17.1879 
 111   0.0000       0.631643        17.1879 
 112   0.0000       0.635826        17.3017 
 113   0.0000       0.635826        17.3017 
 114   0.0000       0.636007        17.3066 
 115   0.0000       0.636007        17.3066 
 116   0.0000       0.672951        18.3119 
 117   0.0000       0.672951        18.3119 
 118   0.0000       0.691939        18.8286 
 119   0.0000       0.691939        18.8286 
 120   0.0000       0.695766        18.9328 
 121   0.0000       0.702522        19.1166 
 122   0.0000       0.734427        19.9848 
 123   0.0000       0.741101        20.1664 
 124   0.0000       0.741101        20.1664 
 125   0.0000       0.769502        20.9392 
 126   0.0000       0.769502        20.9392 
 127   0.0000       0.772905        21.0318 
 128   0.0000       0.772905        21.0318 
 129   0.0000       0.795277        21.6406 
 130   0.0000       0.795277        21.6406 
 131   0.0000       0.803265        21.8579 
 132   0.0000       0.803265        21.8580 
 133   0.0000       0.834010        22.6946 
 134   0.0000       0.834010        22.6946 
 135   0.0000       0.863206        23.4890 
 136   0.0000       0.874161        23.7871 
 137   0.0000       0.874161        23.7871 
 138   0.0000       0.900966        24.5165 
 139   0.0000       0.900966        24.5165 
 140   0.0000       0.905717        24.6458 
 141   0.0000       0.914127        24.8747 
 142   0.0000       0.940492        25.5921 
 143   0.0000       0.940492        25.5921 
 144   0.0000       0.943149        25.6644 
 145   0.0000       0.951784        25.8994 
 146   0.0000       0.951784        25.8994 
 147   0.0000       0.952467        25.9179 
 148   0.0000       0.952467        25.9179 
 149   0.0000       0.976167        26.5629 
 150   0.0000       0.976167        26.5629 
 151   0.0000       0.999562        27.1995 
 152   0.0000       0.999562        27.1995 
 153   0.0000       1.039574        28.2882 
 154   0.0000       1.039574        28.2882 
 155   0.0000       1.042216        28.3601 
 156   0.0000       1.042216        28.3601 
 157   0.0000       1.052658        28.6443 
 158   0.0000       1.052658        28.6443 
 159   0.0000       1.064165        28.9574 
 160   0.0000       1.075968        29.2786 
 161   0.0000       1.075968        29.2786 
 162   0.0000       1.078620        29.3507 
 163   0.0000       1.094732        29.7892 
 164   0.0000       1.094732        29.7892 
 165   0.0000       1.232681        33.5430 
 166   0.0000       1.232681        33.5430 
 167   0.0000       1.257955        34.2307 
 168   0.0000       1.257955        34.2307 
 169   0.0000       1.277608        34.7655 
 170   0.0000       1.277608        34.7655 
 171   0.0000       1.282195        34.8903 
 172   0.0000       1.293207        35.1899 
 173   0.0000       1.312247        35.7081 
 174   0.0000       1.337288        36.3895 
 175   0.0000       1.337288        36.3895 
 176   0.0000       1.403711        38.1969 
 177   0.0000       1.403711        38.1969 
 178   0.0000       1.442122        39.2421 
 179   0.0000       1.442122        39.2421 
 180   0.0000       1.493088        40.6290 
 181   0.0000       1.540587        41.9215 
 182   0.0000       1.540587        41.9215 
 183   0.0000       1.587671        43.2027 
 184   0.0000       1.587671        43.2027 
 185   0.0000       1.645388        44.7733 
 186   0.0000       1.656116        45.0652 
 187   0.0000       1.713891        46.6373 
 188   0.0000       1.713891        46.6373 
 189   0.0000       1.741253        47.3819 
 190   0.0000       1.741253        47.3819 
 191   0.0000       1.844195        50.1831 
 192   0.0000       1.911367        52.0109 
 193   0.0000       1.970235        53.6128 
 194   0.0000       1.981918        53.9307 
 195   0.0000       1.981918        53.9307 
 196   0.0000       2.010892        54.7192 
 197   0.0000       2.010892        54.7192 
 198   0.0000       2.032425        55.3051 
 199   0.0000       2.032425        55.3051 
 200   0.0000       2.106703        57.3263 
 201   0.0000       2.106703        57.3263 
 202   0.0000       2.114643        57.5424 
 203   0.0000       2.114643        57.5424 
 204   0.0000       2.259790        61.4920 
 205   0.0000       2.259790        61.4920 
 206   0.0000       2.317463        63.0614 
 207   0.0000       2.317464        63.0614 
 208   0.0000       2.343941        63.7819 
 209   0.0000       2.448636        66.6308 
 210   0.0000       2.469865        67.2084 
 211   0.0000       2.469865        67.2084 
 212   0.0000       2.504502        68.1510 
 213   0.0000       2.504502        68.1510 
 214   0.0000       2.505559        68.1797 
 215   0.0000       2.505559        68.1797 
 216   0.0000       2.582154        70.2640 
 217   0.0000       2.582154        70.2640 
 218   0.0000       2.597155        70.6722 
 219   0.0000       2.597155        70.6722 
 220   0.0000       2.726597        74.1945 
 221   0.0000       2.754511        74.9541 
 222   0.0000       2.754511        74.9541 
 223   0.0000       2.944705        80.1295 
 224   0.0000       3.019060        82.1528 
 225   0.0000       3.175496        86.4096 
 226   0.0000       3.175496        86.4096 
 227   0.0000       3.254852        88.5690 
 228   0.0000       3.254852        88.5690 
 229   0.0000       3.337754        90.8249 
 230   0.0000       3.337754        90.8249 
 231   0.0000       3.348010        91.1040 
 232   0.0000       3.388724        92.2119 
 233   0.0000       3.388724        92.2119 
 234   0.0000       3.504441        95.3607 
 235   0.0000       3.652615        99.3927 
 236   0.0000       3.652615        99.3927 
 237   0.0000       3.657283        99.5197 
 238   0.0000       3.701187       100.7144 
 239   0.0000       3.713127       101.0393 
 240   0.0000       3.713127       101.0393 
 241   0.0000       3.908473       106.3550 
 242   0.0000       3.909307       106.3776 
 243   0.0000       3.909307       106.3776 
 244   0.0000       4.009986       109.1173 
 245   0.0000       4.009986       109.1173 
 246   0.0000       4.074724       110.8789 
 247   0.0000       4.074724       110.8789 
 248   0.0000       4.093442       111.3882 
 249   0.0000       4.093442       111.3882 
 250   0.0000       4.141565       112.6977 
 251   0.0000       4.141565       112.6977 
 252   0.0000       4.240889       115.4005 
 253   0.0000       4.240889       115.4005 
 254   0.0000       4.311889       117.3325 
 255   0.0000       4.389829       119.4533 
 256   0.0000       4.389829       119.4533 
 257   0.0000       4.573393       124.4483 
 258   0.0000       4.607940       125.3884 
 259   0.0000       4.607940       125.3884 
 260   0.0000       4.698765       127.8599 
 261   0.0000       4.698765       127.8599 
 262   0.0000       4.823086       131.2428 
 263   0.0000       4.823086       131.2428 
 264   0.0000       4.893900       133.1698 
 265   0.0000       4.893900       133.1698 
 266   0.0000       4.958536       134.9286 
 267   0.0000       5.114102       139.1618 
 268   0.0000       5.114102       139.1618 
 269   0.0000       5.124193       139.4364 
 270   0.0000       5.144943       140.0010 
 271   0.0000       5.144943       140.0010 
 272   0.0000       5.148147       140.0882 
 273   0.0000       5.148147       140.0882 
 274   0.0000       5.165244       140.5534 
 275   0.0000       5.165244       140.5534 
 276   0.0000       5.412651       147.2857 
 277   0.0000       5.449779       148.2960 
 278   0.0000       5.449779       148.2960 
 279   0.0000       5.655270       153.8877 
 280   0.0000       5.655271       153.8878 
 281   0.0000       5.698087       155.0528 
 282   0.0000       5.698087       155.0528 
 283   0.0000       5.769894       157.0068 
 284   0.0000       5.769894       157.0068 
 285   0.0000       5.870736       159.7508 
 286   0.0000       5.926371       161.2648 
 287   0.0000       5.926371       161.2648 
 288   0.0000       5.981534       162.7658 
 289   0.0000       5.996808       163.1814 
 290   0.0000       5.996808       163.1814 
 291   0.0000       6.374654       173.4632 
 292   0.0000       6.374654       173.4632 
 293   0.0000       6.460054       175.7870 
 294   0.0000       6.497154       176.7965 
 295   0.0000       6.497154       176.7965 
 296   0.0000       6.572615       178.8500 
 297   0.0000       6.572615       178.8500 
 298   0.0000       6.861311       186.7058 
 299   0.0000       6.965018       189.5278 
 300   0.0000       6.965018       189.5278 
 301   0.0000       7.495163       203.9538 
 302   0.0000       7.495163       203.9538 
 303   0.0000       7.654867       208.2995 
 304   0.0000       7.845865       213.4968 
 305   0.0000       7.845865       213.4968 
 306   0.0000       8.145220       221.6427 
 307   0.0000       8.172922       222.3965 
 308   0.0000       8.172924       222.3966 
 309   0.0000       8.233153       224.0355 
 310   0.0000       8.233153       224.0355 
 311   0.0000       8.307990       226.0719 
 312   0.0000       8.317465       226.3297 
 313   0.0000       8.317465       226.3297 
 314   0.0000       8.518040       231.7876 
 315   0.0000       8.518041       231.7877 
 316   0.0000       9.024899       245.5800 
 317   0.0000       9.024899       245.5800 
 318   0.0000       9.279682       252.5130 
 319   0.0000       9.445604       257.0280 
 320   0.0000       9.445605       257.0280 
 321   0.0000       9.613736       261.6031 
 322   0.0000      10.227230       278.2971 
 323   0.0000      10.227230       278.2971 
 324   0.0000      10.244366       278.7634 
 325   0.0000      10.244366       278.7634 
 326   0.0000      10.340924       281.3908 
 327   0.0000      10.340924       281.3908 
 328   0.0000      10.542721       286.8820 
 329   0.0000      10.548957       287.0517 
 330   0.0000      10.548957       287.0517 
 331   0.0000      10.644064       289.6397 
 332   0.0000      10.644064       289.6397 
 333   0.0000      10.682060       290.6736 
 334   0.0000      10.682060       290.6736 
 335   0.0000      10.684694       290.7453 
 336   0.0000      10.684694       290.7453 
 337   0.0000      10.974109       298.6207 
 338   0.0000      11.287206       307.1405 
 339   0.0000      11.287206       307.1405 
 340   0.0000      11.359583       309.1100 
 341   0.0000      11.359583       309.1100 
 342   0.0000      11.540315       314.0279 
 343   0.0000      11.540316       314.0280 
 344   0.0000      11.544333       314.1373 
 345   0.0000      11.597554       315.5855 
 346   0.0000      11.597554       315.5855 
 347   0.0000      11.671772       317.6051 
 348   0.0000      11.671772       317.6051 
 349   0.0000      11.734989       319.3253 
 350   0.0000      11.734989       319.3253 
 351   0.0000      11.843806       322.2863 
 352   0.0000      11.843806       322.2863 
 353   0.0000      11.860492       322.7404 
 354   0.0000      11.860492       322.7404 
 355   0.0000      11.986132       326.1592 
 356   0.0000      11.986132       326.1592 
 357   0.0000      12.219677       332.5143 
 358   0.0000      12.219677       332.5143 
 359   0.0000      12.246232       333.2369 
 360   0.0000      12.421514       338.0066 
 361   0.0000      12.421514       338.0066 
 362   0.0000      12.511953       340.4675 
 363   0.0000      12.511953       340.4675 
 364   0.0000      12.561533       341.8167 
 365   0.0000      12.561533       341.8167 
 366   0.0000      12.705596       345.7369 
 367   0.0000      12.724059       346.2393 
 368   0.0000      12.724059       346.2393 
 369   0.0000      12.952238       352.4483 
 370   0.0000      13.088283       356.1503 
 371   0.0000      13.088283       356.1503 
 372   0.0000      13.402354       364.6966 
 373   0.0000      13.402354       364.6966 
 374   0.0000      13.567364       369.1867 
 375   0.0000      13.567364       369.1867 
 376   0.0000      13.771346       374.7374 
 377   0.0000      14.418382       392.3441 
 378   0.0000      14.418382       392.3441 
 379   0.0000      14.710898       400.3039 
 380   0.0000      15.652604       425.9290 
 381   0.0000      15.652604       425.9290 
 382   0.0000      16.156407       439.6382 
 383   0.0000      16.546282       450.2472 
 384   0.0000      16.915440       460.2925 
 385   0.0000      16.915440       460.2925 
 386   0.0000      16.941461       461.0006 
 387   0.0000      16.941461       461.0006 
 388   0.0000      17.196198       467.9323 
 389   0.0000      17.196198       467.9323 
 390   0.0000      17.221422       468.6187 
 391   0.0000      17.221422       468.6187 
 392   0.0000      17.578088       478.3241 
 393   0.0000      17.578088       478.3241 
 394   0.0000      18.045673       491.0477 
 395   0.0000      18.045673       491.0477 
 396   0.0000      18.610278       506.4114 
 397   0.0000      18.766213       510.6546 
 398   0.0000      18.766213       510.6546 
 399   0.0000      18.892664       514.0955 
 400   0.0000      19.109325       519.9912 
 401   0.0000      19.109325       519.9912 
 402   0.0000      19.760288       537.7048 
 403   0.0000      22.825742       621.1200 
 404   0.0000      23.005847       626.0209 
 405   0.0000      23.005847       626.0209 
 406   0.0000      24.364679       662.9966 
 407   0.0000      24.364679       662.9966 
 408   0.0000      26.649047       725.1574 
 409   0.0000      30.373573       826.5069 
 410   0.0000      31.286444       851.3474 
 411   0.0000      31.835745       866.2947 
 412   0.0000      31.835746       866.2947 
 413   0.0000      32.096487       873.3898 
 414   0.0000      32.096487       873.3898 
 415   0.0000      32.816822       892.9911 
 416   0.0000      32.816822       892.9911 
 417   0.0000      34.435368       937.0340 
 418   0.0000      34.907672       949.8861 
 419   0.0000      62.392397      1697.7834 
 420   0.0000      62.392398      1697.7834 
 421   0.0000      62.632479      1704.3164 
 422   0.0000      62.632479      1704.3164 
 423   0.0000      63.245618      1721.0008 
 424   0.0000      66.547585      1810.8519 
 425   0.0000      66.547589      1810.8520 
 426   0.0000      67.329603      1832.1316 
 427   0.0000      67.329603      1832.1316 
 428   0.0000      68.861921      1873.8281 
 429   0.0000      75.723461      2060.5401 
 430   0.0000     143.629221      3908.3498 

                 SPIN DOWN ORBITALS
  NO   OCC          E(Eh)            E(eV) 
   0   1.0000     -88.067274     -2396.4323 
   1   1.0000     -18.832908      -512.4695 
   2   1.0000     -10.034367      -273.0490 
   3   1.0000      -7.707554      -209.7332 
   4   1.0000      -5.728260      -155.8739 
   5   1.0000      -5.721973      -155.7028 
   6   1.0000      -5.721973      -155.7028 
   7   1.0000      -1.050038       -28.5730 
   8   1.0000      -0.754357       -20.5271 
   9   1.0000      -0.494076       -13.4445 
  10   1.0000      -0.430610       -11.7175 
  11   1.0000      -0.430610       -11.7175 
  12   1.0000      -0.427995       -11.6463 
  13   1.0000      -0.275166        -7.4876 
  14   1.0000      -0.275166        -7.4876 
  15   0.0000      -0.071987        -1.9589 
  16   0.0000      -0.071987        -1.9589 
  17   0.0000      -0.025135        -0.6840 
  18   0.0000       0.005314         0.1446 
  19   0.0000       0.015972         0.4346 
  20   0.0000       0.016185         0.4404 
  21   0.0000       0.016185         0.4404 
  22   0.0000       0.035774         0.9735 
  23   0.0000       0.038736         1.0541 
  24   0.0000       0.038736         1.0541 
  25   0.0000       0.062197         1.6925 
  26   0.0000       0.064176         1.7463 
  27   0.0000       0.064176         1.7463 
  28   0.0000       0.067882         1.8472 
  29   0.0000       0.067882         1.8472 
  30   0.0000       0.070772         1.9258 
  31   0.0000       0.073975         2.0130 
  32   0.0000       0.096306         2.6206 
  33   0.0000       0.096306         2.6206 
  34   0.0000       0.114979         3.1287 
  35   0.0000       0.116236         3.1629 
  36   0.0000       0.116236         3.1630 
  37   0.0000       0.126691         3.4474 
  38   0.0000       0.126691         3.4474 
  39   0.0000       0.163756         4.4560 
  40   0.0000       0.167435         4.5561 
  41   0.0000       0.167435         4.5561 
  42   0.0000       0.171698         4.6721 
  43   0.0000       0.176466         4.8019 
  44   0.0000       0.176466         4.8019 
  45   0.0000       0.179691         4.8897 
  46   0.0000       0.188661         5.1337 
  47   0.0000       0.188661         5.1337 
  48   0.0000       0.194446         5.2911 
  49   0.0000       0.194446         5.2911 
  50   0.0000       0.209586         5.7031 
  51   0.0000       0.225387         6.1331 
  52   0.0000       0.225387         6.1331 
  53   0.0000       0.239866         6.5271 
  54   0.0000       0.239866         6.5271 
  55   0.0000       0.251174         6.8348 
  56   0.0000       0.251174         6.8348 
  57   0.0000       0.254948         6.9375 
  58   0.0000       0.270327         7.3560 
  59   0.0000       0.270327         7.3560 
  60   0.0000       0.271708         7.3935 
  61   0.0000       0.271708         7.3935 
  62   0.0000       0.274413         7.4671 
  63   0.0000       0.294415         8.0114 
  64   0.0000       0.294415         8.0114 
  65   0.0000       0.326426         8.8825 
  66   0.0000       0.326426         8.8825 
  67   0.0000       0.342166         9.3108 
  68   0.0000       0.342166         9.3108 
  69   0.0000       0.342661         9.3243 
  70   0.0000       0.357293         9.7224 
  71   0.0000       0.357293         9.7224 
  72   0.0000       0.360643         9.8136 
  73   0.0000       0.374201        10.1825 
  74   0.0000       0.389848        10.6083 
  75   0.0000       0.389848        10.6083 
  76   0.0000       0.393824        10.7165 
  77   0.0000       0.393824        10.7165 
  78   0.0000       0.416168        11.3245 
  79   0.0000       0.416168        11.3245 
  80   0.0000       0.422856        11.5065 
  81   0.0000       0.433053        11.7840 
  82   0.0000       0.433053        11.7840 
  83   0.0000       0.461656        12.5623 
  84   0.0000       0.461656        12.5623 
  85   0.0000       0.466638        12.6979 
  86   0.0000       0.466638        12.6979 
  87   0.0000       0.479749        13.0546 
  88   0.0000       0.481027        13.0894 
  89   0.0000       0.500016        13.6061 
  90   0.0000       0.500016        13.6061 
  91   0.0000       0.501095        13.6355 
  92   0.0000       0.501096        13.6355 
  93   0.0000       0.526383        14.3236 
  94   0.0000       0.526383        14.3236 
  95   0.0000       0.529841        14.4177 
  96   0.0000       0.529841        14.4177 
  97   0.0000       0.532083        14.4787 
  98   0.0000       0.555494        15.1158 
  99   0.0000       0.555494        15.1158 
 100   0.0000       0.558905        15.2086 
 101   0.0000       0.558905        15.2086 
 102   0.0000       0.572227        15.5711 
 103   0.0000       0.572227        15.5711 
 104   0.0000       0.572952        15.5908 
 105   0.0000       0.572952        15.5908 
 106   0.0000       0.602419        16.3927 
 107   0.0000       0.610657        16.6168 
 108   0.0000       0.610657        16.6168 
 109   0.0000       0.631165        17.1749 
 110   0.0000       0.631643        17.1879 
 111   0.0000       0.631643        17.1879 
 112   0.0000       0.635826        17.3017 
 113   0.0000       0.635826        17.3017 
 114   0.0000       0.636007        17.3066 
 115   0.0000       0.636007        17.3066 
 116   0.0000       0.672951        18.3119 
 117   0.0000       0.672951        18.3119 
 118   0.0000       0.691939        18.8286 
 119   0.0000       0.691939        18.8286 
 120   0.0000       0.695766        18.9328 
 121   0.0000       0.702522        19.1166 
 122   0.0000       0.734427        19.9848 
 123   0.0000       0.741101        20.1664 
 124   0.0000       0.741101        20.1664 
 125   0.0000       0.769502        20.9392 
 126   0.0000       0.769502        20.9392 
 127   0.0000       0.772905        21.0318 
 128   0.0000       0.772905        21.0318 
 129   0.0000       0.795277        21.6406 
 130   0.0000       0.795277        21.6406 
 131   0.0000       0.803265        21.8579 
 132   0.0000       0.803265        21.8580 
 133   0.0000       0.834010        22.6946 
 134   0.0000       0.834010        22.6946 
 135   0.0000       0.863206        23.4890 
 136   0.0000       0.874161        23.7871 
 137   0.0000       0.874161        23.7871 
 138   0.0000       0.900966        24.5165 
 139   0.0000       0.900966        24.5165 
 140   0.0000       0.905717        24.6458 
 141   0.0000       0.914127        24.8747 
 142   0.0000       0.940492        25.5921 
 143   0.0000       0.940492        25.5921 
 144   0.0000       0.943149        25.6644 
 145   0.0000       0.951784        25.8994 
 146   0.0000       0.951784        25.8994 
 147   0.0000       0.952467        25.9179 
 148   0.0000       0.952467        25.9179 
 149   0.0000       0.976167        26.5629 
 150   0.0000       0.976167        26.5629 
 151   0.0000       0.999562        27.1995 
 152   0.0000       0.999562        27.1995 
 153   0.0000       1.039574        28.2882 
 154   0.0000       1.039574        28.2882 
 155   0.0000       1.042216        28.3601 
 156   0.0000       1.042216        28.3601 
 157   0.0000       1.052658        28.6443 
 158   0.0000       1.052658        28.6443 
 159   0.0000       1.064165        28.9574 
 160   0.0000       1.075968        29.2786 
 161   0.0000       1.075968        29.2786 
 162   0.0000       1.078620        29.3507 
 163   0.0000       1.094732        29.7892 
 164   0.0000       1.094732        29.7892 
 165   0.0000       1.232681        33.5430 
 166   0.0000       1.232681        33.5430 
 167   0.0000       1.257955        34.2307 
 168   0.0000       1.257955        34.2307 
 169   0.0000       1.277608        34.7655 
 170   0.0000       1.277608        34.7655 
 171   0.0000       1.282195        34.8903 
 172   0.0000       1.293207        35.1899 
 173   0.0000       1.312247        35.7081 
 174   0.0000       1.337288        36.3895 
 175   0.0000       1.337288        36.3895 
 176   0.0000       1.403711        38.1969 
 177   0.0000       1.403711        38.1969 
 178   0.0000       1.442122        39.2421 
 179   0.0000       1.442122        39.2421 
 180   0.0000       1.493088        40.6290 
 181   0.0000       1.540587        41.9215 
 182   0.0000       1.540587        41.9215 
 183   0.0000       1.587671        43.2027 
 184   0.0000       1.587671        43.2027 
 185   0.0000       1.645388        44.7733 
 186   0.0000       1.656116        45.0652 
 187   0.0000       1.713891        46.6373 
 188   0.0000       1.713891        46.6373 
 189   0.0000       1.741253        47.3819 
 190   0.0000       1.741253        47.3819 
 191   0.0000       1.844195        50.1831 
 192   0.0000       1.911367        52.0109 
 193   0.0000       1.970235        53.6128 
 194   0.0000       1.981918        53.9307 
 195   0.0000       1.981918        53.9307 
 196   0.0000       2.010892        54.7192 
 197   0.0000       2.010892        54.7192 
 198   0.0000       2.032425        55.3051 
 199   0.0000       2.032425        55.3051 
 200   0.0000       2.106703        57.3263 
 201   0.0000       2.106703        57.3263 
 202   0.0000       2.114643        57.5424 
 203   0.0000       2.114643        57.5424 
 204   0.0000       2.259790        61.4920 
 205   0.0000       2.259790        61.4920 
 206   0.0000       2.317463        63.0614 
 207   0.0000       2.317464        63.0614 
 208   0.0000       2.343941        63.7819 
 209   0.0000       2.448636        66.6308 
 210   0.0000       2.469865        67.2084 
 211   0.0000       2.469865        67.2084 
 212   0.0000       2.504502        68.1510 
 213   0.0000       2.504502        68.1510 
 214   0.0000       2.505559        68.1797 
 215   0.0000       2.505559        68.1797 
 216   0.0000       2.582154        70.2640 
 217   0.0000       2.582154        70.2640 
 218   0.0000       2.597155        70.6722 
 219   0.0000       2.597155        70.6722 
 220   0.0000       2.726597        74.1945 
 221   0.0000       2.754511        74.9541 
 222   0.0000       2.754511        74.9541 
 223   0.0000       2.944705        80.1295 
 224   0.0000       3.019060        82.1528 
 225   0.0000       3.175496        86.4096 
 226   0.0000       3.175496        86.4096 
 227   0.0000       3.254852        88.5690 
 228   0.0000       3.254852        88.5690 
 229   0.0000       3.337754        90.8249 
 230   0.0000       3.337754        90.8249 
 231   0.0000       3.348010        91.1040 
 232   0.0000       3.388724        92.2119 
 233   0.0000       3.388724        92.2119 
 234   0.0000       3.504441        95.3607 
 235   0.0000       3.652615        99.3927 
 236   0.0000       3.652615        99.3927 
 237   0.0000       3.657283        99.5197 
 238   0.0000       3.701187       100.7144 
 239   0.0000       3.713127       101.0393 
 240   0.0000       3.713127       101.0393 
 241   0.0000       3.908473       106.3550 
 242   0.0000       3.909307       106.3776 
 243   0.0000       3.909307       106.3776 
 244   0.0000       4.009986       109.1173 
 245   0.0000       4.009986       109.1173 
 246   0.0000       4.074724       110.8789 
 247   0.0000       4.074724       110.8789 
 248   0.0000       4.093442       111.3882 
 249   0.0000       4.093442       111.3882 
 250   0.0000       4.141565       112.6977 
 251   0.0000       4.141565       112.6977 
 252   0.0000       4.240889       115.4005 
 253   0.0000       4.240889       115.4005 
 254   0.0000       4.311889       117.3325 
 255   0.0000       4.389829       119.4533 
 256   0.0000       4.389829       119.4533 
 257   0.0000       4.573393       124.4483 
 258   0.0000       4.607940       125.3884 
 259   0.0000       4.607940       125.3884 
 260   0.0000       4.698765       127.8599 
 261   0.0000       4.698765       127.8599 
 262   0.0000       4.823086       131.2428 
 263   0.0000       4.823086       131.2428 
 264   0.0000       4.893900       133.1698 
 265   0.0000       4.893900       133.1698 
 266   0.0000       4.958536       134.9286 
 267   0.0000       5.114102       139.1618 
 268   0.0000       5.114102       139.1618 
 269   0.0000       5.124193       139.4364 
 270   0.0000       5.144943       140.0010 
 271   0.0000       5.144943       140.0010 
 272   0.0000       5.148147       140.0882 
 273   0.0000       5.148147       140.0882 
 274   0.0000       5.165244       140.5534 
 275   0.0000       5.165244       140.5534 
 276   0.0000       5.412651       147.2857 
 277   0.0000       5.449779       148.2960 
 278   0.0000       5.449779       148.2960 
 279   0.0000       5.655270       153.8877 
 280   0.0000       5.655271       153.8878 
 281   0.0000       5.698087       155.0528 
 282   0.0000       5.698087       155.0528 
 283   0.0000       5.769894       157.0068 
 284   0.0000       5.769894       157.0068 
 285   0.0000       5.870736       159.7508 
 286   0.0000       5.926371       161.2648 
 287   0.0000       5.926371       161.2648 
 288   0.0000       5.981534       162.7658 
 289   0.0000       5.996808       163.1814 
 290   0.0000       5.996808       163.1814 
 291   0.0000       6.374654       173.4632 
 292   0.0000       6.374654       173.4632 
 293   0.0000       6.460054       175.7870 
 294   0.0000       6.497154       176.7965 
 295   0.0000       6.497154       176.7965 
 296   0.0000       6.572615       178.8500 
 297   0.0000       6.572615       178.8500 
 298   0.0000       6.861311       186.7058 
 299   0.0000       6.965018       189.5278 
 300   0.0000       6.965018       189.5278 
 301   0.0000       7.495163       203.9538 
 302   0.0000       7.495163       203.9538 
 303   0.0000       7.654867       208.2995 
 304   0.0000       7.845865       213.4968 
 305   0.0000       7.845865       213.4968 
 306   0.0000       8.145220       221.6427 
 307   0.0000       8.172922       222.3965 
 308   0.0000       8.172924       222.3966 
 309   0.0000       8.233153       224.0355 
 310   0.0000       8.233153       224.0355 
 311   0.0000       8.307990       226.0719 
 312   0.0000       8.317465       226.3297 
 313   0.0000       8.317465       226.3297 
 314   0.0000       8.518040       231.7876 
 315   0.0000       8.518041       231.7877 
 316   0.0000       9.024899       245.5800 
 317   0.0000       9.024899       245.5800 
 318   0.0000       9.279682       252.5130 
 319   0.0000       9.445604       257.0280 
 320   0.0000       9.445605       257.0280 
 321   0.0000       9.613736       261.6031 
 322   0.0000      10.227230       278.2971 
 323   0.0000      10.227230       278.2971 
 324   0.0000      10.244366       278.7634 
 325   0.0000      10.244366       278.7634 
 326   0.0000      10.340924       281.3908 
 327   0.0000      10.340924       281.3908 
 328   0.0000      10.542721       286.8820 
 329   0.0000      10.548957       287.0517 
 330   0.0000      10.548957       287.0517 
 331   0.0000      10.644064       289.6397 
 332   0.0000      10.644064       289.6397 
 333   0.0000      10.682060       290.6736 
 334   0.0000      10.682060       290.6736 
 335   0.0000      10.684694       290.7453 
 336   0.0000      10.684694       290.7453 
 337   0.0000      10.974109       298.6207 
 338   0.0000      11.287206       307.1405 
 339   0.0000      11.287206       307.1405 
 340   0.0000      11.359583       309.1100 
 341   0.0000      11.359583       309.1100 
 342   0.0000      11.540315       314.0279 
 343   0.0000      11.540316       314.0280 
 344   0.0000      11.544333       314.1373 
 345   0.0000      11.597554       315.5855 
 346   0.0000      11.597554       315.5855 
 347   0.0000      11.671772       317.6051 
 348   0.0000      11.671772       317.6051 
 349   0.0000      11.734989       319.3253 
 350   0.0000      11.734989       319.3253 
 351   0.0000      11.843806       322.2863 
 352   0.0000      11.843806       322.2863 
 353   0.0000      11.860492       322.7404 
 354   0.0000      11.860492       322.7404 
 355   0.0000      11.986132       326.1592 
 356   0.0000      11.986132       326.1592 
 357   0.0000      12.219677       332.5143 
 358   0.0000      12.219677       332.5143 
 359   0.0000      12.246232       333.2369 
 360   0.0000      12.421514       338.0066 
 361   0.0000      12.421514       338.0066 
 362   0.0000      12.511953       340.4675 
 363   0.0000      12.511953       340.4675 
 364   0.0000      12.561533       341.8167 
 365   0.0000      12.561533       341.8167 
 366   0.0000      12.705596       345.7369 
 367   0.0000      12.724059       346.2393 
 368   0.0000      12.724059       346.2393 
 369   0.0000      12.952238       352.4483 
 370   0.0000      13.088283       356.1503 
 371   0.0000      13.088283       356.1503 
 372   0.0000      13.402354       364.6966 
 373   0.0000      13.402354       364.6966 
 374   0.0000      13.567364       369.1867 
 375   0.0000      13.567364       369.1867 
 376   0.0000      13.771346       374.7374 
 377   0.0000      14.418382       392.3441 
 378   0.0000      14.418382       392.3441 
 379   0.0000      14.710898       400.3039 
 380   0.0000      15.652604       425.9290 
 381   0.0000      15.652604       425.9290 
 382   0.0000      16.156407       439.6382 
 383   0.0000      16.546282       450.2472 
 384   0.0000      16.915440       460.2925 
 385   0.0000      16.915440       460.2925 
 386   0.0000      16.941461       461.0006 
 387   0.0000      16.941461       461.0006 
 388   0.0000      17.196198       467.9323 
 389   0.0000      17.196198       467.9323 
 390   0.0000      17.221422       468.6187 
 391   0.0000      17.221422       468.6187 
 392   0.0000      17.578088       478.3241 
 393   0.0000      17.578088       478.3241 
 394   0.0000      18.045673       491.0477 
 395   0.0000      18.045673       491.0477 
 396   0.0000      18.610278       506.4114 
 397   0.0000      18.766213       510.6546 
 398   0.0000      18.766213       510.6546 
 399   0.0000      18.892664       514.0955 
 400   0.0000      19.109325       519.9912 
 401   0.0000      19.109325       519.9912 
 402   0.0000      19.760288       537.7048 
 403   0.0000      22.825742       621.1200 
 404   0.0000      23.005847       626.0209 
 405   0.0000      23.005847       626.0209 
 406   0.0000      24.364679       662.9966 
 407   0.0000      24.364679       662.9966 
 408   0.0000      26.649047       725.1574 
 409   0.0000      30.373573       826.5069 
 410   0.0000      31.286444       851.3474 
 411   0.0000      31.835745       866.2947 
 412   0.0000      31.835746       866.2947 
 413   0.0000      32.096487       873.3898 
 414   0.0000      32.096487       873.3898 
 415   0.0000      32.816822       892.9911 
 416   0.0000      32.816822       892.9911 
 417   0.0000      34.435368       937.0340 
 418   0.0000      34.907672       949.8861 
 419   0.0000      62.392397      1697.7834 
 420   0.0000      62.392398      1697.7834 
 421   0.0000      62.632479      1704.3164 
 422   0.0000      62.632479      1704.3164 
 423   0.0000      63.245618      1721.0008 
 424   0.0000      66.547585      1810.8519 
 425   0.0000      66.547589      1810.8520 
 426   0.0000      67.329603      1832.1316 
 427   0.0000      67.329603      1832.1316 
 428   0.0000      68.861921      1873.8281 
 429   0.0000      75.723461      2060.5401 
 430   0.0000     143.629221      3908.3498 

                    ********************************
                    * MULLIKEN POPULATION ANALYSIS *
                    ********************************

--------------------------------------------
MULLIKEN ATOMIC CHARGES AND SPIN POPULATIONS
--------------------------------------------
   0 C :    0.174950   -0.000000
   1 O :   -0.016469   -0.000000
   2 S :   -0.158481    0.000000
Sum of atomic charges         :    0.0000000
Sum of atomic spin populations:    0.0000000

-----------------------------------------------------
MULLIKEN REDUCED ORBITAL CHARGES AND SPIN POPULATIONS
-----------------------------------------------------
CHARGE
  0 C s       :     3.238198  s :     3.238198
      pz      :     0.715826  p :     2.312788
      px      :     0.798481
      py      :     0.798481
      dz2     :     0.017990  d :     0.245802
      dxz     :     0.113906
      dyz     :     0.113906
      dx2y2   :     0.000000
      dxy     :     0.000000
      f0      :     0.003307  f :     0.026351
      f+1     :     0.011522
      f-1     :     0.011522
      f+2     :    -0.000000
      f-2     :    -0.000000
      f+3     :     0.000000
      f-3     :     0.000000
      g0      :    -0.000391  g :     0.002137
      g+1     :     0.001264
      g-1     :     0.001264
      g+2     :     0.000000
      g-2     :     0.000000
      g+3     :     0.000000
      g-3     :     0.000000
      g+4     :     0.000000
      g-4     :     0.000000
      h0      :    -0.000323  h :    -0.000226
      h+1     :     0.000049
      h-1     :     0.000049
      h+2     :     0.000000
      h-2     :     0.000000
      h+3     :     0.000000
      h-3     :     0.000000
      h+4     :     0.000000
      h-4     :     0.000000
      h+5     :     0.000000
      h-5     :     0.000000
  1 O s       :     3.678222  s :     3.678222
      pz      :     1.275182  p :     4.268114
      px      :     1.496466
      py      :     1.496466
      dz2     :     0.003726  d :     0.066724
      dxz     :     0.031499
      dyz     :     0.031499
      dx2y2   :     0.000000
      dxy     :     0.000000
      f0      :    -0.001506  f :     0.005691
      f+1     :     0.003599
      f-1     :     0.003599
      f+2     :    -0.000000
      f-2     :    -0.000000
      f+3     :    -0.000000
      f-3     :    -0.000000
      g0      :    -0.000636  g :    -0.001756
      g+1     :    -0.000560
      g-1     :    -0.000560
      g+2     :     0.000000
      g-2     :     0.000000
      g+3     :     0.000000
      g-3     :     0.000000
      g+4     :     0.000000
      g-4     :    -0.000000
      h0      :    -0.000106  h :    -0.000526
      h+1     :    -0.000210
      h-1     :    -0.000210
      h+2     :     0.000000
      h-2     :     0.000000
      h+3     :     0.000000
      h-3     :     0.000000
      h+4     :     0.000000
      h-4     :     0.000000
      h+5     :     0.000000
      h-5     :     0.000000
  2 S s       :     6.017250  s :     6.017250
      pz      :     2.994898  p :    10.022165
      px      :     3.513634
      py      :     3.513633
      dz2     :     0.052026  d :     0.106248
      dxz     :     0.027111
      dyz     :     0.027111
      dx2y2   :     0.000000
      dxy     :     0.000000
      f0      :     0.005270  f :     0.011901
      f+1     :     0.003316
      f-1     :     0.003316
      f+2     :     0.000000
      f-2     :    -0.000000
      f+3     :     0.000000
      f-3     :     0.000000
      g0      :     0.000927  g :     0.000883
      g+1     :    -0.000022
      g-1     :    -0.000022
      g+2     :    -0.000000
      g-2     :    -0.000000
      g+3     :     0.000000
      g-3     :     0.000000
      g+4     :     0.000000
      g-4     :     0.000000
      h0      :     0.000141  h :     0.000033
      h+1     :    -0.000054
      h-1     :    -0.000054
      h+2     :     0.000000
      h-2     :     0.000000
      h+3     :     0.000000
      h-3     :     0.000000
      h+4     :     0.000000
      h-4     :    -0.000000
      h+5     :     0.000000
      h-5     :     0.000000

SPIN
  0 C s       :     0.000000  s :     0.000000
      pz      :    -0.000000  p :    -0.000000
      px      :    -0.000000
      py      :    -0.000000
      dz2     :     0.000000  d :     0.000000
      dxz     :    -0.000000
      dyz     :    -0.000000
      dx2y2   :     0.000000
      dxy     :    -0.000000
      f0      :    -0.000000  f :    -0.000000
      f+1     :     0.000000
      f-1     :     0.000000
      f+2     :    -0.000000
      f-2     :    -0.000000
      f+3     :     0.000000
      f-3     :    -0.000000
      g0      :     0.000000  g :     0.000000
      g+1     :    -0.000000
      g-1     :     0.000000
      g+2     :    -0.000000
      g-2     :     0.000000
      g+3     :     0.000000
      g-3     :    -0.000000
      g+4     :     0.000000
      g-4     :    -0.000000
      h0      :     0.000000  h :     0.000000
      h+1     :    -0.000000
      h-1     :     0.000000
      h+2     :     0.000000
      h-2     :     0.000000
      h+3     :    -0.000000
      h-3     :     0.000000
      h+4     :    -0.000000
      h-4     :     0.000000
      h+5     :     0.000000
      h-5     :    -0.000000
  1 O s       :    -0.000000  s :    -0.000000
      pz      :    -0.000000  p :    -0.000000
      px      :    -0.000000
      py      :     0.000000
      dz2     :    -0.000000  d :    -0.000000
      dxz     :     0.000000
      dyz     :     0.000000
      dx2y2   :    -0.000000
      dxy     :    -0.000000
      f0      :     0.000000  f :     0.000000
      f+1     :     0.000000
      f-1     :     0.000000
      f+2     :    -0.000000
      f-2     :     0.000000
      f+3     :     0.000000
      f-3     :    -0.000000
      g0      :     0.000000  g :     0.000000
      g+1     :     0.000000
      g-1     :     0.000000
      g+2     :    -0.000000
      g-2     :     0.000000
      g+3     :    -0.000000
      g-3     :     0.000000
      g+4     :     0.000000
      g-4     :     0.000000
      h0      :     0.000000  h :     0.000000
      h+1     :     0.000000
      h-1     :    -0.000000
      h+2     :    -0.000000
      h-2     :    -0.000000
      h+3     :    -0.000000
      h-3     :    -0.000000
      h+4     :     0.000000
      h-4     :    -0.000000
      h+5     :    -0.000000
      h-5     :    -0.000000
  2 S s       :     0.000000  s :     0.000000
      pz      :     0.000000  p :     0.000000
      px      :     0.000000
      py      :    -0.000000
      dz2     :    -0.000000  d :     0.000000
      dxz     :     0.000000
      dyz     :    -0.000000
      dx2y2   :    -0.000000
      dxy     :     0.000000
      f0      :    -0.000000  f :    -0.000000
      f+1     :     0.000000
      f-1     :    -0.000000
      f+2     :     0.000000
      f-2     :     0.000000
      f+3     :    -0.000000
      f-3     :    -0.000000
      g0      :    -0.000000  g :    -0.000000
      g+1     :    -0.000000
      g-1     :    -0.000000
      g+2     :    -0.000000
      g-2     :    -0.000000
      g+3     :    -0.000000
      g-3     :     0.000000
      g+4     :     0.000000
      g-4     :    -0.000000
      h0      :    -0.000000  h :    -0.000000
      h+1     :    -0.000000
      h-1     :    -0.000000
      h+2     :     0.000000
      h-2     :    -0.000000
      h+3     :    -0.000000
      h-3     :    -0.000000
      h+4     :    -0.000000
      h-4     :     0.000000
      h+5     :     0.000000
      h-5     :     0.000000


                     *******************************
                     * LOEWDIN POPULATION ANALYSIS *
                     *******************************

-------------------------------------------
LOEWDIN ATOMIC CHARGES AND SPIN POPULATIONS
-------------------------------------------
   0 C :   -1.071186   -0.000000
   1 O :   -0.014571   -0.000000
   2 S :    1.085756    0.000000

----------------------------------------------------
LOEWDIN REDUCED ORBITAL CHARGES AND SPIN POPULATIONS
----------------------------------------------------
CHARGE
  0 C s       :     2.735814  s :     2.735814
      pz      :     1.234542  p :     2.643530
      px      :     0.704494
      py      :     0.704494
      dz2     :     0.411711  d :     1.235670
      dxz     :     0.411980
      dyz     :     0.411980
      dx2y2   :     0.000000
      dxy     :     0.000000
      f0      :     0.134238  f :     0.296154
      f+1     :     0.080958
      f-1     :     0.080958
      f+2     :     0.000000
      f-2     :     0.000000
      f+3     :     0.000000
      f-3     :     0.000000
      g0      :     0.033060  g :     0.128297
      g+1     :     0.047618
      g-1     :     0.047618
      g+2     :     0.000000
      g-2     :     0.000000
      g+3     :     0.000000
      g-3     :     0.000000
      g+4     :     0.000000
      g-4     :     0.000000
      h0      :     0.011593  h :     0.031721
      h+1     :     0.010064
      h-1     :     0.010064
      h+2     :     0.000000
      h-2     :     0.000000
      h+3     :     0.000000
      h-3     :     0.000000
      h+4     :     0.000000
      h-4     :     0.000000
      h+5     :     0.000000
      h-5     :     0.000000
  1 O s       :     3.188974  s :     3.188974
      pz      :     1.545585  p :     4.027012
      px      :     1.240714
      py      :     1.240714
      dz2     :     0.148540  d :     0.339941
      dxz     :     0.095700
      dyz     :     0.095700
      dx2y2   :     0.000000
      dxy     :     0.000000
      f0      :     0.074386  f :     0.218217
      f+1     :     0.071915
      f-1     :     0.071915
      f+2     :     0.000000
      f-2     :     0.000000
      f+3     :     0.000000
      f-3     :     0.000000
      g0      :     0.044346  g :     0.152444
      g+1     :     0.054049
      g-1     :     0.054049
      g+2     :     0.000000
      g-2     :     0.000000
      g+3     :     0.000000
      g-3     :     0.000000
      g+4     :     0.000000
      g-4     :     0.000000
      h0      :     0.021230  h :     0.087983
      h+1     :     0.033376
      h-1     :     0.033376
      h+2     :     0.000000
      h-2     :     0.000000
      h+3     :     0.000000
      h-3     :     0.000000
      h+4     :     0.000000
      h-4     :     0.000000
      h+5     :     0.000000
      h-5     :     0.000000
  2 S s       :     5.089241  s :     5.089241
      pz      :     3.054640  p :     9.266868
      px      :     3.106114
      py      :     3.106114
      dz2     :     0.145411  d :     0.244048
      dxz     :     0.049319
      dyz     :     0.049319
      dx2y2   :     0.000000
      dxy     :     0.000000
      f0      :     0.055908  f :     0.127934
      f+1     :     0.036013
      f-1     :     0.036013
      f+2     :     0.000000
      f-2     :     0.000000
      f+3     :     0.000000
      f-3     :     0.000000
      g0      :     0.040878  g :     0.105826
      g+1     :     0.032474
      g-1     :     0.032474
      g+2     :     0.000000
      g-2     :     0.000000
      g+3     :     0.000000
      g-3     :     0.000000
      g+4     :     0.000000
      g-4     :     0.000000
      h0      :     0.029902  h :     0.080327
      h+1     :     0.025212
      h-1     :     0.025212
      h+2     :     0.000000
      h-2     :     0.000000
      h+3     :     0.000000
      h-3     :     0.000000
      h+4     :     0.000000
      h-4     :     0.000000
      h+5     :     0.000000
      h-5     :     0.000000

SPIN
  0 C s       :     0.000000  s :     0.000000
      pz      :    -0.000000  p :    -0.000000
      px      :     0.000000
      py      :     0.000000
      dz2     :    -0.000000  d :    -0.000000
      dxz     :    -0.000000
      dyz     :     0.000000
      dx2y2   :    -0.000000
      dxy     :     0.000000
      f0      :    -0.000000  f :    -0.000000
      f+1     :    -0.000000
      f-1     :     0.000000
      f+2     :     0.000000
      f-2     :    -0.000000
      f+3     :     0.000000
      f-3     :     0.000000
      g0      :     0.000000  g :    -0.000000
      g+1     :    -0.000000
      g-1     :     0.000000
      g+2     :    -0.000000
      g-2     :    -0.000000
      g+3     :    -0.000000
      g-3     :    -0.000000
      g+4     :     0.000000
      g-4     :    -0.000000
      h0      :    -0.000000  h :    -0.000000
      h+1     :    -0.000000
      h-1     :    -0.000000
      h+2     :     0.000000
      h-2     :    -0.000000
      h+3     :    -0.000000
      h-3     :    -0.000000
      h+4     :    -0.000000
      h-4     :     0.000000
      h+5     :     0.000000
      h-5     :    -0.000000
  1 O s       :    -0.000000  s :    -0.000000
      pz      :    -0.000000  p :    -0.000000
      px      :     0.000000
      py      :     0.000000
      dz2     :     0.000000  d :     0.000000
      dxz     :     0.000000
      dyz     :     0.000000
      dx2y2   :    -0.000000
      dxy     :     0.000000
      f0      :     0.000000  f :     0.000000
      f+1     :     0.000000
      f-1     :     0.000000
      f+2     :    -0.000000
      f-2     :     0.000000
      f+3     :     0.000000
      f-3     :    -0.000000
      g0      :     0.000000  g :     0.000000
      g+1     :    -0.000000
      g-1     :    -0.000000
      g+2     :    -0.000000
      g-2     :    -0.000000
      g+3     :    -0.000000
      g-3     :    -0.000000
      g+4     :     0.000000
      g-4     :     0.000000
      h0      :    -0.000000  h :    -0.000000
      h+1     :     0.000000
      h-1     :    -0.000000
      h+2     :    -0.000000
      h-2     :     0.000000
      h+3     :    -0.000000
      h-3     :    -0.000000
      h+4     :     0.000000
      h-4     :     0.000000
      h+5     :    -0.000000
      h-5     :    -0.000000
  2 S s       :     0.000000  s :     0.000000
      pz      :     0.000000  p :     0.000000
      px      :     0.000000
      py      :    -0.000000
      dz2     :     0.000000  d :     0.000000
      dxz     :     0.000000
      dyz     :    -0.000000
      dx2y2   :    -0.000000
      dxy     :     0.000000
      f0      :     0.000000  f :    -0.000000
      f+1     :    -0.000000
      f-1     :    -0.000000
      f+2     :    -0.000000
      f-2     :    -0.000000
      f+3     :    -0.000000
      f-3     :    -0.000000
      g0      :     0.000000  g :     0.000000
      g+1     :    -0.000000
      g-1     :     0.000000
      g+2     :    -0.000000
      g-2     :    -0.000000
      g+3     :    -0.000000
      g-3     :     0.000000
      g+4     :     0.000000
      g-4     :    -0.000000
      h0      :     0.000000  h :     0.000000
      h+1     :    -0.000000
      h-1     :     0.000000
      h+2     :    -0.000000
      h-2     :    -0.000000
      h+3     :    -0.000000
      h-3     :     0.000000
      h+4     :    -0.000000
      h-4     :     0.000000
      h+5     :     0.000000
      h-5     :     0.000000


                      *****************************
                      * MAYER POPULATION ANALYSIS *
                      *****************************

  NA   - Mulliken gross atomic population
  ZA   - Total nuclear charge
  QA   - Mulliken gross atomic charge
  VA   - Mayer's total valence
  BVA  - Mayer's bonded valence
  FA   - Mayer's free valence

  ATOM       NA         ZA         QA         VA         BVA        FA
  0 C      5.8250     6.0000     0.1750     4.0730     4.0730     0.0000
  1 O      8.0165     8.0000    -0.0165     2.2831     2.2831     0.0000
  2 S     16.1585    16.0000    -0.1585     2.2391     2.2391    -0.0000

  Mayer bond orders larger than 0.1
B(  0-C ,  1-O ) :   2.0585 B(  0-C ,  2-S ) :   2.0145 B(  1-O ,  2-S ) :   0.2246 


-------
TIMINGS
-------

Total SCF time: 0 days 2 hours 23 min 32 sec 

Total time                  ....    8612.438 sec
Sum of individual times     ....    8611.202 sec  (100.0%)

Fock matrix formation       ....    8598.862 sec  ( 99.8%)
  XC integration            ....     179.771 sec  (  2.1% of F)
    Basis function eval.    ....      12.824 sec  (  7.1% of XC)
    Density eval.           ....      38.422 sec  ( 21.4% of XC)
    XC-Functional eval.     ....       1.455 sec  (  0.8% of XC)
    XC-Potential eval.      ....     126.109 sec  ( 70.1% of XC)
Diagonalization             ....       2.221 sec  (  0.0%)
Density matrix formation    ....       0.057 sec  (  0.0%)
Population analysis         ....       0.163 sec  (  0.0%)
Initial guess               ....       6.187 sec  (  0.1%)
Orbital Transformation      ....       0.000 sec  (  0.0%)
Orbital Orthonormalization  ....       0.000 sec  (  0.0%)
DIIS solution               ....       0.983 sec  (  0.0%)
Grid generation             ....       2.730 sec  (  0.0%)

-------------------------   --------------------
FINAL SINGLE POINT ENERGY      -511.339607892630
-------------------------   --------------------


                            ***************************************
                            *     ORCA property calculations      *
                            ***************************************

                                    ---------------------
                                    Active property flags
                                    ---------------------
   (+) Dipole Moment
   (+) Polarizability


------------------------------------------------------------------------------
                       ORCA ELECTRIC PROPERTIES CALCULATION
------------------------------------------------------------------------------

Dipole Moment Calculation                       ... on
Quadrupole Moment Calculation                   ... off
Polarizability Calculation                      ... Analytic (CP-SCF)
GBWName                                         ... cso_pbe.gbw
Electron density file                           ... cso_pbe.scfp.tmp
The origin for moment calculation is the CENTER OF MASS  = ( 0.000000,  0.000000 -0.989527)

-------------
DIPOLE MOMENT
-------------
                                X             Y             Z
Electronic contribution:      0.00000      -0.00000      -0.35501
Nuclear contribution   :      0.00000       0.00000       0.05490
                        -----------------------------------------
Total Dipole Moment    :      0.00000      -0.00000      -0.30011
                        -----------------------------------------
Magnitude (a.u.)       :      0.30011
Magnitude (Debye)      :      0.76283



--------------------
Rotational spectrum 
--------------------
 
Rotational constants in cm-1:     0.000000     0.202912     0.202912 
Rotational constants in MHz :     0.000000  6083.144754  6083.144754 

 Dipole components along the rotational axes: 
x,y,z [a.u.] :    -0.300113    -0.000000     0.000000 
x,y,z [Debye]:    -0.762826    -0.000000     0.000000 

 
Transforming and storing MO dipole integrals   ... done

                ... starting polarizability calculation

Opening the Dipole integral file               ... (cso_pbe.dmo.tmp) done
Reading Dipole-MO integrals                    ... done
Solving CP-SCF equations                       ... 
------------------------------------------------------------------------------
                           ORCA CP-SCF CALCULATION
------------------------------------------------------------------------------

Input orbitals are from        ... cso_pbe.gbw
Input Perturbation             ... cso_pbe.cpv.tmp
Wavefunction output            ... cso_pbe.cpu.tmp
Perturbation mode              ... Real perturbation (singlet)
Solver                         ... POPLE
Max. number of iterations      ... 200
Convergence tolerance          ... 1.000e-06
Integral handling              ... Direct
Number of perturbations        ... 3
Number of operators            ... 2
Orbital ranges used for CP-SCF:
 Operator 0:  Orbitals   0... 14  to  15...430
 Operator 1:  Orbitals   0... 14  to  15...430
DFT calculation                         ... on
Exchange functional (SCF)               ... PBE
Exchange functional (CP-SCF)            ... PBE
   PBE kappa parameter  XKappa (SCF)    ...  0.804000
   PBE kappa parameter  XKappa (CP-SCF) ...  0.804000
   PBE mue parameter   XMuePBE (SCF)    ...  0.219520
   PBE mue parameter   XMuePBE (CP-SCF) ...  0.219520
Correlation functional (SCF)            ... PBE
Correlation functional (CP-SCF)         ... PBE
   PBE beta parameter CBetaPBE (SCF)    ...  0.066725
   PBE beta parameter CBetaPBE (CP-SCF) ...  0.066725
 LDA part of GGA corr.  LDAOpt (SCF)    ... PW91-LDA
 LDA part of GGA corr.  LDAOpt (CP-SCF) ... PW91-LDA
Variables per vector in CP-SCF ... 12480
Number of vectors sought       ... 3
Recalculating density on grid  ... done
Calculating the xc-kernel      ... done
     CP-SCF ITERATION   0: 
     CP-SCF ITERATION   1:      1.812933159643
     CP-SCF ITERATION   2:      0.152867808210
     CP-SCF ITERATION   3:      0.004710853401
     CP-SCF ITERATION   4:      0.000220087235
     CP-SCF ITERATION   5:      0.000004027463
     CP-SCF ITERATION   6:      0.000000096064
done
Reading CP-SCF coefficients                    ... done
Doing the polarizability tensor   ... done
Cleaning up                                    ... done

-------------------------
THE POLARIZABILITY TENSOR
-------------------------

The raw cartesian tensor (atomic units):
   26.44920     -0.00000     -0.00000  
   -0.00000     26.44920      0.00000  
   -0.00000      0.00000     51.77936  
diagonalized tensor: 
   26.44920     26.44920     51.77936  

   -0.22184      0.97508     -0.00000  
   -0.97508     -0.22184      0.00000  
    0.00000      0.00000      1.00000  

Isotropic polarizability :  34.89259


Timings for individual modules:

Sum of individual times         ...    14060.102 sec (= 234.335 min)
GTO integral calculation        ...        6.226 sec (=   0.104 min)   0.0 %
SCF iterations                  ...     8615.472 sec (= 143.591 min)  61.3 %
Solution of CP-SCF eqns.        ...     5438.404 sec (=  90.640 min)  38.7 %
                             ****ORCA TERMINATED NORMALLY****
TOTAL RUN TIME: 0 days 3 hours 54 minutes 20 seconds 685 msec
