
                                 *****************
                                 * O   R   C   A *
                                 *****************

           --- An Ab Initio, DFT and Semiempirical electronic structure package ---

                  #######################################################
                  #                        -***-                        #
                  #          Department of theory and spectroscopy      #
                  #               Directorship: Frank Neese             #
                  #        Max Planck Institute fuer Kohlenforschung    #
                  #                Kaiser Wilhelm Platz 1               #
                  #                 D-45470 Muelheim/Ruhr               #
                  #                      Germany                        #
                  #                                                     #
                  #                  All rights reserved                #
                  #                        -***-                        #
                  #######################################################


                         Program Version 4.1.2  - RELEASE  -


 With contributions from (in alphabetic order):
   Daniel Aravena         : Magnetic Properties
   Michael Atanasov       : Ab Initio Ligand Field Theory
   Alexander A. Auer      : GIAO ZORA
   Ute Becker             : Parallelization
   Giovanni Bistoni       : ED, Open-shell LED
   Martin Brehm           : Molecular dynamics
   Dmytro Bykov           : SCF Hessian
   Vijay G. Chilkuri      : MRCI spin determinant printing
   Dipayan Datta          : RHF DLPNO-CCSD density
   Achintya Kumar Dutta   : EOM-CC, STEOM-CC
   Dmitry Ganyushin       : Spin-Orbit,Spin-Spin,Magnetic field MRCI
   Miquel Garcia          : C-PCM Hessian
   Yang Guo               : DLPNO-NEVPT2, CIM, IAO-localization
   Andreas Hansen         : Spin unrestricted coupled pair/coupled cluster methods
   Benjamin Helmich-Paris : CASSCF linear response (MC-RPA)
   Lee Huntington         : MR-EOM, pCC
   Robert Izsak           : Overlap fitted RIJCOSX, COSX-SCS-MP3, EOM
   Christian Kollmar      : KDIIS, OOCD, Brueckner-CCSD(T), CCSD density
   Simone Kossmann        : Meta GGA functionals, TD-DFT gradient, OOMP2, MP2 Hessian
   Martin Krupicka        : AUTO-CI
   Lucas Lang             : DCDCAS
   Dagmar Lenk            : GEPOL surface, SMD
   Dimitrios Liakos       : Extrapolation schemes; parallel MDCI
   Dimitrios Manganas     : ROCIS; embedding schemes
   Dimitrios Pantazis     : SARC Basis sets
   Taras Petrenko         : DFT Hessian,TD-DFT gradient, ASA, ECA, R-Raman, ABS, FL, XAS/XES, NRVS
   Peter Pinski           : DLPNO-MP2, DLPNO-MP2 Gradient
   Christoph Reimann      : Effective Core Potentials
   Marius Retegan         : Local ZFS, SOC
   Christoph Riplinger    : Optimizer, TS searches, QM/MM, DLPNO-CCSD(T), (RO)-DLPNO pert. Triples
   Tobias Risthaus        : Range-separated hybrids, TD-DFT gradient, RPA, STAB
   Michael Roemelt        : Restricted open shell CIS
   Masaaki Saitow         : Open-shell DLPNO
   Barbara Sandhoefer     : DKH picture change effects
   Avijit Sen             : IP-ROCIS
   Kantharuban Sivalingam : CASSCF convergence, NEVPT2, FIC-MRCI
   Bernardo de Souza      : ESD, SOC TD-DFT
   Georgi Stoychev        : AutoAux, RI-MP2 NMR
   Willem Van den Heuvel  : Paramagnetic NMR
   Boris Wezisla          : Elementary symmetry handling
   Frank Wennmohs         : Technical directorship


 We gratefully acknowledge several colleagues who have allowed us to
 interface, adapt or use parts of their codes:
   Stefan Grimme, W. Hujo, H. Kruse,             : VdW corrections, initial TS optimization,
                  C. Bannwarth                     DFT functionals, gCP, sTDA/sTD-DF
   Ed Valeev                                     : LibInt (2-el integral package), F12 methods
   Garnet Chan, S. Sharma, J. Yang, R. Olivares  : DMRG
   Ulf Ekstrom                                   : XCFun DFT Library
   Mihaly Kallay                                 : mrcc  (arbitrary order and MRCC methods)
   Andreas Klamt, Michael Diedenhofen            : otool_cosmo (COSMO solvation model)
   Jiri Pittner, Ondrej Demel                    : Mk-CCSD
   Frank Weinhold                                : gennbo (NPA and NBO analysis)
   Christopher J. Cramer and Donald G. Truhlar   : smd solvation model
   Lars Goerigk                                  : TD-DFT with DH, B97 family of functionals
   V. Asgeirsson, H. Jonsson                     : NEB implementation
   FAccTs GmbH                                   : IRC, NEB, NEB-TS, Multilevel


 Your calculation uses the libint2 library for the computation of 2-el integrals
 For citations please refer to: http://libint.valeyev.net

 This ORCA versions uses:
   CBLAS   interface :  Fast vector & matrix operations
   LAPACKE interface :  Fast linear algebra routines
   SCALAPACK package :  Parallel linear algebra routines


----- Orbital basis set information -----
Your calculation utilizes the basis: aug-pc-4
   H, C-F              : F. Jensen, J. Chem. Phys. 115, 9113 (2001).
                         F. Jensen, J. Chem. Phys. 116, 7372 (2002).
                         F. Jensen, J. Chem. Phys. 117, 9234 (2002).
   Si-Cl               : F. Jensen, T. Helgaker, J. Chem. Phys. 121, 3463 (2004).
   He-B, Ne-Mg, Al, Ar : F. Jensen, J. Phys. Chem. A 111, 11198 (2007).
   K, Ca, Ga-Kr        : F. Jensen, J. Chem. Phys. 136, 094110 (2012).
   Sc-Zn               : F. Jensen, J. Chem. Phys. 138, 014107 (2013).

================================================================================
                                        WARNINGS
                       Please study these warnings very carefully!
================================================================================


INFO   : the flag for use of LIBINT has been found!

================================================================================
                                       INPUT FILE
================================================================================
NAME = fcn_pbe.inp
|  1> !uks pbe nori aug-pc-4 grid7 nofinalgrid verytightscf
|  2> 
|  3> %maxcore 1500
|  4> 
|  5> %pal nprocs 1 end
|  6> 
|  7> %scf
|  8> 	maxiter 200
|  9> end
| 10> %elprop
| 11> 	dipole true
| 12> 	 polar 1
| 13> 	 maxiter 200
| 14> end
| 15> 
| 16> * xyz 0 1
| 17> C 0.0000 0.0000 0.0000
| 18> F 0.0000 0.0000 -1.2620
| 19> N 0.0000 0.0000 1.1590
| 20> *
| 21> 
| 22>                          ****END OF INPUT****
================================================================================

                       ****************************
                       * Single Point Calculation *
                       ****************************

---------------------------------
CARTESIAN COORDINATES (ANGSTROEM)
---------------------------------
  C      0.000000    0.000000    0.000000
  F      0.000000    0.000000   -1.262000
  N      0.000000    0.000000    1.159000

----------------------------
CARTESIAN COORDINATES (A.U.)
----------------------------
  NO LB      ZA    FRAG     MASS         X           Y           Z
   0 C     6.0000    0    12.011    0.000000    0.000000    0.000000
   1 F     9.0000    0    18.998    0.000000    0.000000   -2.384834
   2 N     7.0000    0    14.007    0.000000    0.000000    2.190193

--------------------------------
INTERNAL COORDINATES (ANGSTROEM)
--------------------------------
 C      0   0   0     0.000000000000     0.00000000     0.00000000
 F      1   0   0     1.262000000000     0.00000000     0.00000000
 N      1   2   0     1.159000000000   179.99999852     0.00000000

---------------------------
INTERNAL COORDINATES (A.U.)
---------------------------
 C      0   0   0     0.000000000000     0.00000000     0.00000000
 F      1   0   0     2.384834381009     0.00000000     0.00000000
 N      1   2   0     2.190192589215   179.99999852     0.00000000

---------------------
BASIS SET INFORMATION
---------------------
There are 3 groups of distinct atoms

 Group   1 Type C   : 28s12p7d4f3g2h contracted to 9s8p7d4f3g2h pattern {11101111111/51111111/1111111/1111/111/11}
 Group   2 Type F   : 27s12p7d4f3g2h contracted to 9s8p7d4f3g2h pattern {1191111111/51111111/1111111/1111/111/11}
 Group   3 Type N   : 27s12p7d4f3g2h contracted to 9s8p7d4f3g2h pattern {1191111111/51111111/1111111/1111/111/11}

Atom   0C    basis set group =>   1
Atom   1F    basis set group =>   2
Atom   2N    basis set group =>   3
------------------------------------------------------------------------------
                           ORCA GTO INTEGRAL CALCULATION
------------------------------------------------------------------------------

                         BASIS SET STATISTICS AND STARTUP INFO

 # of primitive gaussian shells          ...  166
 # of primitive gaussian functions       ...  526
 # of contracted shells                  ...   99
 # of contracted basis functions         ...  435
 Highest angular momentum                ...    5
 Maximum contraction depth               ...   11
 Integral package used                   ... LIBINT
 Integral threshhold            Thresh   ...  1.000e-12
 Primitive cut-off              TCut     ...  1.000e-14


------------------------------ INTEGRAL EVALUATION ----------------------------


 * One electron integrals 
 Pre-screening matrix                    ... done
 Shell pair data                         ... done (   0.002 sec)

-------------------------------------------------------------------------------
                                 ORCA SCF
-------------------------------------------------------------------------------

------------
SCF SETTINGS
------------
Hamiltonian:
 Density Functional     Method          .... DFT(GTOs)
 Exchange Functional    Exchange        .... PBE
   PBE kappa parameter   XKappa         ....  0.804000
   PBE mue parameter    XMuePBE         ....  0.219520
 Correlation Functional Correlation     .... PBE
   PBE beta parameter  CBetaPBE         ....  0.066725
 LDA part of GGA corr.  LDAOpt          .... PW91-LDA
 Gradients option       PostSCFGGA      .... off
   Density functional embedding theory  .... OFF
   NL short-range parameter             ....  6.400000


General Settings:
 Integral files         IntName         .... fcn_pbe
 Hartree-Fock type      HFTyp           .... UHF
 Total Charge           Charge          ....    0
 Multiplicity           Mult            ....    1
 Number of Electrons    NEL             ....   22
 Basis Dimension        Dim             ....  435
 Nuclear Repulsion      ENuc            ....     55.5898882522 Eh

Convergence Acceleration:
 DIIS                   CNVDIIS         .... on
   Start iteration      DIISMaxIt       ....    12
   Startup error        DIISStart       ....  0.200000
   # of expansion vecs  DIISMaxEq       ....     5
   Bias factor          DIISBfac        ....   1.050
   Max. coefficient     DIISMaxC        ....  10.000
 Newton-Raphson         CNVNR           .... off
 SOSCF                  CNVSOSCF        .... off
 Level Shifting         CNVShift        .... on
   Level shift para.    LevelShift      ....    0.2500
   Turn off err/grad.   ShiftErr        ....    0.0010
 Zerner damping         CNVZerner       .... off
 Static damping         CNVDamp         .... on
   Fraction old density DampFac         ....    0.7000
   Max. Damping (<1)    DampMax         ....    0.9800
   Min. Damping (>=0)   DampMin         ....    0.0000
   Turn off err/grad.   DampErr         ....    0.1000
 Fernandez-Rico         CNVRico         .... off

SCF Procedure:
 Maximum # iterations   MaxIter         ....   200
 SCF integral mode      SCFMode         .... Direct
   Integral package                     .... LIBINT
 Reset frequency        DirectResetFreq ....    20
 Integral Threshold     Thresh          ....  1.000e-12 Eh
 Primitive CutOff       TCut            ....  1.000e-14 Eh

Convergence Tolerance:
 Convergence Check Mode ConvCheckMode   .... Total+1el-Energy
 Convergence forced     ConvForced      .... 0
 Energy Change          TolE            ....  1.000e-09 Eh
 1-El. energy change                    ....  1.000e-06 Eh
 DIIS Error             TolErr          ....  1.000e-08


Diagonalization of the overlap matrix:
Smallest eigenvalue                        ... 4.256e-07
Time for diagonalization                   ...    0.039 sec
Threshold for overlap eigenvalues          ... 1.000e-08
Number of eigenvalues below threshold      ... 0
Time for construction of square roots      ...    0.025 sec
Total time needed                          ...    0.065 sec

-------------------
DFT GRID GENERATION
-------------------

General Integration Accuracy     IntAcc      ...  5.670
Radial Grid Type                 RadialGrid  ... Gauss-Chebyshev
Angular Grid (max. acc.)         AngularGrid ... Lebedev-770
Angular grid pruning method      GridPruning ... 3 (G Style)
Weight generation scheme         WeightScheme... Becke
Basis function cutoff            BFCut       ...    1.0000e-12
Integration weight cutoff        WCut        ...    1.0000e-14
Grids for H and He will be reduced by one unit

# of grid points (after initial pruning)     ...  75558 (   0.0 sec)
# of grid points (after weights+screening)   ...  74672 (   0.0 sec)
nearest neighbour list constructed           ...    0.0 sec
Grid point re-assignment to atoms done       ...    0.0 sec
Grid point division into batches done        ...    1.7 sec
Reduced shell lists constructed in    2.7 sec

Total number of grid points                  ...    74672
Total number of batches                      ...     1168
Average number of points per batch           ...       63
Average number of grid points per atom       ...    24891
Average number of shells per batch           ...    70.24 (70.95%)
Average number of basis functions per batch  ...   319.51 (73.45%)
Average number of large shells per batch     ...    62.52 (89.00%)
Average number of large basis fcns per batch ...   285.72 (89.42%)
Maximum spatial batch extension              ...  20.49, 20.36, 13.89 au
Average spatial batch extension              ...   2.40,  2.38,  1.95 au

Time for grid setup =    2.727 sec

------------------------------
INITIAL GUESS: MODEL POTENTIAL
------------------------------
Loading Hartree-Fock densities                     ... done
Calculating cut-offs                               ... done
Setting up the integral package                    ... done
Initializing the effective Hamiltonian             ... done
Starting the Coulomb interaction                   ... done (   0.2 sec)
Reading the grid                                   ... done
Mapping shells                                     ... done
Starting the XC term evaluation                    ... done (   5.9 sec)
  promolecular density results
     # of electrons  =     22.000000196
     EX              =    -21.579942128
     EC              =     -0.729229191
     EX+EC           =    -22.309171319
Transforming the Hamiltonian                       ... done (   0.0 sec)
Diagonalizing the Hamiltonian                      ... done (   0.0 sec)
Back transforming the eigenvectors                 ... done (   0.0 sec)
Now organizing SCF variables                       ... done
                      ------------------
                      INITIAL GUESS DONE (   9.0 sec)
                      ------------------
--------------
SCF ITERATIONS
--------------
ITER       Energy         Delta-E        Max-DP      RMS-DP      [F,P]     Damp
               ***  Starting incremental Fock matrix formation  ***
  0   -192.3679163032   0.000000000000 0.02057975  0.00022405  0.3553420 0.7000
  1   -192.4652769846  -0.097360681378 0.00657953  0.00009880  0.0662873 0.7000
                               ***Turning on DIIS***
  2   -192.4745195308  -0.009242546279 0.02556504  0.00015440  0.0685351 0.0000
  3   -192.5337215184  -0.059201987580 0.00768381  0.00006929  0.0446189 0.0000
  4   -192.5357092089  -0.001987690440 0.00246579  0.00001877  0.0283361 0.0000
  5   -192.5365409863  -0.000831777422 0.00090845  0.00001129  0.0095905 0.0000
  6   -192.5366588169  -0.000117830648 0.00027771  0.00000395  0.0033851 0.0000
  7   -192.5366713973  -0.000012580366 0.00013021  0.00000146  0.0004853 0.0000
  8   -192.5366719499  -0.000000552626 0.00001569  0.00000018  0.0000567 0.0000
  9   -192.5366719563  -0.000000006399 0.00001161  0.00000011  0.0000181 0.0000
 10   -192.5366719570  -0.000000000653 0.00002057  0.00000017  0.0000046 0.0000
 11   -192.5366719570  -0.000000000016 0.00002555  0.00000022  0.0000015 0.0000
 12   -192.5366719570   0.000000000002 0.00006190  0.00000068  0.0000005 0.0000
                 **** Energy Check signals convergence ****

               *****************************************************
               *                     SUCCESS                       *
               *           SCF CONVERGED AFTER  13 CYCLES          *
               *****************************************************


----------------
TOTAL SCF ENERGY
----------------

Total Energy       :         -192.53667196 Eh           -5239.18920 eV

Components:
Nuclear Repulsion  :           55.58988825 Eh            1512.67776 eV
Electronic Energy  :         -248.12656021 Eh           -6751.86696 eV
One Electron Energy:         -373.79225034 Eh          -10171.40424 eV
Two Electron Energy:          125.66569013 Eh            3419.53727 eV

Virial components:
Potential Energy   :         -384.51260659 Eh          -10463.11996 eV
Kinetic Energy     :          191.97593464 Eh            5223.93076 eV
Virial Ratio       :            2.00292087


DFT components:
N(Alpha)           :       11.000000349950 electrons
N(Beta)            :       11.000000349950 electrons
N(Total)           :       22.000000699900 electrons
E(X)               :      -21.762030281288 Eh       
E(C)               :       -0.733894340450 Eh       
E(XC)              :      -22.495924621738 Eh       
DFET-embed. en.    :        0.000000000000 Eh       

---------------
SCF CONVERGENCE
---------------

  Last Energy change         ...   -5.1443e-12  Tolerance :   1.0000e-09
  Last MAX-Density change    ...    1.6492e-04  Tolerance :   1.0000e-08
  Last RMS-Density change    ...    1.4847e-06  Tolerance :   1.0000e-09
  Last DIIS Error            ...    5.7992e-08  Tolerance :   1.0000e-08

             **** THE GBW FILE WAS UPDATED (fcn_pbe.gbw) ****
             **** DENSITY FILE WAS UPDATED (fcn_pbe.scfp.tmp) ****
             **** ENERGY FILE WAS UPDATED (fcn_pbe.en.tmp) ****
----------------------
UHF SPIN CONTAMINATION
----------------------

Warning: in a DFT calculation there is little theoretical justification to 
         calculate <S**2> as in Hartree-Fock theory. We will do it anyways
         but you should keep in mind that the values have only limited relevance

Expectation value of <S**2>     :    -0.000000
Ideal value S*(S+1) for S=0.0   :     0.000000
Deviation                       :    -0.000000

----------------
ORBITAL ENERGIES
----------------
                 SPIN UP ORBITALS
  NO   OCC          E(Eh)            E(eV) 
   0   1.0000     -24.387625      -663.6210 
   1   1.0000     -14.014112      -381.3434 
   2   1.0000     -10.024978      -272.7935 
   3   1.0000      -1.255730       -34.1702 
   4   1.0000      -0.859997       -23.4017 
   5   1.0000      -0.635351       -17.2888 
   6   1.0000      -0.512335       -13.9414 
   7   1.0000      -0.512335       -13.9414 
   8   1.0000      -0.350758        -9.5446 
   9   1.0000      -0.320604        -8.7241 
  10   1.0000      -0.320604        -8.7241 
  11   0.0000      -0.056732        -1.5438 
  12   0.0000      -0.009182        -0.2498 
  13   0.0000      -0.009182        -0.2498 
  14   0.0000       0.016563         0.4507 
  15   0.0000       0.016563         0.4507 
  16   0.0000       0.016721         0.4550 
  17   0.0000       0.025907         0.7050 
  18   0.0000       0.053558         1.4574 
  19   0.0000       0.055599         1.5129 
  20   0.0000       0.055599         1.5129 
  21   0.0000       0.065765         1.7895 
  22   0.0000       0.065765         1.7895 
  23   0.0000       0.067958         1.8492 
  24   0.0000       0.083643         2.2760 
  25   0.0000       0.083643         2.2760 
  26   0.0000       0.091075         2.4783 
  27   0.0000       0.109109         2.9690 
  28   0.0000       0.109640         2.9835 
  29   0.0000       0.109640         2.9835 
  30   0.0000       0.136399         3.7116 
  31   0.0000       0.153740         4.1835 
  32   0.0000       0.153740         4.1835 
  33   0.0000       0.177257         4.8234 
  34   0.0000       0.177257         4.8234 
  35   0.0000       0.189692         5.1618 
  36   0.0000       0.189692         5.1618 
  37   0.0000       0.194708         5.2983 
  38   0.0000       0.195248         5.3130 
  39   0.0000       0.195248         5.3130 
  40   0.0000       0.210896         5.7388 
  41   0.0000       0.210896         5.7388 
  42   0.0000       0.212070         5.7707 
  43   0.0000       0.218020         5.9326 
  44   0.0000       0.232853         6.3363 
  45   0.0000       0.232853         6.3363 
  46   0.0000       0.241424         6.5695 
  47   0.0000       0.262709         7.1487 
  48   0.0000       0.262709         7.1487 
  49   0.0000       0.289382         7.8745 
  50   0.0000       0.289382         7.8745 
  51   0.0000       0.309719         8.4279 
  52   0.0000       0.339337         9.2338 
  53   0.0000       0.339337         9.2338 
  54   0.0000       0.345643         9.4054 
  55   0.0000       0.345643         9.4054 
  56   0.0000       0.345760         9.4086 
  57   0.0000       0.345760         9.4086 
  58   0.0000       0.354575         9.6485 
  59   0.0000       0.375267        10.2115 
  60   0.0000       0.375267        10.2115 
  61   0.0000       0.381493        10.3810 
  62   0.0000       0.381493        10.3810 
  63   0.0000       0.413873        11.2621 
  64   0.0000       0.435359        11.8467 
  65   0.0000       0.435359        11.8467 
  66   0.0000       0.446677        12.1547 
  67   0.0000       0.447149        12.1675 
  68   0.0000       0.447149        12.1675 
  69   0.0000       0.453641        12.3442 
  70   0.0000       0.454916        12.3789 
  71   0.0000       0.454916        12.3789 
  72   0.0000       0.477960        13.0059 
  73   0.0000       0.477960        13.0059 
  74   0.0000       0.488877        13.3030 
  75   0.0000       0.492400        13.3989 
  76   0.0000       0.494280        13.4500 
  77   0.0000       0.494280        13.4500 
  78   0.0000       0.510434        13.8896 
  79   0.0000       0.510435        13.8896 
  80   0.0000       0.516599        14.0574 
  81   0.0000       0.516599        14.0574 
  82   0.0000       0.529245        14.4015 
  83   0.0000       0.529245        14.4015 
  84   0.0000       0.551222        14.9995 
  85   0.0000       0.551222        14.9995 
  86   0.0000       0.554440        15.0871 
  87   0.0000       0.554440        15.0871 
  88   0.0000       0.570602        15.5269 
  89   0.0000       0.570602        15.5269 
  90   0.0000       0.621994        16.9253 
  91   0.0000       0.647717        17.6253 
  92   0.0000       0.647717        17.6253 
  93   0.0000       0.664626        18.0854 
  94   0.0000       0.664626        18.0854 
  95   0.0000       0.691802        18.8249 
  96   0.0000       0.691802        18.8249 
  97   0.0000       0.696042        18.9403 
  98   0.0000       0.717443        19.5226 
  99   0.0000       0.730892        19.8886 
 100   0.0000       0.730893        19.8886 
 101   0.0000       0.741475        20.1766 
 102   0.0000       0.741475        20.1766 
 103   0.0000       0.760883        20.7047 
 104   0.0000       0.774022        21.0622 
 105   0.0000       0.774022        21.0622 
 106   0.0000       0.780650        21.2426 
 107   0.0000       0.780650        21.2426 
 108   0.0000       0.789035        21.4707 
 109   0.0000       0.789035        21.4707 
 110   0.0000       0.815069        22.1791 
 111   0.0000       0.881584        23.9891 
 112   0.0000       0.883533        24.0422 
 113   0.0000       0.883533        24.0422 
 114   0.0000       0.887030        24.1373 
 115   0.0000       0.887030        24.1373 
 116   0.0000       0.887921        24.1616 
 117   0.0000       0.887922        24.1616 
 118   0.0000       0.912027        24.8175 
 119   0.0000       0.922935        25.1143 
 120   0.0000       0.922935        25.1143 
 121   0.0000       0.934099        25.4181 
 122   0.0000       0.934099        25.4181 
 123   0.0000       0.947068        25.7710 
 124   0.0000       0.947068        25.7710 
 125   0.0000       0.959193        26.1010 
 126   0.0000       0.959193        26.1010 
 127   0.0000       0.971279        26.4298 
 128   0.0000       0.971279        26.4299 
 129   0.0000       0.972197        26.4548 
 130   0.0000       0.997529        27.1441 
 131   0.0000       1.000480        27.2245 
 132   0.0000       1.000480        27.2245 
 133   0.0000       1.080972        29.4147 
 134   0.0000       1.080972        29.4147 
 135   0.0000       1.095272        29.8039 
 136   0.0000       1.095273        29.8039 
 137   0.0000       1.096629        29.8408 
 138   0.0000       1.096629        29.8408 
 139   0.0000       1.126395        30.6508 
 140   0.0000       1.126395        30.6508 
 141   0.0000       1.140399        31.0318 
 142   0.0000       1.176032        32.0015 
 143   0.0000       1.176032        32.0015 
 144   0.0000       1.188611        32.3437 
 145   0.0000       1.243149        33.8278 
 146   0.0000       1.243149        33.8278 
 147   0.0000       1.272530        34.6273 
 148   0.0000       1.272530        34.6273 
 149   0.0000       1.273973        34.6666 
 150   0.0000       1.273973        34.6666 
 151   0.0000       1.301828        35.4245 
 152   0.0000       1.301828        35.4245 
 153   0.0000       1.324386        36.0384 
 154   0.0000       1.345616        36.6161 
 155   0.0000       1.358781        36.9743 
 156   0.0000       1.358782        36.9743 
 157   0.0000       1.396190        37.9922 
 158   0.0000       1.396190        37.9922 
 159   0.0000       1.459539        39.7161 
 160   0.0000       1.459539        39.7161 
 161   0.0000       1.474242        40.1162 
 162   0.0000       1.474242        40.1162 
 163   0.0000       1.488879        40.5144 
 164   0.0000       1.527363        41.5617 
 165   0.0000       1.539397        41.8891 
 166   0.0000       1.539397        41.8891 
 167   0.0000       1.599104        43.5138 
 168   0.0000       1.599104        43.5138 
 169   0.0000       1.625959        44.2446 
 170   0.0000       1.676768        45.6272 
 171   0.0000       1.676768        45.6272 
 172   0.0000       1.735743        47.2320 
 173   0.0000       1.735743        47.2320 
 174   0.0000       1.810378        49.2629 
 175   0.0000       1.869336        50.8672 
 176   0.0000       1.879000        51.1302 
 177   0.0000       1.879000        51.1302 
 178   0.0000       1.963033        53.4168 
 179   0.0000       1.963033        53.4168 
 180   0.0000       1.974539        53.7299 
 181   0.0000       1.974539        53.7299 
 182   0.0000       2.128372        57.9160 
 183   0.0000       2.128372        57.9160 
 184   0.0000       2.148090        58.4525 
 185   0.0000       2.148090        58.4525 
 186   0.0000       2.177480        59.2522 
 187   0.0000       2.280446        62.0541 
 188   0.0000       2.285485        62.1912 
 189   0.0000       2.285485        62.1912 
 190   0.0000       2.359328        64.2006 
 191   0.0000       2.359328        64.2006 
 192   0.0000       2.414020        65.6888 
 193   0.0000       2.414020        65.6888 
 194   0.0000       2.417446        65.7821 
 195   0.0000       2.446753        66.5795 
 196   0.0000       2.446753        66.5795 
 197   0.0000       2.471449        67.2515 
 198   0.0000       2.535643        68.9984 
 199   0.0000       2.535643        68.9984 
 200   0.0000       2.579961        70.2043 
 201   0.0000       2.579961        70.2043 
 202   0.0000       2.664679        72.5096 
 203   0.0000       2.812229        76.5246 
 204   0.0000       2.908508        79.1445 
 205   0.0000       2.908508        79.1445 
 206   0.0000       2.976477        80.9941 
 207   0.0000       3.058396        83.2232 
 208   0.0000       3.058396        83.2232 
 209   0.0000       3.095010        84.2195 
 210   0.0000       3.095010        84.2195 
 211   0.0000       3.393622        92.3452 
 212   0.0000       3.393622        92.3452 
 213   0.0000       3.410655        92.8087 
 214   0.0000       3.475485        94.5728 
 215   0.0000       3.475485        94.5728 
 216   0.0000       3.561811        96.9218 
 217   0.0000       3.735838       101.6573 
 218   0.0000       3.735838       101.6573 
 219   0.0000       3.898885       106.0941 
 220   0.0000       4.030673       109.6802 
 221   0.0000       4.040446       109.9461 
 222   0.0000       4.040446       109.9461 
 223   0.0000       4.098040       111.5133 
 224   0.0000       4.098040       111.5133 
 225   0.0000       4.113547       111.9353 
 226   0.0000       4.113547       111.9353 
 227   0.0000       4.127654       112.3192 
 228   0.0000       4.127654       112.3192 
 229   0.0000       4.202520       114.3564 
 230   0.0000       4.202520       114.3564 
 231   0.0000       4.255501       115.7981 
 232   0.0000       4.623292       125.8062 
 233   0.0000       4.623292       125.8062 
 234   0.0000       4.667789       127.0170 
 235   0.0000       4.667789       127.0170 
 236   0.0000       4.671514       127.1184 
 237   0.0000       4.700891       127.9177 
 238   0.0000       4.700891       127.9177 
 239   0.0000       4.812018       130.9417 
 240   0.0000       4.812018       130.9417 
 241   0.0000       4.842159       131.7618 
 242   0.0000       4.929161       134.1293 
 243   0.0000       4.929161       134.1293 
 244   0.0000       5.048437       137.3750 
 245   0.0000       5.048437       137.3750 
 246   0.0000       5.223747       142.1454 
 247   0.0000       5.223748       142.1454 
 248   0.0000       5.400534       146.9560 
 249   0.0000       5.400534       146.9560 
 250   0.0000       5.516594       150.1142 
 251   0.0000       5.540362       150.7609 
 252   0.0000       5.540362       150.7609 
 253   0.0000       5.576647       151.7483 
 254   0.0000       5.598879       152.3532 
 255   0.0000       5.598879       152.3532 
 256   0.0000       5.652109       153.8017 
 257   0.0000       5.652109       153.8017 
 258   0.0000       5.887676       160.2118 
 259   0.0000       5.952536       161.9767 
 260   0.0000       5.952536       161.9767 
 261   0.0000       6.075149       165.3132 
 262   0.0000       6.075149       165.3132 
 263   0.0000       6.305926       171.5930 
 264   0.0000       6.359398       173.0480 
 265   0.0000       6.359398       173.0480 
 266   0.0000       6.465268       175.9289 
 267   0.0000       6.709410       182.5723 
 268   0.0000       6.709410       182.5723 
 269   0.0000       6.807797       185.2496 
 270   0.0000       6.807797       185.2496 
 271   0.0000       6.832261       185.9153 
 272   0.0000       6.832261       185.9153 
 273   0.0000       6.995398       190.3544 
 274   0.0000       7.028018       191.2421 
 275   0.0000       7.028018       191.2421 
 276   0.0000       7.116018       193.6367 
 277   0.0000       7.116018       193.6367 
 278   0.0000       7.139729       194.2819 
 279   0.0000       7.249751       197.2758 
 280   0.0000       7.249751       197.2758 
 281   0.0000       7.292922       198.4505 
 282   0.0000       7.292922       198.4505 
 283   0.0000       7.755253       211.0311 
 284   0.0000       7.967542       216.8078 
 285   0.0000       7.967542       216.8078 
 286   0.0000       8.122253       221.0177 
 287   0.0000       8.431602       229.4356 
 288   0.0000       8.688320       236.4212 
 289   0.0000       8.688320       236.4212 
 290   0.0000       8.848806       240.7883 
 291   0.0000       8.848806       240.7883 
 292   0.0000       8.903288       242.2708 
 293   0.0000       9.218172       250.8392 
 294   0.0000       9.218172       250.8392 
 295   0.0000       9.795278       266.5431 
 296   0.0000       9.795278       266.5431 
 297   0.0000       9.859878       268.3009 
 298   0.0000      10.194325       277.4017 
 299   0.0000      10.194325       277.4017 
 300   0.0000      10.260571       279.2043 
 301   0.0000      10.260571       279.2043 
 302   0.0000      10.339860       281.3619 
 303   0.0000      10.339860       281.3619 
 304   0.0000      10.370846       282.2051 
 305   0.0000      10.423720       283.6438 
 306   0.0000      10.423720       283.6438 
 307   0.0000      10.428502       283.7740 
 308   0.0000      10.428502       283.7740 
 309   0.0000      10.681353       290.6544 
 310   0.0000      10.681353       290.6544 
 311   0.0000      11.101486       302.0868 
 312   0.0000      11.101486       302.0868 
 313   0.0000      11.171789       303.9998 
 314   0.0000      11.171789       303.9998 
 315   0.0000      11.184773       304.3531 
 316   0.0000      11.336786       308.4896 
 317   0.0000      11.397498       310.1417 
 318   0.0000      11.397498       310.1417 
 319   0.0000      11.404837       310.3414 
 320   0.0000      11.404837       310.3414 
 321   0.0000      11.544758       314.1488 
 322   0.0000      11.544758       314.1488 
 323   0.0000      11.648954       316.9841 
 324   0.0000      11.648954       316.9841 
 325   0.0000      11.774500       320.4004 
 326   0.0000      11.774500       320.4004 
 327   0.0000      11.829248       321.8902 
 328   0.0000      11.829248       321.8902 
 329   0.0000      11.836183       322.0789 
 330   0.0000      11.836183       322.0789 
 331   0.0000      12.006254       326.7068 
 332   0.0000      12.006254       326.7068 
 333   0.0000      12.076920       328.6297 
 334   0.0000      12.076920       328.6297 
 335   0.0000      12.210564       332.2663 
 336   0.0000      12.210564       332.2663 
 337   0.0000      12.259933       333.6097 
 338   0.0000      12.518651       340.6498 
 339   0.0000      12.518651       340.6498 
 340   0.0000      12.520646       340.7041 
 341   0.0000      12.578199       342.2702 
 342   0.0000      12.578199       342.2702 
 343   0.0000      12.634705       343.8078 
 344   0.0000      12.634705       343.8078 
 345   0.0000      12.679633       345.0304 
 346   0.0000      12.679633       345.0304 
 347   0.0000      13.008129       353.9692 
 348   0.0000      13.008129       353.9692 
 349   0.0000      13.279795       361.3616 
 350   0.0000      13.681499       372.2925 
 351   0.0000      13.681499       372.2925 
 352   0.0000      13.892974       378.0470 
 353   0.0000      14.121362       384.2618 
 354   0.0000      14.121362       384.2618 
 355   0.0000      14.133692       384.5973 
 356   0.0000      14.133692       384.5973 
 357   0.0000      14.267968       388.2512 
 358   0.0000      14.267969       388.2512 
 359   0.0000      14.540589       395.6695 
 360   0.0000      14.540589       395.6695 
 361   0.0000      14.544906       395.7870 
 362   0.0000      14.629160       398.0797 
 363   0.0000      14.629160       398.0797 
 364   0.0000      14.908694       405.6862 
 365   0.0000      14.908694       405.6862 
 366   0.0000      15.016626       408.6232 
 367   0.0000      15.016627       408.6232 
 368   0.0000      15.064591       409.9284 
 369   0.0000      15.064591       409.9284 
 370   0.0000      15.074444       410.1965 
 371   0.0000      15.370543       418.2537 
 372   0.0000      15.370543       418.2537 
 373   0.0000      15.857436       431.5028 
 374   0.0000      15.990251       435.1168 
 375   0.0000      15.990251       435.1168 
 376   0.0000      16.090986       437.8580 
 377   0.0000      16.427796       447.0231 
 378   0.0000      16.570133       450.8962 
 379   0.0000      16.570133       450.8963 
 380   0.0000      16.663769       453.4442 
 381   0.0000      16.663769       453.4442 
 382   0.0000      16.957754       461.4439 
 383   0.0000      16.957754       461.4439 
 384   0.0000      17.016041       463.0300 
 385   0.0000      17.707023       481.8326 
 386   0.0000      17.707023       481.8326 
 387   0.0000      18.379956       500.1440 
 388   0.0000      18.379956       500.1440 
 389   0.0000      18.455146       502.1900 
 390   0.0000      18.536686       504.4089 
 391   0.0000      20.002801       544.3039 
 392   0.0000      20.002804       544.3040 
 393   0.0000      20.165000       548.7175 
 394   0.0000      20.165000       548.7175 
 395   0.0000      20.167849       548.7951 
 396   0.0000      20.167849       548.7951 
 397   0.0000      20.642411       561.7086 
 398   0.0000      21.027673       572.1921 
 399   0.0000      21.027674       572.1921 
 400   0.0000      22.329162       607.6074 
 401   0.0000      22.329162       607.6074 
 402   0.0000      22.751222       619.0922 
 403   0.0000      24.159480       657.4129 
 404   0.0000      24.803389       674.9345 
 405   0.0000      26.375600       717.7166 
 406   0.0000      26.375600       717.7166 
 407   0.0000      28.376729       772.1701 
 408   0.0000      30.277396       823.8898 
 409   0.0000      30.277400       823.8899 
 410   0.0000      31.083085       845.8137 
 411   0.0000      31.083085       845.8137 
 412   0.0000      31.915188       868.4564 
 413   0.0000      31.915190       868.4565 
 414   0.0000      32.024853       871.4406 
 415   0.0000      33.143136       901.8706 
 416   0.0000      33.143136       901.8706 
 417   0.0000      35.952867       978.3272 
 418   0.0000      41.776263      1136.7899 
 419   0.0000      41.776263      1136.7899 
 420   0.0000      42.172286      1147.5662 
 421   0.0000      44.880414      1221.2581 
 422   0.0000      47.710619      1298.2719 
 423   0.0000      47.710624      1298.2721 
 424   0.0000      48.137233      1309.8807 
 425   0.0000      48.137233      1309.8807 
 426   0.0000      49.038270      1334.3992 
 427   0.0000      76.882627      2092.0826 
 428   0.0000      91.188094      2481.3542 
 429   0.0000      91.188099      2481.3543 
 430   0.0000      91.717224      2495.7525 
 431   0.0000      91.717224      2495.7525 
 432   0.0000      92.594116      2519.6140 
 433   0.0000     105.384893      2867.6687 
 434   0.0000     202.824193      5519.1269 

                 SPIN DOWN ORBITALS
  NO   OCC          E(Eh)            E(eV) 
   0   1.0000     -24.387625      -663.6210 
   1   1.0000     -14.014112      -381.3434 
   2   1.0000     -10.024978      -272.7935 
   3   1.0000      -1.255730       -34.1702 
   4   1.0000      -0.859997       -23.4017 
   5   1.0000      -0.635351       -17.2888 
   6   1.0000      -0.512335       -13.9414 
   7   1.0000      -0.512335       -13.9414 
   8   1.0000      -0.350758        -9.5446 
   9   1.0000      -0.320604        -8.7241 
  10   1.0000      -0.320604        -8.7241 
  11   0.0000      -0.056732        -1.5438 
  12   0.0000      -0.009182        -0.2498 
  13   0.0000      -0.009182        -0.2498 
  14   0.0000       0.016563         0.4507 
  15   0.0000       0.016563         0.4507 
  16   0.0000       0.016721         0.4550 
  17   0.0000       0.025907         0.7050 
  18   0.0000       0.053558         1.4574 
  19   0.0000       0.055599         1.5129 
  20   0.0000       0.055599         1.5129 
  21   0.0000       0.065765         1.7895 
  22   0.0000       0.065765         1.7895 
  23   0.0000       0.067958         1.8492 
  24   0.0000       0.083643         2.2760 
  25   0.0000       0.083643         2.2760 
  26   0.0000       0.091075         2.4783 
  27   0.0000       0.109109         2.9690 
  28   0.0000       0.109640         2.9835 
  29   0.0000       0.109640         2.9835 
  30   0.0000       0.136399         3.7116 
  31   0.0000       0.153740         4.1835 
  32   0.0000       0.153740         4.1835 
  33   0.0000       0.177257         4.8234 
  34   0.0000       0.177257         4.8234 
  35   0.0000       0.189692         5.1618 
  36   0.0000       0.189692         5.1618 
  37   0.0000       0.194708         5.2983 
  38   0.0000       0.195248         5.3130 
  39   0.0000       0.195248         5.3130 
  40   0.0000       0.210896         5.7388 
  41   0.0000       0.210896         5.7388 
  42   0.0000       0.212070         5.7707 
  43   0.0000       0.218020         5.9326 
  44   0.0000       0.232853         6.3363 
  45   0.0000       0.232853         6.3363 
  46   0.0000       0.241424         6.5695 
  47   0.0000       0.262709         7.1487 
  48   0.0000       0.262709         7.1487 
  49   0.0000       0.289382         7.8745 
  50   0.0000       0.289382         7.8745 
  51   0.0000       0.309719         8.4279 
  52   0.0000       0.339337         9.2338 
  53   0.0000       0.339337         9.2338 
  54   0.0000       0.345643         9.4054 
  55   0.0000       0.345643         9.4054 
  56   0.0000       0.345760         9.4086 
  57   0.0000       0.345760         9.4086 
  58   0.0000       0.354575         9.6485 
  59   0.0000       0.375267        10.2115 
  60   0.0000       0.375267        10.2115 
  61   0.0000       0.381493        10.3810 
  62   0.0000       0.381493        10.3810 
  63   0.0000       0.413873        11.2621 
  64   0.0000       0.435359        11.8467 
  65   0.0000       0.435359        11.8467 
  66   0.0000       0.446677        12.1547 
  67   0.0000       0.447149        12.1675 
  68   0.0000       0.447149        12.1675 
  69   0.0000       0.453641        12.3442 
  70   0.0000       0.454916        12.3789 
  71   0.0000       0.454916        12.3789 
  72   0.0000       0.477960        13.0059 
  73   0.0000       0.477960        13.0059 
  74   0.0000       0.488877        13.3030 
  75   0.0000       0.492400        13.3989 
  76   0.0000       0.494280        13.4500 
  77   0.0000       0.494280        13.4500 
  78   0.0000       0.510434        13.8896 
  79   0.0000       0.510435        13.8896 
  80   0.0000       0.516599        14.0574 
  81   0.0000       0.516599        14.0574 
  82   0.0000       0.529245        14.4015 
  83   0.0000       0.529245        14.4015 
  84   0.0000       0.551222        14.9995 
  85   0.0000       0.551222        14.9995 
  86   0.0000       0.554440        15.0871 
  87   0.0000       0.554440        15.0871 
  88   0.0000       0.570602        15.5269 
  89   0.0000       0.570602        15.5269 
  90   0.0000       0.621994        16.9253 
  91   0.0000       0.647717        17.6253 
  92   0.0000       0.647717        17.6253 
  93   0.0000       0.664626        18.0854 
  94   0.0000       0.664626        18.0854 
  95   0.0000       0.691802        18.8249 
  96   0.0000       0.691802        18.8249 
  97   0.0000       0.696042        18.9403 
  98   0.0000       0.717443        19.5226 
  99   0.0000       0.730892        19.8886 
 100   0.0000       0.730893        19.8886 
 101   0.0000       0.741475        20.1766 
 102   0.0000       0.741475        20.1766 
 103   0.0000       0.760883        20.7047 
 104   0.0000       0.774022        21.0622 
 105   0.0000       0.774022        21.0622 
 106   0.0000       0.780650        21.2426 
 107   0.0000       0.780650        21.2426 
 108   0.0000       0.789035        21.4707 
 109   0.0000       0.789035        21.4707 
 110   0.0000       0.815069        22.1791 
 111   0.0000       0.881584        23.9891 
 112   0.0000       0.883533        24.0422 
 113   0.0000       0.883533        24.0422 
 114   0.0000       0.887030        24.1373 
 115   0.0000       0.887030        24.1373 
 116   0.0000       0.887921        24.1616 
 117   0.0000       0.887922        24.1616 
 118   0.0000       0.912027        24.8175 
 119   0.0000       0.922935        25.1143 
 120   0.0000       0.922935        25.1143 
 121   0.0000       0.934099        25.4181 
 122   0.0000       0.934099        25.4181 
 123   0.0000       0.947068        25.7710 
 124   0.0000       0.947068        25.7710 
 125   0.0000       0.959193        26.1010 
 126   0.0000       0.959193        26.1010 
 127   0.0000       0.971279        26.4298 
 128   0.0000       0.971279        26.4299 
 129   0.0000       0.972197        26.4548 
 130   0.0000       0.997529        27.1441 
 131   0.0000       1.000480        27.2245 
 132   0.0000       1.000480        27.2245 
 133   0.0000       1.080972        29.4147 
 134   0.0000       1.080972        29.4147 
 135   0.0000       1.095272        29.8039 
 136   0.0000       1.095273        29.8039 
 137   0.0000       1.096629        29.8408 
 138   0.0000       1.096629        29.8408 
 139   0.0000       1.126395        30.6508 
 140   0.0000       1.126395        30.6508 
 141   0.0000       1.140399        31.0318 
 142   0.0000       1.176032        32.0015 
 143   0.0000       1.176032        32.0015 
 144   0.0000       1.188611        32.3437 
 145   0.0000       1.243149        33.8278 
 146   0.0000       1.243149        33.8278 
 147   0.0000       1.272530        34.6273 
 148   0.0000       1.272530        34.6273 
 149   0.0000       1.273973        34.6666 
 150   0.0000       1.273973        34.6666 
 151   0.0000       1.301828        35.4245 
 152   0.0000       1.301828        35.4245 
 153   0.0000       1.324386        36.0384 
 154   0.0000       1.345616        36.6161 
 155   0.0000       1.358781        36.9743 
 156   0.0000       1.358782        36.9743 
 157   0.0000       1.396190        37.9922 
 158   0.0000       1.396190        37.9922 
 159   0.0000       1.459539        39.7161 
 160   0.0000       1.459539        39.7161 
 161   0.0000       1.474242        40.1162 
 162   0.0000       1.474242        40.1162 
 163   0.0000       1.488879        40.5144 
 164   0.0000       1.527363        41.5617 
 165   0.0000       1.539397        41.8891 
 166   0.0000       1.539397        41.8891 
 167   0.0000       1.599104        43.5138 
 168   0.0000       1.599104        43.5138 
 169   0.0000       1.625959        44.2446 
 170   0.0000       1.676768        45.6272 
 171   0.0000       1.676768        45.6272 
 172   0.0000       1.735743        47.2320 
 173   0.0000       1.735743        47.2320 
 174   0.0000       1.810378        49.2629 
 175   0.0000       1.869336        50.8672 
 176   0.0000       1.879000        51.1302 
 177   0.0000       1.879000        51.1302 
 178   0.0000       1.963033        53.4168 
 179   0.0000       1.963033        53.4168 
 180   0.0000       1.974539        53.7299 
 181   0.0000       1.974539        53.7299 
 182   0.0000       2.128372        57.9160 
 183   0.0000       2.128372        57.9160 
 184   0.0000       2.148090        58.4525 
 185   0.0000       2.148090        58.4525 
 186   0.0000       2.177480        59.2522 
 187   0.0000       2.280446        62.0541 
 188   0.0000       2.285485        62.1912 
 189   0.0000       2.285485        62.1912 
 190   0.0000       2.359328        64.2006 
 191   0.0000       2.359328        64.2006 
 192   0.0000       2.414020        65.6888 
 193   0.0000       2.414020        65.6888 
 194   0.0000       2.417446        65.7821 
 195   0.0000       2.446753        66.5795 
 196   0.0000       2.446753        66.5795 
 197   0.0000       2.471449        67.2515 
 198   0.0000       2.535643        68.9984 
 199   0.0000       2.535643        68.9984 
 200   0.0000       2.579961        70.2043 
 201   0.0000       2.579961        70.2043 
 202   0.0000       2.664679        72.5096 
 203   0.0000       2.812229        76.5246 
 204   0.0000       2.908508        79.1445 
 205   0.0000       2.908508        79.1445 
 206   0.0000       2.976477        80.9941 
 207   0.0000       3.058396        83.2232 
 208   0.0000       3.058396        83.2232 
 209   0.0000       3.095010        84.2195 
 210   0.0000       3.095010        84.2195 
 211   0.0000       3.393622        92.3452 
 212   0.0000       3.393622        92.3452 
 213   0.0000       3.410655        92.8087 
 214   0.0000       3.475485        94.5728 
 215   0.0000       3.475485        94.5728 
 216   0.0000       3.561811        96.9218 
 217   0.0000       3.735838       101.6573 
 218   0.0000       3.735838       101.6573 
 219   0.0000       3.898885       106.0941 
 220   0.0000       4.030673       109.6802 
 221   0.0000       4.040446       109.9461 
 222   0.0000       4.040446       109.9461 
 223   0.0000       4.098040       111.5133 
 224   0.0000       4.098040       111.5133 
 225   0.0000       4.113547       111.9353 
 226   0.0000       4.113547       111.9353 
 227   0.0000       4.127654       112.3192 
 228   0.0000       4.127654       112.3192 
 229   0.0000       4.202520       114.3564 
 230   0.0000       4.202520       114.3564 
 231   0.0000       4.255501       115.7981 
 232   0.0000       4.623292       125.8062 
 233   0.0000       4.623292       125.8062 
 234   0.0000       4.667789       127.0170 
 235   0.0000       4.667789       127.0170 
 236   0.0000       4.671514       127.1184 
 237   0.0000       4.700891       127.9177 
 238   0.0000       4.700891       127.9177 
 239   0.0000       4.812018       130.9417 
 240   0.0000       4.812018       130.9417 
 241   0.0000       4.842159       131.7618 
 242   0.0000       4.929161       134.1293 
 243   0.0000       4.929161       134.1293 
 244   0.0000       5.048437       137.3750 
 245   0.0000       5.048437       137.3750 
 246   0.0000       5.223747       142.1454 
 247   0.0000       5.223748       142.1454 
 248   0.0000       5.400534       146.9560 
 249   0.0000       5.400534       146.9560 
 250   0.0000       5.516594       150.1142 
 251   0.0000       5.540362       150.7609 
 252   0.0000       5.540362       150.7609 
 253   0.0000       5.576647       151.7483 
 254   0.0000       5.598879       152.3532 
 255   0.0000       5.598879       152.3532 
 256   0.0000       5.652109       153.8017 
 257   0.0000       5.652109       153.8017 
 258   0.0000       5.887676       160.2118 
 259   0.0000       5.952536       161.9767 
 260   0.0000       5.952536       161.9767 
 261   0.0000       6.075149       165.3132 
 262   0.0000       6.075149       165.3132 
 263   0.0000       6.305926       171.5930 
 264   0.0000       6.359398       173.0480 
 265   0.0000       6.359398       173.0480 
 266   0.0000       6.465268       175.9289 
 267   0.0000       6.709410       182.5723 
 268   0.0000       6.709410       182.5723 
 269   0.0000       6.807797       185.2496 
 270   0.0000       6.807797       185.2496 
 271   0.0000       6.832261       185.9153 
 272   0.0000       6.832261       185.9153 
 273   0.0000       6.995398       190.3544 
 274   0.0000       7.028018       191.2421 
 275   0.0000       7.028018       191.2421 
 276   0.0000       7.116018       193.6367 
 277   0.0000       7.116018       193.6367 
 278   0.0000       7.139729       194.2819 
 279   0.0000       7.249751       197.2758 
 280   0.0000       7.249751       197.2758 
 281   0.0000       7.292922       198.4505 
 282   0.0000       7.292922       198.4505 
 283   0.0000       7.755253       211.0311 
 284   0.0000       7.967542       216.8078 
 285   0.0000       7.967542       216.8078 
 286   0.0000       8.122253       221.0177 
 287   0.0000       8.431602       229.4356 
 288   0.0000       8.688320       236.4212 
 289   0.0000       8.688320       236.4212 
 290   0.0000       8.848806       240.7883 
 291   0.0000       8.848806       240.7883 
 292   0.0000       8.903288       242.2708 
 293   0.0000       9.218172       250.8392 
 294   0.0000       9.218172       250.8392 
 295   0.0000       9.795278       266.5431 
 296   0.0000       9.795278       266.5431 
 297   0.0000       9.859878       268.3009 
 298   0.0000      10.194325       277.4017 
 299   0.0000      10.194325       277.4017 
 300   0.0000      10.260571       279.2043 
 301   0.0000      10.260571       279.2043 
 302   0.0000      10.339860       281.3619 
 303   0.0000      10.339860       281.3619 
 304   0.0000      10.370846       282.2051 
 305   0.0000      10.423720       283.6438 
 306   0.0000      10.423720       283.6438 
 307   0.0000      10.428502       283.7740 
 308   0.0000      10.428502       283.7740 
 309   0.0000      10.681353       290.6544 
 310   0.0000      10.681353       290.6544 
 311   0.0000      11.101486       302.0868 
 312   0.0000      11.101486       302.0868 
 313   0.0000      11.171789       303.9998 
 314   0.0000      11.171789       303.9998 
 315   0.0000      11.184773       304.3531 
 316   0.0000      11.336786       308.4896 
 317   0.0000      11.397498       310.1417 
 318   0.0000      11.397498       310.1417 
 319   0.0000      11.404837       310.3414 
 320   0.0000      11.404837       310.3414 
 321   0.0000      11.544758       314.1488 
 322   0.0000      11.544758       314.1488 
 323   0.0000      11.648954       316.9841 
 324   0.0000      11.648954       316.9841 
 325   0.0000      11.774500       320.4004 
 326   0.0000      11.774500       320.4004 
 327   0.0000      11.829248       321.8902 
 328   0.0000      11.829248       321.8902 
 329   0.0000      11.836183       322.0789 
 330   0.0000      11.836183       322.0789 
 331   0.0000      12.006254       326.7068 
 332   0.0000      12.006254       326.7068 
 333   0.0000      12.076920       328.6297 
 334   0.0000      12.076920       328.6297 
 335   0.0000      12.210564       332.2663 
 336   0.0000      12.210564       332.2663 
 337   0.0000      12.259933       333.6097 
 338   0.0000      12.518651       340.6498 
 339   0.0000      12.518651       340.6498 
 340   0.0000      12.520646       340.7041 
 341   0.0000      12.578199       342.2702 
 342   0.0000      12.578199       342.2702 
 343   0.0000      12.634705       343.8078 
 344   0.0000      12.634705       343.8078 
 345   0.0000      12.679633       345.0304 
 346   0.0000      12.679633       345.0304 
 347   0.0000      13.008129       353.9692 
 348   0.0000      13.008129       353.9692 
 349   0.0000      13.279795       361.3616 
 350   0.0000      13.681499       372.2925 
 351   0.0000      13.681499       372.2925 
 352   0.0000      13.892974       378.0470 
 353   0.0000      14.121362       384.2618 
 354   0.0000      14.121362       384.2618 
 355   0.0000      14.133692       384.5973 
 356   0.0000      14.133692       384.5973 
 357   0.0000      14.267968       388.2512 
 358   0.0000      14.267969       388.2512 
 359   0.0000      14.540589       395.6695 
 360   0.0000      14.540589       395.6695 
 361   0.0000      14.544906       395.7870 
 362   0.0000      14.629160       398.0797 
 363   0.0000      14.629160       398.0797 
 364   0.0000      14.908694       405.6862 
 365   0.0000      14.908694       405.6862 
 366   0.0000      15.016626       408.6232 
 367   0.0000      15.016627       408.6232 
 368   0.0000      15.064591       409.9284 
 369   0.0000      15.064591       409.9284 
 370   0.0000      15.074444       410.1965 
 371   0.0000      15.370543       418.2537 
 372   0.0000      15.370543       418.2537 
 373   0.0000      15.857436       431.5028 
 374   0.0000      15.990251       435.1168 
 375   0.0000      15.990251       435.1168 
 376   0.0000      16.090986       437.8580 
 377   0.0000      16.427796       447.0231 
 378   0.0000      16.570133       450.8962 
 379   0.0000      16.570133       450.8963 
 380   0.0000      16.663769       453.4442 
 381   0.0000      16.663769       453.4442 
 382   0.0000      16.957754       461.4439 
 383   0.0000      16.957754       461.4439 
 384   0.0000      17.016041       463.0300 
 385   0.0000      17.707023       481.8326 
 386   0.0000      17.707023       481.8326 
 387   0.0000      18.379956       500.1440 
 388   0.0000      18.379956       500.1440 
 389   0.0000      18.455146       502.1900 
 390   0.0000      18.536686       504.4089 
 391   0.0000      20.002801       544.3039 
 392   0.0000      20.002804       544.3040 
 393   0.0000      20.165000       548.7175 
 394   0.0000      20.165000       548.7175 
 395   0.0000      20.167849       548.7951 
 396   0.0000      20.167849       548.7951 
 397   0.0000      20.642411       561.7086 
 398   0.0000      21.027673       572.1921 
 399   0.0000      21.027674       572.1921 
 400   0.0000      22.329162       607.6074 
 401   0.0000      22.329162       607.6074 
 402   0.0000      22.751222       619.0922 
 403   0.0000      24.159480       657.4129 
 404   0.0000      24.803389       674.9345 
 405   0.0000      26.375600       717.7166 
 406   0.0000      26.375600       717.7166 
 407   0.0000      28.376729       772.1701 
 408   0.0000      30.277396       823.8898 
 409   0.0000      30.277400       823.8899 
 410   0.0000      31.083085       845.8137 
 411   0.0000      31.083085       845.8137 
 412   0.0000      31.915188       868.4564 
 413   0.0000      31.915190       868.4565 
 414   0.0000      32.024853       871.4406 
 415   0.0000      33.143136       901.8706 
 416   0.0000      33.143136       901.8706 
 417   0.0000      35.952867       978.3272 
 418   0.0000      41.776263      1136.7899 
 419   0.0000      41.776263      1136.7899 
 420   0.0000      42.172286      1147.5662 
 421   0.0000      44.880414      1221.2581 
 422   0.0000      47.710619      1298.2719 
 423   0.0000      47.710624      1298.2721 
 424   0.0000      48.137233      1309.8807 
 425   0.0000      48.137233      1309.8807 
 426   0.0000      49.038270      1334.3992 
 427   0.0000      76.882627      2092.0826 
 428   0.0000      91.188094      2481.3542 
 429   0.0000      91.188099      2481.3543 
 430   0.0000      91.717224      2495.7525 
 431   0.0000      91.717224      2495.7525 
 432   0.0000      92.594116      2519.6140 
 433   0.0000     105.384893      2867.6687 
 434   0.0000     202.824193      5519.1269 

                    ********************************
                    * MULLIKEN POPULATION ANALYSIS *
                    ********************************

--------------------------------------------
MULLIKEN ATOMIC CHARGES AND SPIN POPULATIONS
--------------------------------------------
   0 C :    0.198694   -0.000000
   1 F :   -0.270435   -0.000000
   2 N :    0.071741    0.000000
Sum of atomic charges         :   -0.0000000
Sum of atomic spin populations:    0.0000000

-----------------------------------------------------
MULLIKEN REDUCED ORBITAL CHARGES AND SPIN POPULATIONS
-----------------------------------------------------
CHARGE
  0 C s       :     2.983454  s :     2.983454
      pz      :     0.780735  p :     2.610158
      px      :     0.914712
      py      :     0.914712
      dz2     :     0.033117  d :     0.184061
      dxz     :     0.075472
      dyz     :     0.075472
      dx2y2   :     0.000000
      dxy     :    -0.000000
      f0      :     0.008593  f :     0.019739
      f+1     :     0.005573
      f-1     :     0.005573
      f+2     :    -0.000000
      f-2     :    -0.000000
      f+3     :     0.000000
      f-3     :     0.000000
      g0      :     0.000640  g :     0.003833
      g+1     :     0.001596
      g-1     :     0.001596
      g+2     :     0.000000
      g-2     :     0.000000
      g+3     :     0.000000
      g-3     :     0.000000
      g+4     :     0.000000
      g-4     :     0.000000
      h0      :     0.000038  h :     0.000061
      h+1     :     0.000012
      h-1     :     0.000012
      h+2     :    -0.000000
      h-2     :    -0.000000
      h+3     :     0.000000
      h-3     :     0.000000
      h+4     :     0.000000
      h-4     :     0.000000
      h+5     :     0.000000
      h-5     :     0.000000
  1 F s       :     3.955524  s :     3.955524
      pz      :     1.456457  p :     5.253912
      px      :     1.898727
      py      :     1.898728
      dz2     :     0.013952  d :     0.055878
      dxz     :     0.020963
      dyz     :     0.020963
      dx2y2   :     0.000000
      dxy     :    -0.000000
      f0      :     0.000577  f :     0.005420
      f+1     :     0.002421
      f-1     :     0.002421
      f+2     :     0.000000
      f-2     :     0.000000
      f+3     :     0.000000
      f-3     :     0.000000
      g0      :    -0.000107  g :    -0.000227
      g+1     :    -0.000060
      g-1     :    -0.000060
      g+2     :    -0.000000
      g-2     :    -0.000000
      g+3     :    -0.000000
      g-3     :    -0.000000
      g+4     :     0.000000
      g-4     :    -0.000000
      h0      :    -0.000029  h :    -0.000073
      h+1     :    -0.000022
      h-1     :    -0.000022
      h+2     :     0.000000
      h-2     :     0.000000
      h+3     :     0.000000
      h-3     :     0.000000
      h+4     :     0.000000
      h-4     :    -0.000000
      h+5     :     0.000000
      h-5     :     0.000000
  2 N s       :     3.644387  s :     3.644387
      pz      :     1.115228  p :     3.235902
      px      :     1.060337
      py      :     1.060337
      dz2     :     0.006763  d :     0.040665
      dxz     :     0.016951
      dyz     :     0.016951
      dx2y2   :     0.000000
      dxy     :     0.000000
      f0      :     0.000459  f :     0.006176
      f+1     :     0.002859
      f-1     :     0.002859
      f+2     :    -0.000000
      f-2     :    -0.000000
      f+3     :     0.000000
      f-3     :     0.000000
      g0      :     0.000158  g :     0.001101
      g+1     :     0.000472
      g-1     :     0.000472
      g+2     :    -0.000000
      g-2     :    -0.000000
      g+3     :     0.000000
      g-3     :     0.000000
      g+4     :     0.000000
      g-4     :     0.000000
      h0      :     0.000055  h :     0.000029
      h+1     :    -0.000013
      h-1     :    -0.000013
      h+2     :     0.000000
      h-2     :     0.000000
      h+3     :     0.000000
      h-3     :     0.000000
      h+4     :     0.000000
      h-4     :     0.000000
      h+5     :     0.000000
      h-5     :     0.000000

SPIN
  0 C s       :    -0.000000  s :    -0.000000
      pz      :    -0.000000  p :    -0.000000
      px      :     0.000000
      py      :     0.000000
      dz2     :    -0.000000  d :    -0.000000
      dxz     :    -0.000000
      dyz     :     0.000000
      dx2y2   :     0.000000
      dxy     :    -0.000000
      f0      :     0.000000  f :     0.000000
      f+1     :    -0.000000
      f-1     :     0.000000
      f+2     :    -0.000000
      f-2     :    -0.000000
      f+3     :     0.000000
      f-3     :     0.000000
      g0      :     0.000000  g :    -0.000000
      g+1     :    -0.000000
      g-1     :    -0.000000
      g+2     :     0.000000
      g-2     :    -0.000000
      g+3     :    -0.000000
      g-3     :    -0.000000
      g+4     :     0.000000
      g-4     :    -0.000000
      h0      :    -0.000000  h :    -0.000000
      h+1     :     0.000000
      h-1     :    -0.000000
      h+2     :     0.000000
      h-2     :     0.000000
      h+3     :    -0.000000
      h-3     :     0.000000
      h+4     :    -0.000000
      h-4     :    -0.000000
      h+5     :    -0.000000
      h-5     :     0.000000
  1 F s       :    -0.000000  s :    -0.000000
      pz      :    -0.000000  p :    -0.000000
      px      :    -0.000000
      py      :    -0.000000
      dz2     :     0.000000  d :     0.000000
      dxz     :    -0.000000
      dyz     :    -0.000000
      dx2y2   :    -0.000000
      dxy     :    -0.000000
      f0      :     0.000000  f :     0.000000
      f+1     :    -0.000000
      f-1     :    -0.000000
      f+2     :    -0.000000
      f-2     :    -0.000000
      f+3     :     0.000000
      f-3     :    -0.000000
      g0      :     0.000000  g :     0.000000
      g+1     :    -0.000000
      g-1     :    -0.000000
      g+2     :    -0.000000
      g-2     :    -0.000000
      g+3     :    -0.000000
      g-3     :     0.000000
      g+4     :    -0.000000
      g-4     :     0.000000
      h0      :     0.000000  h :     0.000000
      h+1     :    -0.000000
      h-1     :    -0.000000
      h+2     :    -0.000000
      h-2     :    -0.000000
      h+3     :    -0.000000
      h-3     :     0.000000
      h+4     :     0.000000
      h-4     :    -0.000000
      h+5     :    -0.000000
      h-5     :    -0.000000
  2 N s       :     0.000000  s :     0.000000
      pz      :     0.000000  p :     0.000000
      px      :    -0.000000
      py      :     0.000000
      dz2     :     0.000000  d :     0.000000
      dxz     :    -0.000000
      dyz     :     0.000000
      dx2y2   :     0.000000
      dxy     :     0.000000
      f0      :     0.000000  f :    -0.000000
      f+1     :    -0.000000
      f-1     :    -0.000000
      f+2     :    -0.000000
      f-2     :     0.000000
      f+3     :     0.000000
      f-3     :    -0.000000
      g0      :    -0.000000  g :    -0.000000
      g+1     :    -0.000000
      g-1     :    -0.000000
      g+2     :     0.000000
      g-2     :    -0.000000
      g+3     :    -0.000000
      g-3     :     0.000000
      g+4     :     0.000000
      g-4     :     0.000000
      h0      :    -0.000000  h :    -0.000000
      h+1     :    -0.000000
      h-1     :    -0.000000
      h+2     :     0.000000
      h-2     :    -0.000000
      h+3     :     0.000000
      h-3     :     0.000000
      h+4     :     0.000000
      h-4     :     0.000000
      h+5     :     0.000000
      h-5     :    -0.000000


                     *******************************
                     * LOEWDIN POPULATION ANALYSIS *
                     *******************************

-------------------------------------------
LOEWDIN ATOMIC CHARGES AND SPIN POPULATIONS
-------------------------------------------
   0 C :   -0.411618   -0.000000
   1 F :    0.250691   -0.000000
   2 N :    0.160927    0.000000

----------------------------------------------------
LOEWDIN REDUCED ORBITAL CHARGES AND SPIN POPULATIONS
----------------------------------------------------
CHARGE
  0 C s       :     2.603247  s :     2.603247
      pz      :     1.041375  p :     2.456028
      px      :     0.707326
      py      :     0.707326
      dz2     :     0.393687  d :     0.942401
      dxz     :     0.274357
      dyz     :     0.274357
      dx2y2   :     0.000000
      dxy     :     0.000000
      f0      :     0.131649  f :     0.285848
      f+1     :     0.077099
      f-1     :     0.077099
      f+2     :     0.000000
      f-2     :     0.000000
      f+3     :     0.000000
      f-3     :     0.000000
      g0      :     0.027667  g :     0.109917
      g+1     :     0.041125
      g-1     :     0.041125
      g+2     :     0.000000
      g-2     :     0.000000
      g+3     :     0.000000
      g-3     :     0.000000
      g+4     :     0.000000
      g-4     :     0.000000
      h0      :     0.006176  h :     0.014176
      h+1     :     0.004000
      h-1     :     0.004000
      h+2     :     0.000000
      h-2     :     0.000000
      h+3     :     0.000000
      h-3     :     0.000000
      h+4     :     0.000000
      h-4     :     0.000000
      h+5     :     0.000000
      h-5     :     0.000000
  1 F s       :     3.322255  s :     3.322255
      pz      :     1.549184  p :     4.763988
      px      :     1.607402
      py      :     1.607402
      dz2     :     0.110008  d :     0.291916
      dxz     :     0.090954
      dyz     :     0.090954
      dx2y2   :     0.000000
      dxy     :     0.000000
      f0      :     0.061664  f :     0.187776
      f+1     :     0.063056
      f-1     :     0.063056
      f+2     :     0.000000
      f-2     :     0.000000
      f+3     :     0.000000
      f-3     :     0.000000
      g0      :     0.035986  g :     0.114834
      g+1     :     0.039424
      g-1     :     0.039424
      g+2     :     0.000000
      g-2     :     0.000000
      g+3     :     0.000000
      g-3     :     0.000000
      g+4     :     0.000000
      g-4     :     0.000000
      h0      :     0.019372  h :     0.068540
      h+1     :     0.024584
      h-1     :     0.024584
      h+2     :     0.000000
      h-2     :     0.000000
      h+3     :     0.000000
      h-3     :     0.000000
      h+4     :     0.000000
      h-4     :     0.000000
      h+5     :     0.000000
      h-5     :     0.000000
  2 N s       :     3.081278  s :     3.081278
      pz      :     1.377272  p :     3.196746
      px      :     0.909737
      py      :     0.909737
      dz2     :     0.109456  d :     0.235836
      dxz     :     0.063190
      dyz     :     0.063190
      dx2y2   :     0.000000
      dxy     :     0.000000
      f0      :     0.054521  f :     0.139282
      f+1     :     0.042380
      f-1     :     0.042380
      f+2     :     0.000000
      f-2     :     0.000000
      f+3     :     0.000000
      f-3     :     0.000000
      g0      :     0.044630  g :     0.105913
      g+1     :     0.030642
      g-1     :     0.030642
      g+2     :     0.000000
      g-2     :     0.000000
      g+3     :     0.000000
      g-3     :     0.000000
      g+4     :     0.000000
      g-4     :     0.000000
      h0      :     0.030573  h :     0.080018
      h+1     :     0.024723
      h-1     :     0.024723
      h+2     :     0.000000
      h-2     :     0.000000
      h+3     :     0.000000
      h-3     :     0.000000
      h+4     :     0.000000
      h-4     :     0.000000
      h+5     :     0.000000
      h-5     :     0.000000

SPIN
  0 C s       :    -0.000000  s :    -0.000000
      pz      :     0.000000  p :     0.000000
      px      :     0.000000
      py      :     0.000000
      dz2     :     0.000000  d :     0.000000
      dxz     :    -0.000000
      dyz     :    -0.000000
      dx2y2   :     0.000000
      dxy     :    -0.000000
      f0      :    -0.000000  f :    -0.000000
      f+1     :     0.000000
      f-1     :     0.000000
      f+2     :     0.000000
      f-2     :     0.000000
      f+3     :    -0.000000
      f-3     :     0.000000
      g0      :    -0.000000  g :    -0.000000
      g+1     :    -0.000000
      g-1     :     0.000000
      g+2     :     0.000000
      g-2     :    -0.000000
      g+3     :    -0.000000
      g-3     :    -0.000000
      g+4     :     0.000000
      g-4     :    -0.000000
      h0      :    -0.000000  h :    -0.000000
      h+1     :     0.000000
      h-1     :    -0.000000
      h+2     :     0.000000
      h-2     :     0.000000
      h+3     :    -0.000000
      h-3     :     0.000000
      h+4     :    -0.000000
      h-4     :    -0.000000
      h+5     :    -0.000000
      h-5     :     0.000000
  1 F s       :    -0.000000  s :    -0.000000
      pz      :     0.000000  p :     0.000000
      px      :     0.000000
      py      :    -0.000000
      dz2     :     0.000000  d :     0.000000
      dxz     :    -0.000000
      dyz     :    -0.000000
      dx2y2   :    -0.000000
      dxy     :    -0.000000
      f0      :     0.000000  f :     0.000000
      f+1     :     0.000000
      f-1     :     0.000000
      f+2     :    -0.000000
      f-2     :    -0.000000
      f+3     :     0.000000
      f-3     :    -0.000000
      g0      :    -0.000000  g :    -0.000000
      g+1     :     0.000000
      g-1     :    -0.000000
      g+2     :    -0.000000
      g-2     :    -0.000000
      g+3     :    -0.000000
      g-3     :     0.000000
      g+4     :    -0.000000
      g-4     :    -0.000000
      h0      :    -0.000000  h :    -0.000000
      h+1     :    -0.000000
      h-1     :     0.000000
      h+2     :    -0.000000
      h-2     :    -0.000000
      h+3     :     0.000000
      h-3     :     0.000000
      h+4     :     0.000000
      h-4     :    -0.000000
      h+5     :    -0.000000
      h-5     :    -0.000000
  2 N s       :     0.000000  s :     0.000000
      pz      :     0.000000  p :     0.000000
      px      :    -0.000000
      py      :     0.000000
      dz2     :     0.000000  d :     0.000000
      dxz     :    -0.000000
      dyz     :     0.000000
      dx2y2   :     0.000000
      dxy     :    -0.000000
      f0      :    -0.000000  f :    -0.000000
      f+1     :     0.000000
      f-1     :    -0.000000
      f+2     :     0.000000
      f-2     :     0.000000
      f+3     :    -0.000000
      f-3     :    -0.000000
      g0      :    -0.000000  g :    -0.000000
      g+1     :     0.000000
      g-1     :     0.000000
      g+2     :     0.000000
      g-2     :    -0.000000
      g+3     :    -0.000000
      g-3     :     0.000000
      g+4     :     0.000000
      g-4     :    -0.000000
      h0      :    -0.000000  h :    -0.000000
      h+1     :    -0.000000
      h-1     :    -0.000000
      h+2     :     0.000000
      h-2     :    -0.000000
      h+3     :     0.000000
      h-3     :     0.000000
      h+4     :     0.000000
      h-4     :     0.000000
      h+5     :     0.000000
      h-5     :    -0.000000


                      *****************************
                      * MAYER POPULATION ANALYSIS *
                      *****************************

  NA   - Mulliken gross atomic population
  ZA   - Total nuclear charge
  QA   - Mulliken gross atomic charge
  VA   - Mayer's total valence
  BVA  - Mayer's bonded valence
  FA   - Mayer's free valence

  ATOM       NA         ZA         QA         VA         BVA        FA
  0 C      5.8013     6.0000     0.1987     3.9105     3.9105    -0.0000
  1 F      9.2704     9.0000    -0.2704     1.2918     1.2918     0.0000
  2 N      6.9283     7.0000     0.0717     3.0366     3.0366    -0.0000

  Mayer bond orders larger than 0.1
B(  0-C ,  1-F ) :   1.0829 B(  0-C ,  2-N ) :   2.8276 B(  1-F ,  2-N ) :   0.2089 


-------
TIMINGS
-------

Total SCF time: 0 days 1 hours 45 min 25 sec 

Total time                  ....    6325.365 sec
Sum of individual times     ....    6323.938 sec  (100.0%)

Fock matrix formation       ....    6311.859 sec  ( 99.8%)
  XC integration            ....     161.331 sec  (  2.6% of F)
    Basis function eval.    ....      10.442 sec  (  6.5% of XC)
    Density eval.           ....      35.223 sec  ( 21.8% of XC)
    XC-Functional eval.     ....       1.237 sec  (  0.8% of XC)
    XC-Potential eval.      ....     113.557 sec  ( 70.4% of XC)
Diagonalization             ....       1.995 sec  (  0.0%)
Density matrix formation    ....       0.042 sec  (  0.0%)
Population analysis         ....       0.190 sec  (  0.0%)
Initial guess               ....       6.252 sec  (  0.1%)
Orbital Transformation      ....       0.000 sec  (  0.0%)
Orbital Orthonormalization  ....       0.000 sec  (  0.0%)
DIIS solution               ....       0.874 sec  (  0.0%)
Grid generation             ....       2.727 sec  (  0.0%)

-------------------------   --------------------
FINAL SINGLE POINT ENERGY      -192.536671956997
-------------------------   --------------------


                            ***************************************
                            *     ORCA property calculations      *
                            ***************************************

                                    ---------------------
                                    Active property flags
                                    ---------------------
   (+) Dipole Moment
   (+) Polarizability


------------------------------------------------------------------------------
                       ORCA ELECTRIC PROPERTIES CALCULATION
------------------------------------------------------------------------------

Dipole Moment Calculation                       ... on
Quadrupole Moment Calculation                   ... off
Polarizability Calculation                      ... Analytic (CP-SCF)
GBWName                                         ... fcn_pbe.gbw
Electron density file                           ... fcn_pbe.scfp.tmp
The origin for moment calculation is the CENTER OF MASS  = ( 0.000000,  0.000000 -0.324975)

-------------
DIPOLE MOMENT
-------------
                                X             Y             Z
Electronic contribution:     -0.00000      -0.00000      -1.93115
Nuclear contribution   :      0.00000       0.00000       1.01728
                        -----------------------------------------
Total Dipole Moment    :     -0.00000      -0.00000      -0.91387
                        -----------------------------------------
Magnitude (a.u.)       :      0.91387
Magnitude (Debye)      :      2.32288



--------------------
Rotational spectrum 
--------------------
 
Rotational constants in cm-1:     0.000000     0.353105     0.353105 
Rotational constants in MHz :     0.000000 10585.833831 10585.833831 

 Dipole components along the rotational axes: 
x,y,z [a.u.] :    -0.913874    -0.000000    -0.000000 
x,y,z [Debye]:    -2.322884    -0.000000    -0.000000 

 
Transforming and storing MO dipole integrals   ... done

                ... starting polarizability calculation

Opening the Dipole integral file               ... (fcn_pbe.dmo.tmp) done
Reading Dipole-MO integrals                    ... done
Solving CP-SCF equations                       ... 
------------------------------------------------------------------------------
                           ORCA CP-SCF CALCULATION
------------------------------------------------------------------------------

Input orbitals are from        ... fcn_pbe.gbw
Input Perturbation             ... fcn_pbe.cpv.tmp
Wavefunction output            ... fcn_pbe.cpu.tmp
Perturbation mode              ... Real perturbation (singlet)
Solver                         ... POPLE
Max. number of iterations      ... 200
Convergence tolerance          ... 1.000e-06
Integral handling              ... Direct
Number of perturbations        ... 3
Number of operators            ... 2
Orbital ranges used for CP-SCF:
 Operator 0:  Orbitals   0... 10  to  11...434
 Operator 1:  Orbitals   0... 10  to  11...434
DFT calculation                         ... on
Exchange functional (SCF)               ... PBE
Exchange functional (CP-SCF)            ... PBE
   PBE kappa parameter  XKappa (SCF)    ...  0.804000
   PBE kappa parameter  XKappa (CP-SCF) ...  0.804000
   PBE mue parameter   XMuePBE (SCF)    ...  0.219520
   PBE mue parameter   XMuePBE (CP-SCF) ...  0.219520
Correlation functional (SCF)            ... PBE
Correlation functional (CP-SCF)         ... PBE
   PBE beta parameter CBetaPBE (SCF)    ...  0.066725
   PBE beta parameter CBetaPBE (CP-SCF) ...  0.066725
 LDA part of GGA corr.  LDAOpt (SCF)    ... PW91-LDA
 LDA part of GGA corr.  LDAOpt (CP-SCF) ... PW91-LDA
Variables per vector in CP-SCF ... 9328
Number of vectors sought       ... 3
Recalculating density on grid  ... done
Calculating the xc-kernel      ... done
     CP-SCF ITERATION   0: 
     CP-SCF ITERATION   1:      0.345116567745
     CP-SCF ITERATION   2:      0.026289819817
     CP-SCF ITERATION   3:      0.000979545431
     CP-SCF ITERATION   4:      0.000036388638
     CP-SCF ITERATION   5:      0.000000526354
done
Reading CP-SCF coefficients                    ... done
Doing the polarizability tensor   ... done
Cleaning up                                    ... done

-------------------------
THE POLARIZABILITY TENSOR
-------------------------

The raw cartesian tensor (atomic units):
   15.50332     -0.00000      0.00000  
   -0.00000     15.50332     -0.00000  
    0.00000     -0.00000     26.75444  
diagonalized tensor: 
   15.50332     15.50332     26.75444  

    0.98615      0.16583      0.00000  
    0.16583     -0.98615     -0.00000  
   -0.00000     -0.00000      1.00000  

Isotropic polarizability :  19.25369


Timings for individual modules:

Sum of individual times         ...    10493.675 sec (= 174.895 min)
GTO integral calculation        ...        1.865 sec (=   0.031 min)   0.0 %
SCF iterations                  ...     6325.383 sec (= 105.423 min)  60.3 %
Solution of CP-SCF eqns.        ...     4166.427 sec (=  69.440 min)  39.7 %
                             ****ORCA TERMINATED NORMALLY****
TOTAL RUN TIME: 0 days 2 hours 54 minutes 54 seconds 229 msec
