
                                 *****************
                                 * O   R   C   A *
                                 *****************

           --- An Ab Initio, DFT and Semiempirical electronic structure package ---

                  #######################################################
                  #                        -***-                        #
                  #          Department of theory and spectroscopy      #
                  #               Directorship: Frank Neese             #
                  #        Max Planck Institute fuer Kohlenforschung    #
                  #                Kaiser Wilhelm Platz 1               #
                  #                 D-45470 Muelheim/Ruhr               #
                  #                      Germany                        #
                  #                                                     #
                  #                  All rights reserved                #
                  #                        -***-                        #
                  #######################################################


                         Program Version 4.1.2  - RELEASE  -


 With contributions from (in alphabetic order):
   Daniel Aravena         : Magnetic Properties
   Michael Atanasov       : Ab Initio Ligand Field Theory
   Alexander A. Auer      : GIAO ZORA
   Ute Becker             : Parallelization
   Giovanni Bistoni       : ED, Open-shell LED
   Martin Brehm           : Molecular dynamics
   Dmytro Bykov           : SCF Hessian
   Vijay G. Chilkuri      : MRCI spin determinant printing
   Dipayan Datta          : RHF DLPNO-CCSD density
   Achintya Kumar Dutta   : EOM-CC, STEOM-CC
   Dmitry Ganyushin       : Spin-Orbit,Spin-Spin,Magnetic field MRCI
   Miquel Garcia          : C-PCM Hessian
   Yang Guo               : DLPNO-NEVPT2, CIM, IAO-localization
   Andreas Hansen         : Spin unrestricted coupled pair/coupled cluster methods
   Benjamin Helmich-Paris : CASSCF linear response (MC-RPA)
   Lee Huntington         : MR-EOM, pCC
   Robert Izsak           : Overlap fitted RIJCOSX, COSX-SCS-MP3, EOM
   Christian Kollmar      : KDIIS, OOCD, Brueckner-CCSD(T), CCSD density
   Simone Kossmann        : Meta GGA functionals, TD-DFT gradient, OOMP2, MP2 Hessian
   Martin Krupicka        : AUTO-CI
   Lucas Lang             : DCDCAS
   Dagmar Lenk            : GEPOL surface, SMD
   Dimitrios Liakos       : Extrapolation schemes; parallel MDCI
   Dimitrios Manganas     : ROCIS; embedding schemes
   Dimitrios Pantazis     : SARC Basis sets
   Taras Petrenko         : DFT Hessian,TD-DFT gradient, ASA, ECA, R-Raman, ABS, FL, XAS/XES, NRVS
   Peter Pinski           : DLPNO-MP2, DLPNO-MP2 Gradient
   Christoph Reimann      : Effective Core Potentials
   Marius Retegan         : Local ZFS, SOC
   Christoph Riplinger    : Optimizer, TS searches, QM/MM, DLPNO-CCSD(T), (RO)-DLPNO pert. Triples
   Tobias Risthaus        : Range-separated hybrids, TD-DFT gradient, RPA, STAB
   Michael Roemelt        : Restricted open shell CIS
   Masaaki Saitow         : Open-shell DLPNO
   Barbara Sandhoefer     : DKH picture change effects
   Avijit Sen             : IP-ROCIS
   Kantharuban Sivalingam : CASSCF convergence, NEVPT2, FIC-MRCI
   Bernardo de Souza      : ESD, SOC TD-DFT
   Georgi Stoychev        : AutoAux, RI-MP2 NMR
   Willem Van den Heuvel  : Paramagnetic NMR
   Boris Wezisla          : Elementary symmetry handling
   Frank Wennmohs         : Technical directorship


 We gratefully acknowledge several colleagues who have allowed us to
 interface, adapt or use parts of their codes:
   Stefan Grimme, W. Hujo, H. Kruse,             : VdW corrections, initial TS optimization,
                  C. Bannwarth                     DFT functionals, gCP, sTDA/sTD-DF
   Ed Valeev                                     : LibInt (2-el integral package), F12 methods
   Garnet Chan, S. Sharma, J. Yang, R. Olivares  : DMRG
   Ulf Ekstrom                                   : XCFun DFT Library
   Mihaly Kallay                                 : mrcc  (arbitrary order and MRCC methods)
   Andreas Klamt, Michael Diedenhofen            : otool_cosmo (COSMO solvation model)
   Jiri Pittner, Ondrej Demel                    : Mk-CCSD
   Frank Weinhold                                : gennbo (NPA and NBO analysis)
   Christopher J. Cramer and Donald G. Truhlar   : smd solvation model
   Lars Goerigk                                  : TD-DFT with DH, B97 family of functionals
   V. Asgeirsson, H. Jonsson                     : NEB implementation
   FAccTs GmbH                                   : IRC, NEB, NEB-TS, Multilevel


 Your calculation uses the libint2 library for the computation of 2-el integrals
 For citations please refer to: http://libint.valeyev.net

 This ORCA versions uses:
   CBLAS   interface :  Fast vector & matrix operations
   LAPACKE interface :  Fast linear algebra routines
   SCALAPACK package :  Parallel linear algebra routines


----- Orbital basis set information -----
Your calculation utilizes the basis: aug-pc-4
   H, C-F              : F. Jensen, J. Chem. Phys. 115, 9113 (2001).
                         F. Jensen, J. Chem. Phys. 116, 7372 (2002).
                         F. Jensen, J. Chem. Phys. 117, 9234 (2002).
   Si-Cl               : F. Jensen, T. Helgaker, J. Chem. Phys. 121, 3463 (2004).
   He-B, Ne-Mg, Al, Ar : F. Jensen, J. Phys. Chem. A 111, 11198 (2007).
   K, Ca, Ga-Kr        : F. Jensen, J. Chem. Phys. 136, 094110 (2012).
   Sc-Zn               : F. Jensen, J. Chem. Phys. 138, 014107 (2013).

================================================================================
                                        WARNINGS
                       Please study these warnings very carefully!
================================================================================


INFO   : the flag for use of LIBINT has been found!

================================================================================
                                       INPUT FILE
================================================================================
NAME = fco_pbe.inp
|  1> !uks pbe nori aug-pc-4 grid7 nofinalgrid verytightscf
|  2> 
|  3> %maxcore 1500
|  4> 
|  5> %pal nprocs 1 end
|  6> 
|  7> %scf
|  8> 	maxiter 200
|  9> end
| 10> %elprop
| 11> 	dipole true
| 12> 	 polar 1
| 13> 	 maxiter 200
| 14> end
| 15> 
| 16> * xyz 0 2
| 17> F -1.0211 -0.4211 0.0000
| 18> C 0.0000 0.4249 0.0000
| 19> O 1.1487 0.1550 0.0000
| 20> *
| 21> 
| 22>                          ****END OF INPUT****
================================================================================

                       ****************************
                       * Single Point Calculation *
                       ****************************

---------------------------------
CARTESIAN COORDINATES (ANGSTROEM)
---------------------------------
  F     -1.021100   -0.421100    0.000000
  C      0.000000    0.424900    0.000000
  O      1.148700    0.155000    0.000000

----------------------------
CARTESIAN COORDINATES (A.U.)
----------------------------
  NO LB      ZA    FRAG     MASS         X           Y           Z
   0 F     9.0000    0    18.998   -1.929599   -0.795764    0.000000
   1 C     6.0000    0    12.011    0.000000    0.802945    0.000000
   2 O     8.0000    0    15.999    2.170728    0.292908    0.000000

--------------------------------
INTERNAL COORDINATES (ANGSTROEM)
--------------------------------
 F      0   0   0     0.000000000000     0.00000000     0.00000000
 C      1   0   0     1.326032130078     0.00000000     0.00000000
 O      2   1   0     1.179982076135   127.13518348     0.00000000

---------------------------
INTERNAL COORDINATES (A.U.)
---------------------------
 F      0   0   0     0.000000000000     0.00000000     0.00000000
 C      1   0   0     2.505837570628     0.00000000     0.00000000
 O      2   1   0     2.229842966831   127.13518348     0.00000000

---------------------
BASIS SET INFORMATION
---------------------
There are 3 groups of distinct atoms

 Group   1 Type F   : 27s12p7d4f3g2h contracted to 9s8p7d4f3g2h pattern {1191111111/51111111/1111111/1111/111/11}
 Group   2 Type C   : 28s12p7d4f3g2h contracted to 9s8p7d4f3g2h pattern {11101111111/51111111/1111111/1111/111/11}
 Group   3 Type O   : 27s12p7d4f3g2h contracted to 9s8p7d4f3g2h pattern {1191111111/51111111/1111111/1111/111/11}

Atom   0F    basis set group =>   1
Atom   1C    basis set group =>   2
Atom   2O    basis set group =>   3
------------------------------------------------------------------------------
                           ORCA GTO INTEGRAL CALCULATION
------------------------------------------------------------------------------

                         BASIS SET STATISTICS AND STARTUP INFO

 # of primitive gaussian shells          ...  166
 # of primitive gaussian functions       ...  526
 # of contracted shells                  ...   99
 # of contracted basis functions         ...  435
 Highest angular momentum                ...    5
 Maximum contraction depth               ...   11
 Integral package used                   ... LIBINT
 Integral threshhold            Thresh   ...  1.000e-12
 Primitive cut-off              TCut     ...  1.000e-14


------------------------------ INTEGRAL EVALUATION ----------------------------


 * One electron integrals 
 Pre-screening matrix                    ... done
 Shell pair data                         ... done (   0.002 sec)

-------------------------------------------------------------------------------
                                 ORCA SCF
-------------------------------------------------------------------------------

------------
SCF SETTINGS
------------
Hamiltonian:
 Density Functional     Method          .... DFT(GTOs)
 Exchange Functional    Exchange        .... PBE
   PBE kappa parameter   XKappa         ....  0.804000
   PBE mue parameter    XMuePBE         ....  0.219520
 Correlation Functional Correlation     .... PBE
   PBE beta parameter  CBetaPBE         ....  0.066725
 LDA part of GGA corr.  LDAOpt          .... PW91-LDA
 Gradients option       PostSCFGGA      .... off
   Density functional embedding theory  .... OFF
   NL short-range parameter             ....  6.400000


General Settings:
 Integral files         IntName         .... fco_pbe
 Hartree-Fock type      HFTyp           .... UHF
 Total Charge           Charge          ....    0
 Multiplicity           Mult            ....    2
 Number of Electrons    NEL             ....   23
 Basis Dimension        Dim             ....  435
 Nuclear Repulsion      ENuc            ....     60.0474165731 Eh

Convergence Acceleration:
 DIIS                   CNVDIIS         .... on
   Start iteration      DIISMaxIt       ....    12
   Startup error        DIISStart       ....  0.200000
   # of expansion vecs  DIISMaxEq       ....     5
   Bias factor          DIISBfac        ....   1.050
   Max. coefficient     DIISMaxC        ....  10.000
 Newton-Raphson         CNVNR           .... off
 SOSCF                  CNVSOSCF        .... off
 Level Shifting         CNVShift        .... on
   Level shift para.    LevelShift      ....    0.2500
   Turn off err/grad.   ShiftErr        ....    0.0010
 Zerner damping         CNVZerner       .... off
 Static damping         CNVDamp         .... on
   Fraction old density DampFac         ....    0.7000
   Max. Damping (<1)    DampMax         ....    0.9800
   Min. Damping (>=0)   DampMin         ....    0.0000
   Turn off err/grad.   DampErr         ....    0.1000
 Fernandez-Rico         CNVRico         .... off

SCF Procedure:
 Maximum # iterations   MaxIter         ....   200
 SCF integral mode      SCFMode         .... Direct
   Integral package                     .... LIBINT
 Reset frequency        DirectResetFreq ....    20
 Integral Threshold     Thresh          ....  1.000e-12 Eh
 Primitive CutOff       TCut            ....  1.000e-14 Eh

Convergence Tolerance:
 Convergence Check Mode ConvCheckMode   .... Total+1el-Energy
 Convergence forced     ConvForced      .... 0
 Energy Change          TolE            ....  1.000e-09 Eh
 1-El. energy change                    ....  1.000e-06 Eh
 DIIS Error             TolErr          ....  1.000e-08


Diagonalization of the overlap matrix:
Smallest eigenvalue                        ... 6.558e-07
Time for diagonalization                   ...    0.043 sec
Threshold for overlap eigenvalues          ... 1.000e-08
Number of eigenvalues below threshold      ... 0
Time for construction of square roots      ...    0.026 sec
Total time needed                          ...    0.070 sec

-------------------
DFT GRID GENERATION
-------------------

General Integration Accuracy     IntAcc      ...  5.670
Radial Grid Type                 RadialGrid  ... Gauss-Chebyshev
Angular Grid (max. acc.)         AngularGrid ... Lebedev-770
Angular grid pruning method      GridPruning ... 3 (G Style)
Weight generation scheme         WeightScheme... Becke
Basis function cutoff            BFCut       ...    1.0000e-12
Integration weight cutoff        WCut        ...    1.0000e-14
Grids for H and He will be reduced by one unit

# of grid points (after initial pruning)     ...  75534 (   0.0 sec)
# of grid points (after weights+screening)   ...  74833 (   0.0 sec)
nearest neighbour list constructed           ...    0.0 sec
Grid point re-assignment to atoms done       ...    0.0 sec
Grid point division into batches done        ...    1.8 sec
Reduced shell lists constructed in    2.8 sec

Total number of grid points                  ...    74833
Total number of batches                      ...     1170
Average number of points per batch           ...       63
Average number of grid points per atom       ...    24944
Average number of shells per batch           ...    70.04 (70.74%)
Average number of basis functions per batch  ...   319.94 (73.55%)
Average number of large shells per batch     ...    62.05 (88.59%)
Average number of large basis fcns per batch ...   284.40 (88.89%)
Maximum spatial batch extension              ...  19.60, 26.14, 40.07 au
Average spatial batch extension              ...   2.24,  2.42,  2.48 au

Time for grid setup =    2.895 sec

------------------------------
INITIAL GUESS: MODEL POTENTIAL
------------------------------
Loading Hartree-Fock densities                     ... done
Calculating cut-offs                               ... done
Setting up the integral package                    ... done
Initializing the effective Hamiltonian             ... done
Starting the Coulomb interaction                   ... done (   0.2 sec)
Reading the grid                                   ... done
Mapping shells                                     ... done
Starting the XC term evaluation                    ... done (   6.2 sec)
  promolecular density results
     # of electrons  =     22.999999439
     EX              =    -23.200237579
     EC              =     -0.771526764
     EX+EC           =    -23.971764344
Transforming the Hamiltonian                       ... done (   0.0 sec)
Diagonalizing the Hamiltonian                      ... done (   0.0 sec)
Back transforming the eigenvectors                 ... done (   0.0 sec)
Now organizing SCF variables                       ... done
                      ------------------
                      INITIAL GUESS DONE (   9.5 sec)
                      ------------------
--------------
SCF ITERATIONS
--------------
ITER       Energy         Delta-E        Max-DP      RMS-DP      [F,P]     Damp
               ***  Starting incremental Fock matrix formation  ***
  0   -212.9082442957   0.000000000000 0.01769445  0.00017324  0.2732957 0.7000
  1   -212.9595716677  -0.051327372002 0.01120085  0.00009118  0.0418456 0.7000
                               ***Turning on DIIS***
  2   -212.9659548704  -0.006383202706 0.02205057  0.00016137  0.0492544 0.0000
  3   -212.9999494623  -0.033994591917 0.00432572  0.00003772  0.0353501 0.0000
  4   -213.0013929190  -0.001443456629 0.00142632  0.00001484  0.0195033 0.0000
  5   -213.0019082752  -0.000515356219 0.00092742  0.00001074  0.0096548 0.0000
  6   -213.0020321929  -0.000123917714 0.00102135  0.00000641  0.0023401 0.0000
  7   -213.0020435417  -0.000011348827 0.00053117  0.00000294  0.0011862 0.0000
  8   -213.0020468635  -0.000003321764 0.00022022  0.00000196  0.0004217 0.0000
  9   -213.0020481247  -0.000001261193 0.00009671  0.00000062  0.0002598 0.0000
 10   -213.0020482525  -0.000000127766 0.00002045  0.00000017  0.0000253 0.0000
 11   -213.0020482608  -0.000000008357 0.00000598  0.00000005  0.0000235 0.0000
 12   -213.0020482620  -0.000000001209 0.00001058  0.00000008  0.0000059 0.0000
 13   -213.0020482624  -0.000000000356 0.00001948  0.00000011  0.0000057 0.0000
 14   -213.0020482625  -0.000000000101 0.00003170  0.00000024  0.0000010 0.0000
 15   -213.0020482625  -0.000000000035 0.00003996  0.00000027  0.0000003 0.0000
 16   -213.0020482625  -0.000000000004 0.00004098  0.00000029  0.0000003 0.0000
                 **** Energy Check signals convergence ****

               *****************************************************
               *                     SUCCESS                       *
               *           SCF CONVERGED AFTER  17 CYCLES          *
               *****************************************************


----------------
TOTAL SCF ENERGY
----------------

Total Energy       :         -213.00204826 Eh           -5796.08040 eV

Components:
Nuclear Repulsion  :           60.04741657 Eh            1633.97327 eV
Electronic Energy  :         -273.04946484 Eh           -7430.05367 eV
One Electron Energy:         -412.13649889 Eh          -11214.80428 eV
Two Electron Energy:          139.08703405 Eh            3784.75061 eV

Virial components:
Potential Energy   :         -425.36938568 Eh          -11574.88944 eV
Kinetic Energy     :          212.36733742 Eh            5778.80904 eV
Virial Ratio       :            2.00298874


DFT components:
N(Alpha)           :       11.999999607036 electrons
N(Beta)            :       10.999999595352 electrons
N(Total)           :       22.999999202388 electrons
E(X)               :      -23.383458559886 Eh       
E(C)               :       -0.769523262895 Eh       
E(XC)              :      -24.152981822781 Eh       
DFET-embed. en.    :        0.000000000000 Eh       

---------------
SCF CONVERGENCE
---------------

  Last Energy change         ...   -9.5213e-12  Tolerance :   1.0000e-09
  Last MAX-Density change    ...    2.8838e-05  Tolerance :   1.0000e-08
  Last RMS-Density change    ...    2.2570e-07  Tolerance :   1.0000e-09
  Last DIIS Error            ...    4.2772e-08  Tolerance :   1.0000e-08

             **** THE GBW FILE WAS UPDATED (fco_pbe.gbw) ****
             **** DENSITY FILE WAS UPDATED (fco_pbe.scfp.tmp) ****
             **** ENERGY FILE WAS UPDATED (fco_pbe.en.tmp) ****
----------------------
UHF SPIN CONTAMINATION
----------------------

Warning: in a DFT calculation there is little theoretical justification to 
         calculate <S**2> as in Hartree-Fock theory. We will do it anyways
         but you should keep in mind that the values have only limited relevance

Expectation value of <S**2>     :     0.752830
Ideal value S*(S+1) for S=0.5   :     0.750000
Deviation                       :     0.002830

----------------
ORBITAL ENERGIES
----------------
                 SPIN UP ORBITALS
  NO   OCC          E(Eh)            E(eV) 
   0   1.0000     -24.340911      -662.3499 
   1   1.0000     -18.830131      -512.3939 
   2   1.0000     -10.074633      -274.1447 
   3   1.0000      -1.202571       -32.7236 
   4   1.0000      -1.037650       -28.2359 
   5   1.0000      -0.610021       -16.5995 
   6   1.0000      -0.485629       -13.2146 
   7   1.0000      -0.484754       -13.1908 
   8   1.0000      -0.482819       -13.1382 
   9   1.0000      -0.381727       -10.3873 
  10   1.0000      -0.369276       -10.0485 
  11   1.0000      -0.242072        -6.5871 
  12   0.0000      -0.091907        -2.5009 
  13   0.0000      -0.007695        -0.2094 
  14   0.0000       0.011634         0.3166 
  15   0.0000       0.014441         0.3930 
  16   0.0000       0.014492         0.3943 
  17   0.0000       0.050649         1.3782 
  18   0.0000       0.052244         1.4216 
  19   0.0000       0.055611         1.5133 
  20   0.0000       0.059504         1.6192 
  21   0.0000       0.061965         1.6861 
  22   0.0000       0.062133         1.6907 
  23   0.0000       0.072522         1.9734 
  24   0.0000       0.080792         2.1985 
  25   0.0000       0.082419         2.2427 
  26   0.0000       0.102732         2.7955 
  27   0.0000       0.115873         3.1531 
  28   0.0000       0.123664         3.3651 
  29   0.0000       0.132455         3.6043 
  30   0.0000       0.136181         3.7057 
  31   0.0000       0.140185         3.8146 
  32   0.0000       0.150209         4.0874 
  33   0.0000       0.177300         4.8246 
  34   0.0000       0.180277         4.9056 
  35   0.0000       0.183149         4.9837 
  36   0.0000       0.192621         5.2415 
  37   0.0000       0.194045         5.2802 
  38   0.0000       0.204354         5.5608 
  39   0.0000       0.212156         5.7731 
  40   0.0000       0.224418         6.1067 
  41   0.0000       0.230468         6.2713 
  42   0.0000       0.238781         6.4976 
  43   0.0000       0.242643         6.6027 
  44   0.0000       0.244823         6.6620 
  45   0.0000       0.248886         6.7725 
  46   0.0000       0.252575         6.8729 
  47   0.0000       0.258704         7.0397 
  48   0.0000       0.264550         7.1988 
  49   0.0000       0.292923         7.9708 
  50   0.0000       0.294303         8.0084 
  51   0.0000       0.298321         8.1177 
  52   0.0000       0.307048         8.3552 
  53   0.0000       0.312268         8.4973 
  54   0.0000       0.329560         8.9678 
  55   0.0000       0.331580         9.0227 
  56   0.0000       0.336761         9.1637 
  57   0.0000       0.337706         9.1894 
  58   0.0000       0.369752        10.0615 
  59   0.0000       0.385750        10.4968 
  60   0.0000       0.399115        10.8605 
  61   0.0000       0.402018        10.9395 
  62   0.0000       0.402144        10.9429 
  63   0.0000       0.413091        11.2408 
  64   0.0000       0.421589        11.4720 
  65   0.0000       0.430309        11.7093 
  66   0.0000       0.433986        11.8094 
  67   0.0000       0.440589        11.9890 
  68   0.0000       0.442590        12.0435 
  69   0.0000       0.460972        12.5437 
  70   0.0000       0.470776        12.8105 
  71   0.0000       0.477921        13.0049 
  72   0.0000       0.486322        13.2335 
  73   0.0000       0.497818        13.5463 
  74   0.0000       0.500428        13.6173 
  75   0.0000       0.508064        13.8251 
  76   0.0000       0.510845        13.9008 
  77   0.0000       0.525270        14.2933 
  78   0.0000       0.526734        14.3332 
  79   0.0000       0.534562        14.5462 
  80   0.0000       0.539807        14.6889 
  81   0.0000       0.542586        14.7645 
  82   0.0000       0.544355        14.8127 
  83   0.0000       0.550188        14.9714 
  84   0.0000       0.552955        15.0467 
  85   0.0000       0.573777        15.6133 
  86   0.0000       0.583378        15.8745 
  87   0.0000       0.594110        16.1666 
  88   0.0000       0.600249        16.3336 
  89   0.0000       0.611779        16.6473 
  90   0.0000       0.615458        16.7475 
  91   0.0000       0.625057        17.0087 
  92   0.0000       0.628429        17.1004 
  93   0.0000       0.644054        17.5256 
  94   0.0000       0.664832        18.0910 
  95   0.0000       0.669896        18.2288 
  96   0.0000       0.676311        18.4034 
  97   0.0000       0.692782        18.8515 
  98   0.0000       0.711334        19.3564 
  99   0.0000       0.714999        19.4561 
 100   0.0000       0.727981        19.8094 
 101   0.0000       0.743718        20.2376 
 102   0.0000       0.749874        20.4051 
 103   0.0000       0.769867        20.9491 
 104   0.0000       0.778896        21.1948 
 105   0.0000       0.782675        21.2977 
 106   0.0000       0.813166        22.1274 
 107   0.0000       0.817329        22.2406 
 108   0.0000       0.833518        22.6812 
 109   0.0000       0.852973        23.2106 
 110   0.0000       0.874174        23.7875 
 111   0.0000       0.877203        23.8699 
 112   0.0000       0.882627        24.0175 
 113   0.0000       0.885401        24.0930 
 114   0.0000       0.898721        24.4554 
 115   0.0000       0.904427        24.6107 
 116   0.0000       0.919777        25.0284 
 117   0.0000       0.922610        25.1055 
 118   0.0000       0.935018        25.4431 
 119   0.0000       0.946146        25.7459 
 120   0.0000       0.950293        25.8588 
 121   0.0000       0.976464        26.5709 
 122   0.0000       0.983487        26.7620 
 123   0.0000       0.993079        27.0230 
 124   0.0000       1.002118        27.2690 
 125   0.0000       1.015014        27.6199 
 126   0.0000       1.016087        27.6491 
 127   0.0000       1.024772        27.8855 
 128   0.0000       1.026664        27.9370 
 129   0.0000       1.046900        28.4876 
 130   0.0000       1.057544        28.7772 
 131   0.0000       1.058462        28.8022 
 132   0.0000       1.071362        29.1532 
 133   0.0000       1.087155        29.5830 
 134   0.0000       1.096158        29.8280 
 135   0.0000       1.110011        30.2049 
 136   0.0000       1.129800        30.7434 
 137   0.0000       1.131088        30.7785 
 138   0.0000       1.150264        31.3003 
 139   0.0000       1.151422        31.3318 
 140   0.0000       1.169308        31.8185 
 141   0.0000       1.169935        31.8356 
 142   0.0000       1.189955        32.3803 
 143   0.0000       1.201023        32.6815 
 144   0.0000       1.229644        33.4603 
 145   0.0000       1.231365        33.5072 
 146   0.0000       1.278955        34.8021 
 147   0.0000       1.284663        34.9575 
 148   0.0000       1.301556        35.4171 
 149   0.0000       1.314079        35.7579 
 150   0.0000       1.322252        35.9803 
 151   0.0000       1.330197        36.1965 
 152   0.0000       1.344918        36.5971 
 153   0.0000       1.351396        36.7734 
 154   0.0000       1.365425        37.1551 
 155   0.0000       1.370360        37.2894 
 156   0.0000       1.379628        37.5416 
 157   0.0000       1.402767        38.1712 
 158   0.0000       1.441261        39.2187 
 159   0.0000       1.474547        40.1245 
 160   0.0000       1.493715        40.6460 
 161   0.0000       1.522292        41.4237 
 162   0.0000       1.528691        41.5978 
 163   0.0000       1.529953        41.6321 
 164   0.0000       1.542482        41.9731 
 165   0.0000       1.574433        42.8425 
 166   0.0000       1.609194        43.7884 
 167   0.0000       1.672761        45.5181 
 168   0.0000       1.768938        48.1352 
 169   0.0000       1.786198        48.6049 
 170   0.0000       1.808110        49.2012 
 171   0.0000       1.840371        50.0790 
 172   0.0000       1.890225        51.4356 
 173   0.0000       1.907542        51.9069 
 174   0.0000       1.918033        52.1923 
 175   0.0000       1.973488        53.7013 
 176   0.0000       1.978135        53.8278 
 177   0.0000       2.001713        54.4694 
 178   0.0000       2.025691        55.1218 
 179   0.0000       2.091064        56.9008 
 180   0.0000       2.108941        57.3872 
 181   0.0000       2.119450        57.6732 
 182   0.0000       2.155240        58.6471 
 183   0.0000       2.163534        58.8728 
 184   0.0000       2.231715        60.7281 
 185   0.0000       2.243511        61.0490 
 186   0.0000       2.273666        61.8696 
 187   0.0000       2.299590        62.5750 
 188   0.0000       2.328107        63.3510 
 189   0.0000       2.361418        64.2575 
 190   0.0000       2.404125        65.4196 
 191   0.0000       2.416724        65.7624 
 192   0.0000       2.452767        66.7432 
 193   0.0000       2.478747        67.4501 
 194   0.0000       2.480408        67.4953 
 195   0.0000       2.515032        68.4375 
 196   0.0000       2.546242        69.2868 
 197   0.0000       2.572702        70.0068 
 198   0.0000       2.581633        70.2498 
 199   0.0000       2.589705        70.4695 
 200   0.0000       2.634680        71.6933 
 201   0.0000       2.662197        72.4421 
 202   0.0000       2.742401        74.6245 
 203   0.0000       2.819489        76.7222 
 204   0.0000       2.819682        76.7274 
 205   0.0000       2.981054        81.1186 
 206   0.0000       3.003634        81.7330 
 207   0.0000       3.049592        82.9836 
 208   0.0000       3.185139        86.6720 
 209   0.0000       3.311175        90.1017 
 210   0.0000       3.333576        90.7112 
 211   0.0000       3.352945        91.2383 
 212   0.0000       3.428669        93.2988 
 213   0.0000       3.462310        94.2143 
 214   0.0000       3.563219        96.9601 
 215   0.0000       3.776737       102.7702 
 216   0.0000       3.998455       108.8035 
 217   0.0000       4.015571       109.2692 
 218   0.0000       4.043238       110.0221 
 219   0.0000       4.089283       111.2750 
 220   0.0000       4.115268       111.9821 
 221   0.0000       4.156713       113.1099 
 222   0.0000       4.220789       114.8535 
 223   0.0000       4.306861       117.1956 
 224   0.0000       4.359441       118.6264 
 225   0.0000       4.375930       119.0751 
 226   0.0000       4.397638       119.6658 
 227   0.0000       4.442948       120.8988 
 228   0.0000       4.544266       123.6558 
 229   0.0000       4.612515       125.5129 
 230   0.0000       4.713757       128.2679 
 231   0.0000       4.725976       128.6004 
 232   0.0000       4.764432       129.6468 
 233   0.0000       4.803748       130.7166 
 234   0.0000       4.816210       131.0557 
 235   0.0000       4.830235       131.4374 
 236   0.0000       4.912822       133.6847 
 237   0.0000       5.034237       136.9885 
 238   0.0000       5.121526       139.3638 
 239   0.0000       5.145643       140.0201 
 240   0.0000       5.218131       141.9926 
 241   0.0000       5.243132       142.6729 
 242   0.0000       5.312235       144.5533 
 243   0.0000       5.417632       147.4213 
 244   0.0000       5.427104       147.6790 
 245   0.0000       5.444430       148.1505 
 246   0.0000       5.452068       148.3583 
 247   0.0000       5.497489       149.5943 
 248   0.0000       5.540974       150.7776 
 249   0.0000       5.587493       152.0434 
 250   0.0000       5.615328       152.8009 
 251   0.0000       5.783603       157.3798 
 252   0.0000       5.817093       158.2911 
 253   0.0000       5.823468       158.4646 
 254   0.0000       5.894096       160.3865 
 255   0.0000       5.917709       161.0290 
 256   0.0000       5.925379       161.2378 
 257   0.0000       5.978090       162.6721 
 258   0.0000       5.984370       162.8430 
 259   0.0000       6.115346       166.4070 
 260   0.0000       6.128619       166.7682 
 261   0.0000       6.172988       167.9755 
 262   0.0000       6.207772       168.9221 
 263   0.0000       6.214865       169.1151 
 264   0.0000       6.367836       173.2776 
 265   0.0000       6.431460       175.0089 
 266   0.0000       6.433189       175.0560 
 267   0.0000       6.446419       175.4160 
 268   0.0000       6.489966       176.6010 
 269   0.0000       6.564047       178.6168 
 270   0.0000       6.627680       180.3483 
 271   0.0000       6.915801       188.1885 
 272   0.0000       7.053666       191.9400 
 273   0.0000       7.068770       192.3510 
 274   0.0000       7.121222       193.7783 
 275   0.0000       7.146445       194.4647 
 276   0.0000       7.280378       198.1092 
 277   0.0000       7.286406       198.2732 
 278   0.0000       7.358831       200.2440 
 279   0.0000       7.570224       205.9963 
 280   0.0000       7.751951       210.9413 
 281   0.0000       8.035691       218.6623 
 282   0.0000       8.202017       223.1882 
 283   0.0000       8.233961       224.0575 
 284   0.0000       8.287685       225.5194 
 285   0.0000       8.295554       225.7335 
 286   0.0000       8.640221       235.1124 
 287   0.0000       8.995475       244.7793 
 288   0.0000       9.079396       247.0629 
 289   0.0000       9.302006       253.1205 
 290   0.0000       9.392345       255.5787 
 291   0.0000       9.632835       262.1228 
 292   0.0000       9.867201       268.5002 
 293   0.0000       9.892781       269.1963 
 294   0.0000      10.172345       276.8036 
 295   0.0000      10.218105       278.0488 
 296   0.0000      10.281640       279.7777 
 297   0.0000      10.282579       279.8032 
 298   0.0000      10.293782       280.1080 
 299   0.0000      10.327381       281.0223 
 300   0.0000      10.373468       282.2764 
 301   0.0000      10.577225       287.8209 
 302   0.0000      10.584808       288.0273 
 303   0.0000      10.696994       291.0800 
 304   0.0000      10.725510       291.8560 
 305   0.0000      10.815554       294.3062 
 306   0.0000      10.973963       298.6167 
 307   0.0000      11.142698       303.2082 
 308   0.0000      11.151878       303.4580 
 309   0.0000      11.241936       305.9086 
 310   0.0000      11.288597       307.1784 
 311   0.0000      11.508132       313.1522 
 312   0.0000      11.577604       315.0426 
 313   0.0000      11.605911       315.8129 
 314   0.0000      11.639439       316.7252 
 315   0.0000      11.684773       317.9589 
 316   0.0000      11.734180       319.3033 
 317   0.0000      11.753479       319.8284 
 318   0.0000      11.767437       320.2082 
 319   0.0000      11.881533       323.3130 
 320   0.0000      11.980976       326.0189 
 321   0.0000      11.982015       326.0472 
 322   0.0000      12.043728       327.7265 
 323   0.0000      12.044967       327.7602 
 324   0.0000      12.112453       329.5966 
 325   0.0000      12.119443       329.7868 
 326   0.0000      12.151801       330.6673 
 327   0.0000      12.177452       331.3653 
 328   0.0000      12.247463       333.2704 
 329   0.0000      12.251868       333.3903 
 330   0.0000      12.399323       337.4027 
 331   0.0000      12.421722       338.0122 
 332   0.0000      12.498720       340.1075 
 333   0.0000      12.582022       342.3742 
 334   0.0000      12.613889       343.2414 
 335   0.0000      12.617564       343.3414 
 336   0.0000      12.617654       343.3438 
 337   0.0000      12.630966       343.7061 
 338   0.0000      12.646230       344.1214 
 339   0.0000      12.768531       347.4494 
 340   0.0000      12.792685       348.1066 
 341   0.0000      12.830668       349.1402 
 342   0.0000      12.955172       352.5282 
 343   0.0000      12.959952       352.6582 
 344   0.0000      13.000859       353.7714 
 345   0.0000      13.090486       356.2102 
 346   0.0000      13.137480       357.4890 
 347   0.0000      13.253352       360.6420 
 348   0.0000      13.303198       361.9984 
 349   0.0000      13.371700       363.8625 
 350   0.0000      13.615653       370.5007 
 351   0.0000      13.619467       370.6045 
 352   0.0000      13.673061       372.0629 
 353   0.0000      13.877904       377.6370 
 354   0.0000      14.060116       382.5952 
 355   0.0000      14.070399       382.8750 
 356   0.0000      14.200800       386.4234 
 357   0.0000      14.268243       388.2586 
 358   0.0000      14.330712       389.9585 
 359   0.0000      14.596965       397.2036 
 360   0.0000      14.623063       397.9138 
 361   0.0000      14.660552       398.9339 
 362   0.0000      14.951929       406.8627 
 363   0.0000      14.980402       407.6375 
 364   0.0000      15.215269       414.0285 
 365   0.0000      15.274419       415.6381 
 366   0.0000      15.371789       418.2877 
 367   0.0000      15.523359       422.4121 
 368   0.0000      15.629876       425.3106 
 369   0.0000      15.807050       430.1317 
 370   0.0000      15.822941       430.5641 
 371   0.0000      16.429994       447.0829 
 372   0.0000      16.610143       451.9850 
 373   0.0000      16.943491       461.0558 
 374   0.0000      16.943631       461.0596 
 375   0.0000      17.019312       463.1190 
 376   0.0000      17.234014       468.9614 
 377   0.0000      17.237835       469.0653 
 378   0.0000      17.297092       470.6778 
 379   0.0000      17.333391       471.6655 
 380   0.0000      18.023409       490.4419 
 381   0.0000      18.077808       491.9222 
 382   0.0000      18.388266       500.3702 
 383   0.0000      18.547722       504.7092 
 384   0.0000      18.596081       506.0251 
 385   0.0000      18.820565       512.1336 
 386   0.0000      18.885516       513.9010 
 387   0.0000      18.943665       515.4833 
 388   0.0000      20.044244       545.4316 
 389   0.0000      20.044359       545.4347 
 390   0.0000      20.181558       549.1681 
 391   0.0000      20.195659       549.5518 
 392   0.0000      20.689408       562.9874 
 393   0.0000      20.841101       567.1152 
 394   0.0000      20.892422       568.5117 
 395   0.0000      21.884485       595.5071 
 396   0.0000      22.023021       599.2769 
 397   0.0000      22.227267       604.8347 
 398   0.0000      22.991773       625.6380 
 399   0.0000      23.049565       627.2106 
 400   0.0000      23.114396       628.9747 
 401   0.0000      24.005508       653.2231 
 402   0.0000      24.287917       660.9078 
 403   0.0000      26.575963       723.1687 
 404   0.0000      30.227811       822.5406 
 405   0.0000      30.306946       824.6939 
 406   0.0000      30.373022       826.4920 
 407   0.0000      30.615650       833.0942 
 408   0.0000      30.832941       839.0070 
 409   0.0000      31.415336       854.8547 
 410   0.0000      31.943562       869.2285 
 411   0.0000      32.029872       871.5771 
 412   0.0000      32.057849       872.3384 
 413   0.0000      32.260727       877.8590 
 414   0.0000      32.768552       891.6776 
 415   0.0000      34.029025       925.9768 
 416   0.0000      34.303040       933.4332 
 417   0.0000      34.630490       942.3435 
 418   0.0000      41.676756      1134.0822 
 419   0.0000      41.750593      1136.0914 
 420   0.0000      42.059234      1144.4899 
 421   0.0000      44.089167      1199.7272 
 422   0.0000      66.540858      1810.6688 
 423   0.0000      66.573139      1811.5472 
 424   0.0000      67.094915      1825.7455 
 425   0.0000      67.254084      1830.0767 
 426   0.0000      68.744075      1870.6214 
 427   0.0000      75.017928      2041.3416 
 428   0.0000      91.225663      2482.3765 
 429   0.0000      91.263279      2483.4001 
 430   0.0000      91.438661      2488.1725 
 431   0.0000      91.565410      2491.6215 
 432   0.0000      92.278479      2511.0251 
 433   0.0000     143.413279      3902.4737 
 434   0.0000     202.481941      5509.8137 

                 SPIN DOWN ORBITALS
  NO   OCC          E(Eh)            E(eV) 
   0   1.0000     -24.335845      -662.2120 
   1   1.0000     -18.824668      -512.2453 
   2   1.0000     -10.063995      -273.8552 
   3   1.0000      -1.191753       -32.4293 
   4   1.0000      -1.026529       -27.9333 
   5   1.0000      -0.594081       -16.1658 
   6   1.0000      -0.477500       -12.9934 
   7   1.0000      -0.472449       -12.8560 
   8   1.0000      -0.459534       -12.5046 
   9   1.0000      -0.376830       -10.2541 
  10   1.0000      -0.350304        -9.5322 
  11   0.0000      -0.173853        -4.7308 
  12   0.0000      -0.065357        -1.7785 
  13   0.0000       0.002255         0.0614 
  14   0.0000       0.016971         0.4618 
  15   0.0000       0.019561         0.5323 
  16   0.0000       0.020323         0.5530 
  17   0.0000       0.054616         1.4862 
  18   0.0000       0.056108         1.5268 
  19   0.0000       0.058100         1.5810 
  20   0.0000       0.065130         1.7723 
  21   0.0000       0.066216         1.8018 
  22   0.0000       0.068532         1.8648 
  23   0.0000       0.080126         2.1803 
  24   0.0000       0.089824         2.4442 
  25   0.0000       0.091198         2.4816 
  26   0.0000       0.107522         2.9258 
  27   0.0000       0.122839         3.3426 
  28   0.0000       0.128649         3.5007 
  29   0.0000       0.139175         3.7872 
  30   0.0000       0.143285         3.8990 
  31   0.0000       0.144910         3.9432 
  32   0.0000       0.159292         4.3345 
  33   0.0000       0.184997         5.0340 
  34   0.0000       0.186900         5.0858 
  35   0.0000       0.188596         5.1320 
  36   0.0000       0.204220         5.5571 
  37   0.0000       0.204282         5.5588 
  38   0.0000       0.209505         5.7009 
  39   0.0000       0.216895         5.9020 
  40   0.0000       0.234339         6.3767 
  41   0.0000       0.238803         6.4982 
  42   0.0000       0.245430         6.6785 
  43   0.0000       0.249661         6.7936 
  44   0.0000       0.252027         6.8580 
  45   0.0000       0.254136         6.9154 
  46   0.0000       0.261592         7.1183 
  47   0.0000       0.263965         7.1828 
  48   0.0000       0.273363         7.4386 
  49   0.0000       0.301452         8.2029 
  50   0.0000       0.302557         8.2330 
  51   0.0000       0.306039         8.3277 
  52   0.0000       0.313813         8.5393 
  53   0.0000       0.318695         8.6721 
  54   0.0000       0.335551         9.1308 
  55   0.0000       0.340344         9.2612 
  56   0.0000       0.350377         9.5342 
  57   0.0000       0.350642         9.5414 
  58   0.0000       0.376980        10.2581 
  59   0.0000       0.393598        10.7103 
  60   0.0000       0.405628        11.0377 
  61   0.0000       0.407924        11.1002 
  62   0.0000       0.414156        11.2698 
  63   0.0000       0.420768        11.4497 
  64   0.0000       0.429840        11.6965 
  65   0.0000       0.437289        11.8993 
  66   0.0000       0.443879        12.0786 
  67   0.0000       0.451461        12.2849 
  68   0.0000       0.451582        12.2882 
  69   0.0000       0.471594        12.8327 
  70   0.0000       0.480744        13.0817 
  71   0.0000       0.486341        13.2340 
  72   0.0000       0.493894        13.4395 
  73   0.0000       0.505314        13.7503 
  74   0.0000       0.505441        13.7537 
  75   0.0000       0.514800        14.0084 
  76   0.0000       0.520556        14.1650 
  77   0.0000       0.536005        14.5854 
  78   0.0000       0.536846        14.6083 
  79   0.0000       0.541428        14.7330 
  80   0.0000       0.549229        14.9453 
  81   0.0000       0.555821        15.1247 
  82   0.0000       0.556272        15.1369 
  83   0.0000       0.562876        15.3166 
  84   0.0000       0.563576        15.3357 
  85   0.0000       0.583107        15.8672 
  86   0.0000       0.592845        16.1321 
  87   0.0000       0.603953        16.4344 
  88   0.0000       0.609136        16.5754 
  89   0.0000       0.622702        16.9446 
  90   0.0000       0.623243        16.9593 
  91   0.0000       0.636007        17.3066 
  92   0.0000       0.637994        17.3607 
  93   0.0000       0.654016        17.7967 
  94   0.0000       0.673170        18.3179 
  95   0.0000       0.680743        18.5239 
  96   0.0000       0.687376        18.7044 
  97   0.0000       0.703612        19.1463 
  98   0.0000       0.718416        19.5491 
  99   0.0000       0.722555        19.6617 
 100   0.0000       0.737337        20.0640 
 101   0.0000       0.752165        20.4674 
 102   0.0000       0.759606        20.6699 
 103   0.0000       0.779209        21.2033 
 104   0.0000       0.788002        21.4426 
 105   0.0000       0.790983        21.5237 
 106   0.0000       0.818954        22.2849 
 107   0.0000       0.824685        22.4408 
 108   0.0000       0.839479        22.8434 
 109   0.0000       0.860526        23.4161 
 110   0.0000       0.881766        23.9941 
 111   0.0000       0.882247        24.0072 
 112   0.0000       0.892440        24.2845 
 113   0.0000       0.892654        24.2904 
 114   0.0000       0.905225        24.6324 
 115   0.0000       0.910914        24.7872 
 116   0.0000       0.927391        25.2356 
 117   0.0000       0.932424        25.3725 
 118   0.0000       0.948877        25.8203 
 119   0.0000       0.957102        26.0441 
 120   0.0000       0.958352        26.0781 
 121   0.0000       0.983172        26.7535 
 122   0.0000       0.986648        26.8481 
 123   0.0000       1.000065        27.2131 
 124   0.0000       1.017447        27.6861 
 125   0.0000       1.020522        27.7698 
 126   0.0000       1.027402        27.9570 
 127   0.0000       1.031624        28.0719 
 128   0.0000       1.032860        28.1056 
 129   0.0000       1.053567        28.6690 
 130   0.0000       1.064814        28.9751 
 131   0.0000       1.065942        29.0058 
 132   0.0000       1.077558        29.3218 
 133   0.0000       1.095706        29.8157 
 134   0.0000       1.106493        30.1092 
 135   0.0000       1.118834        30.4450 
 136   0.0000       1.135718        30.9045 
 137   0.0000       1.136128        30.9156 
 138   0.0000       1.158566        31.5262 
 139   0.0000       1.161863        31.6159 
 140   0.0000       1.177488        32.0411 
 141   0.0000       1.179746        32.1025 
 142   0.0000       1.198460        32.6118 
 143   0.0000       1.207516        32.8582 
 144   0.0000       1.238324        33.6965 
 145   0.0000       1.239265        33.7221 
 146   0.0000       1.286416        35.0052 
 147   0.0000       1.295999        35.2659 
 148   0.0000       1.309258        35.6267 
 149   0.0000       1.320647        35.9366 
 150   0.0000       1.329510        36.1778 
 151   0.0000       1.338947        36.4346 
 152   0.0000       1.356864        36.9221 
 153   0.0000       1.362989        37.0888 
 154   0.0000       1.372262        37.3411 
 155   0.0000       1.379667        37.5426 
 156   0.0000       1.386837        37.7377 
 157   0.0000       1.413438        38.4616 
 158   0.0000       1.457367        39.6570 
 159   0.0000       1.483624        40.3715 
 160   0.0000       1.499713        40.8093 
 161   0.0000       1.532876        41.7117 
 162   0.0000       1.535002        41.7695 
 163   0.0000       1.537267        41.8312 
 164   0.0000       1.550626        42.1947 
 165   0.0000       1.586199        43.1627 
 166   0.0000       1.623816        44.1863 
 167   0.0000       1.680182        45.7201 
 168   0.0000       1.780649        48.4539 
 169   0.0000       1.802481        49.0480 
 170   0.0000       1.822639        49.5965 
 171   0.0000       1.847587        50.2754 
 172   0.0000       1.906023        51.8655 
 173   0.0000       1.914670        52.1008 
 174   0.0000       1.930286        52.5258 
 175   0.0000       1.984059        53.9890 
 176   0.0000       1.995079        54.2889 
 177   0.0000       2.014142        54.8076 
 178   0.0000       2.036937        55.4279 
 179   0.0000       2.102536        57.2129 
 180   0.0000       2.119376        57.6712 
 181   0.0000       2.127383        57.8890 
 182   0.0000       2.172329        59.1121 
 183   0.0000       2.174365        59.1675 
 184   0.0000       2.258003        61.4434 
 185   0.0000       2.259405        61.4815 
 186   0.0000       2.292350        62.3780 
 187   0.0000       2.315032        62.9952 
 188   0.0000       2.337621        63.6099 
 189   0.0000       2.380491        64.7765 
 190   0.0000       2.420553        65.8666 
 191   0.0000       2.431200        66.1563 
 192   0.0000       2.463698        67.0406 
 193   0.0000       2.493066        67.8398 
 194   0.0000       2.502644        68.1004 
 195   0.0000       2.522631        68.6443 
 196   0.0000       2.555739        69.5452 
 197   0.0000       2.578421        70.1624 
 198   0.0000       2.593018        70.5596 
 199   0.0000       2.607209        70.9458 
 200   0.0000       2.645844        71.9971 
 201   0.0000       2.677575        72.8605 
 202   0.0000       2.760773        75.1245 
 203   0.0000       2.829448        76.9932 
 204   0.0000       2.847352        77.4804 
 205   0.0000       3.000018        81.6346 
 206   0.0000       3.013610        82.0045 
 207   0.0000       3.059716        83.2591 
 208   0.0000       3.200813        87.0986 
 209   0.0000       3.330431        90.6256 
 210   0.0000       3.348256        91.1107 
 211   0.0000       3.362910        91.5094 
 212   0.0000       3.438453        93.5651 
 213   0.0000       3.478113        94.6443 
 214   0.0000       3.579716        97.4090 
 215   0.0000       3.790925       103.1563 
 216   0.0000       4.014793       109.2481 
 217   0.0000       4.026900       109.5775 
 218   0.0000       4.061055       110.5069 
 219   0.0000       4.108109       111.7873 
 220   0.0000       4.129217       112.3617 
 221   0.0000       4.174948       113.6061 
 222   0.0000       4.236848       115.2905 
 223   0.0000       4.349883       118.3663 
 224   0.0000       4.403347       119.8212 
 225   0.0000       4.406293       119.9013 
 226   0.0000       4.421965       120.3278 
 227   0.0000       4.453955       121.1983 
 228   0.0000       4.571540       124.3979 
 229   0.0000       4.638498       126.2199 
 230   0.0000       4.744921       129.1159 
 231   0.0000       4.747360       129.1822 
 232   0.0000       4.810370       130.8968 
 233   0.0000       4.843248       131.7915 
 234   0.0000       4.851980       132.0291 
 235   0.0000       4.858587       132.2089 
 236   0.0000       4.944609       134.5497 
 237   0.0000       5.058413       137.6464 
 238   0.0000       5.134236       139.7097 
 239   0.0000       5.165323       140.5556 
 240   0.0000       5.222602       142.1142 
 241   0.0000       5.261142       143.1630 
 242   0.0000       5.319747       144.7577 
 243   0.0000       5.430279       147.7654 
 244   0.0000       5.439392       148.0134 
 245   0.0000       5.463905       148.6804 
 246   0.0000       5.465917       148.7352 
 247   0.0000       5.516869       150.1216 
 248   0.0000       5.555305       151.1675 
 249   0.0000       5.605252       152.5267 
 250   0.0000       5.639540       153.4597 
 251   0.0000       5.796265       157.7244 
 252   0.0000       5.828628       158.6050 
 253   0.0000       5.841239       158.9482 
 254   0.0000       5.904705       160.6752 
 255   0.0000       5.931639       161.4081 
 256   0.0000       5.933832       161.4678 
 257   0.0000       5.983978       162.8323 
 258   0.0000       5.996256       163.1664 
 259   0.0000       6.122767       166.6090 
 260   0.0000       6.135518       166.9559 
 261   0.0000       6.201033       168.7387 
 262   0.0000       6.225585       169.4068 
 263   0.0000       6.232516       169.5954 
 264   0.0000       6.378498       173.5677 
 265   0.0000       6.444479       175.3632 
 266   0.0000       6.454710       175.6416 
 267   0.0000       6.454774       175.6433 
 268   0.0000       6.518185       177.3688 
 269   0.0000       6.588686       179.2872 
 270   0.0000       6.638970       180.6556 
 271   0.0000       6.932814       188.6515 
 272   0.0000       7.061425       192.1511 
 273   0.0000       7.070509       192.3983 
 274   0.0000       7.132346       194.0810 
 275   0.0000       7.164025       194.9430 
 276   0.0000       7.288884       198.3406 
 277   0.0000       7.302571       198.7131 
 278   0.0000       7.365817       200.4341 
 279   0.0000       7.574952       206.1249 
 280   0.0000       7.770317       211.4411 
 281   0.0000       8.048822       219.0196 
 282   0.0000       8.221945       223.7305 
 283   0.0000       8.248280       224.4471 
 284   0.0000       8.297962       225.7990 
 285   0.0000       8.306554       226.0328 
 286   0.0000       8.661930       235.7031 
 287   0.0000       9.010383       245.1850 
 288   0.0000       9.089408       247.3354 
 289   0.0000       9.322027       253.6653 
 290   0.0000       9.409763       256.0527 
 291   0.0000       9.651958       262.6431 
 292   0.0000       9.882216       268.9088 
 293   0.0000       9.900663       269.4107 
 294   0.0000      10.197131       277.4780 
 295   0.0000      10.255034       279.0537 
 296   0.0000      10.293918       280.1118 
 297   0.0000      10.323464       280.9157 
 298   0.0000      10.335232       281.2359 
 299   0.0000      10.364666       282.0369 
 300   0.0000      10.398181       282.9489 
 301   0.0000      10.630987       289.2839 
 302   0.0000      10.635421       289.4045 
 303   0.0000      10.711648       291.4788 
 304   0.0000      10.751504       292.5633 
 305   0.0000      10.834443       294.8202 
 306   0.0000      10.998077       299.2729 
 307   0.0000      11.148364       303.3624 
 308   0.0000      11.171468       303.9911 
 309   0.0000      11.260376       306.4104 
 310   0.0000      11.317951       307.9771 
 311   0.0000      11.537254       313.9446 
 312   0.0000      11.611203       315.9569 
 313   0.0000      11.644637       316.8667 
 314   0.0000      11.671395       317.5948 
 315   0.0000      11.743115       319.5464 
 316   0.0000      11.770982       320.3047 
 317   0.0000      11.787071       320.7425 
 318   0.0000      11.819732       321.6313 
 319   0.0000      11.908411       324.0443 
 320   0.0000      11.994163       326.3778 
 321   0.0000      11.994767       326.3942 
 322   0.0000      12.072825       328.5183 
 323   0.0000      12.084316       328.8310 
 324   0.0000      12.139190       330.3241 
 325   0.0000      12.139576       330.3347 
 326   0.0000      12.172752       331.2374 
 327   0.0000      12.197731       331.9171 
 328   0.0000      12.263255       333.7001 
 329   0.0000      12.292472       334.4952 
 330   0.0000      12.422063       338.0215 
 331   0.0000      12.459238       339.0331 
 332   0.0000      12.519840       340.6822 
 333   0.0000      12.600855       342.8867 
 334   0.0000      12.619421       343.3919 
 335   0.0000      12.620973       343.4341 
 336   0.0000      12.623420       343.5007 
 337   0.0000      12.636710       343.8624 
 338   0.0000      12.658402       344.4526 
 339   0.0000      12.799975       348.3050 
 340   0.0000      12.809494       348.5640 
 341   0.0000      12.843376       349.4860 
 342   0.0000      12.966418       352.8342 
 343   0.0000      12.978702       353.1684 
 344   0.0000      13.019555       354.2801 
 345   0.0000      13.114972       356.8765 
 346   0.0000      13.160752       358.1223 
 347   0.0000      13.268410       361.0518 
 348   0.0000      13.320436       362.4675 
 349   0.0000      13.393740       364.4622 
 350   0.0000      13.641179       371.1953 
 351   0.0000      13.642703       371.2368 
 352   0.0000      13.696695       372.7060 
 353   0.0000      13.888030       377.9125 
 354   0.0000      14.088283       383.3617 
 355   0.0000      14.099444       383.6654 
 356   0.0000      14.219863       386.9422 
 357   0.0000      14.280712       388.5979 
 358   0.0000      14.351338       390.5197 
 359   0.0000      14.606582       397.4653 
 360   0.0000      14.655755       398.8034 
 361   0.0000      14.670373       399.2012 
 362   0.0000      14.959298       407.0632 
 363   0.0000      14.987233       407.8233 
 364   0.0000      15.226934       414.3459 
 365   0.0000      15.295386       416.2086 
 366   0.0000      15.390871       418.8069 
 367   0.0000      15.542630       422.9365 
 368   0.0000      15.647293       425.7845 
 369   0.0000      15.828413       430.7130 
 370   0.0000      15.836935       430.9449 
 371   0.0000      16.477000       448.3620 
 372   0.0000      16.626960       452.4426 
 373   0.0000      16.961155       461.5365 
 374   0.0000      16.961625       461.5493 
 375   0.0000      17.039927       463.6800 
 376   0.0000      17.248878       469.3658 
 377   0.0000      17.257285       469.5946 
 378   0.0000      17.315285       471.1729 
 379   0.0000      17.347401       472.0468 
 380   0.0000      18.038393       490.8496 
 381   0.0000      18.091625       492.2981 
 382   0.0000      18.406137       500.8564 
 383   0.0000      18.558276       504.9964 
 384   0.0000      18.621647       506.7208 
 385   0.0000      18.840589       512.6785 
 386   0.0000      18.897012       514.2138 
 387   0.0000      18.959771       515.9216 
 388   0.0000      20.049901       545.5855 
 389   0.0000      20.050114       545.5913 
 390   0.0000      20.191294       549.4330 
 391   0.0000      20.205764       549.8268 
 392   0.0000      20.707119       563.4694 
 393   0.0000      20.854854       567.4894 
 394   0.0000      20.905788       568.8754 
 395   0.0000      21.901602       595.9729 
 396   0.0000      22.037132       599.6608 
 397   0.0000      22.245327       605.3261 
 398   0.0000      23.010610       626.1505 
 399   0.0000      23.068100       627.7149 
 400   0.0000      23.131594       629.4427 
 401   0.0000      24.010704       653.3645 
 402   0.0000      24.311052       661.5374 
 403   0.0000      26.589646       723.5411 
 404   0.0000      30.238887       822.8419 
 405   0.0000      30.313592       824.8748 
 406   0.0000      30.380944       826.7075 
 407   0.0000      30.630892       833.5090 
 408   0.0000      30.851527       839.5127 
 409   0.0000      31.435145       855.3938 
 410   0.0000      31.954383       869.5230 
 411   0.0000      32.048212       872.0762 
 412   0.0000      32.084551       873.0650 
 413   0.0000      32.289237       878.6348 
 414   0.0000      32.785748       892.1455 
 415   0.0000      34.053736       926.6493 
 416   0.0000      34.316231       933.7921 
 417   0.0000      34.649871       942.8709 
 418   0.0000      41.681225      1134.2038 
 419   0.0000      41.759211      1136.3259 
 420   0.0000      42.069732      1144.7756 
 421   0.0000      44.103695      1200.1225 
 422   0.0000      66.553724      1811.0189 
 423   0.0000      66.586021      1811.8977 
 424   0.0000      67.098695      1825.8483 
 425   0.0000      67.271440      1830.5489 
 426   0.0000      68.754527      1870.9058 
 427   0.0000      75.033340      2041.7610 
 428   0.0000      91.230107      2482.4974 
 429   0.0000      91.268758      2483.5492 
 430   0.0000      91.448867      2488.4502 
 431   0.0000      91.578099      2491.9668 
 432   0.0000      92.292502      2511.4067 
 433   0.0000     143.419359      3902.6392 
 434   0.0000     202.487156      5509.9556 

                    ********************************
                    * MULLIKEN POPULATION ANALYSIS *
                    ********************************

--------------------------------------------
MULLIKEN ATOMIC CHARGES AND SPIN POPULATIONS
--------------------------------------------
   0 F :   -0.259489    0.088312
   1 C :    0.460417    0.638152
   2 O :   -0.200928    0.273535
Sum of atomic charges         :   -0.0000000
Sum of atomic spin populations:    1.0000000

-----------------------------------------------------
MULLIKEN REDUCED ORBITAL CHARGES AND SPIN POPULATIONS
-----------------------------------------------------
CHARGE
  0 F s       :     3.987671  s :     3.987671
      pz      :     1.844897  p :     5.230211
      px      :     1.692815
      py      :     1.692498
      dz2     :     0.004291  d :     0.035503
      dxz     :     0.005705
      dyz     :     0.004132
      dx2y2   :     0.011666
      dxy     :     0.009708
      f0      :     0.000853  f :     0.005388
      f+1     :     0.000257
      f-1     :     0.000307
      f+2     :     0.000063
      f-2     :     0.001259
      f+3     :     0.001959
      f-3     :     0.000690
      g0      :     0.000048  g :     0.000692
      g+1     :     0.000044
      g-1     :     0.000072
      g+2     :    -0.000046
      g-2     :     0.000168
      g+3     :    -0.000045
      g-3     :     0.000206
      g+4     :     0.000021
      g-4     :     0.000223
      h0      :    -0.000011  h :     0.000025
      h+1     :     0.000008
      h-1     :     0.000010
      h+2     :    -0.000033
      h-2     :     0.000034
      h+3     :    -0.000034
      h-3     :     0.000030
      h+4     :    -0.000004
      h-4     :     0.000031
      h+5     :    -0.000007
      h-5     :     0.000002
  1 C s       :     3.241863  s :     3.241863
      pz      :     0.643802  p :     2.046983
      px      :     0.622501
      py      :     0.780681
      dz2     :     0.015271  d :     0.223116
      dxz     :     0.054150
      dyz     :     0.009720
      dx2y2   :     0.068934
      dxy     :     0.075040
      f0      :     0.002258  f :     0.023589
      f+1     :     0.001491
      f-1     :     0.000499
      f+2     :     0.002252
      f-2     :     0.003986
      f+3     :     0.007238
      f-3     :     0.005864
      g0      :     0.000113  g :     0.003786
      g+1     :     0.000688
      g-1     :     0.000195
      g+2     :     0.000219
      g-2     :     0.000265
      g+3     :     0.000259
      g-3     :     0.000432
      g+4     :     0.000815
      g-4     :     0.000800
      h0      :    -0.000000  h :     0.000246
      h+1     :     0.000018
      h-1     :     0.000000
      h+2     :    -0.000003
      h-2     :     0.000032
      h+3     :     0.000022
      h-3     :     0.000005
      h+4     :     0.000016
      h-4     :     0.000015
      h+5     :     0.000084
      h-5     :     0.000058
  2 O s       :     3.864619  s :     3.864619
      pz      :     1.406328  p :     4.287674
      px      :     1.324206
      py      :     1.557141
      dz2     :     0.003345  d :     0.040055
      dxz     :     0.014898
      dyz     :     0.000524
      dx2y2   :     0.005860
      dxy     :     0.015427
      f0      :     0.001341  f :     0.006868
      f+1     :     0.001033
      f-1     :     0.000373
      f+2     :     0.000744
      f-2     :     0.000506
      f+3     :     0.001166
      f-3     :     0.001705
      g0      :     0.000072  g :     0.001550
      g+1     :     0.000354
      g-1     :     0.000045
      g+2     :     0.000216
      g-2     :     0.000125
      g+3     :    -0.000017
      g-3     :     0.000189
      g+4     :     0.000321
      g-4     :     0.000244
      h0      :     0.000023  h :     0.000163
      h+1     :     0.000014
      h-1     :     0.000000
      h+2     :     0.000036
      h-2     :     0.000024
      h+3     :     0.000024
      h-3     :     0.000019
      h+4     :    -0.000017
      h-4     :     0.000015
      h+5     :    -0.000005
      h-5     :     0.000030

SPIN
  0 F s       :    -0.006341  s :    -0.006341
      pz      :    -0.007439  p :     0.086231
      px      :     0.007442
      py      :     0.086228
      dz2     :     0.001537  d :     0.006716
      dxz     :     0.001933
      dyz     :     0.000245
      dx2y2   :     0.001226
      dxy     :     0.001775
      f0      :     0.000267  f :     0.001299
      f+1     :    -0.000009
      f-1     :    -0.000036
      f+2     :     0.000385
      f-2     :     0.000177
      f+3     :     0.000547
      f-3     :    -0.000032
      g0      :    -0.000020  g :     0.000341
      g+1     :     0.000082
      g-1     :     0.000006
      g+2     :     0.000054
      g-2     :    -0.000045
      g+3     :     0.000050
      g-3     :     0.000088
      g+4     :    -0.000004
      g-4     :     0.000130
      h0      :     0.000002  h :     0.000066
      h+1     :     0.000003
      h-1     :    -0.000003
      h+2     :     0.000013
      h-2     :     0.000008
      h+3     :     0.000008
      h-3     :    -0.000005
      h+4     :     0.000004
      h-4     :     0.000023
      h+5     :    -0.000005
      h-5     :     0.000019
  1 C s       :     0.220165  s :     0.220165
      pz      :     0.027274  p :     0.377413
      px      :     0.094189
      py      :     0.255949
      dz2     :     0.004891  d :     0.042906
      dxz     :     0.000502
      dyz     :    -0.001352
      dx2y2   :     0.018646
      dxy     :     0.020219
      f0      :    -0.000462  f :    -0.002266
      f+1     :    -0.000058
      f-1     :    -0.000059
      f+2     :    -0.000784
      f-2     :     0.000212
      f+3     :     0.000068
      f-3     :    -0.001184
      g0      :    -0.000001  g :    -0.000028
      g+1     :    -0.000064
      g-1     :     0.000005
      g+2     :     0.000011
      g-2     :     0.000030
      g+3     :     0.000038
      g-3     :    -0.000038
      g+4     :     0.000024
      g-4     :    -0.000033
      h0      :     0.000001  h :    -0.000037
      h+1     :    -0.000004
      h-1     :    -0.000003
      h+2     :    -0.000001
      h-2     :    -0.000003
      h+3     :    -0.000000
      h-3     :    -0.000011
      h+4     :    -0.000018
      h-4     :    -0.000001
      h+5     :     0.000017
      h-5     :    -0.000015
  2 O s       :     0.055046  s :     0.055046
      pz      :    -0.022586  p :     0.213877
      px      :     0.029816
      py      :     0.206647
      dz2     :     0.001574  d :     0.006611
      dxz     :     0.001446
      dyz     :     0.000085
      dx2y2   :     0.002126
      dxy     :     0.001380
      f0      :     0.000153  f :    -0.001249
      f+1     :    -0.000007
      f-1     :     0.000049
      f+2     :    -0.000340
      f-2     :     0.000101
      f+3     :    -0.000519
      f-3     :    -0.000687
      g0      :    -0.000016  g :    -0.000649
      g+1     :    -0.000082
      g-1     :     0.000002
      g+2     :    -0.000054
      g-2     :    -0.000022
      g+3     :    -0.000043
      g-3     :     0.000086
      g+4     :    -0.000323
      g-4     :    -0.000197
      h0      :    -0.000012  h :    -0.000100
      h+1     :    -0.000002
      h-1     :    -0.000002
      h+2     :    -0.000006
      h-2     :     0.000007
      h+3     :    -0.000016
      h-3     :    -0.000008
      h+4     :     0.000008
      h-4     :     0.000026
      h+5     :    -0.000078
      h-5     :    -0.000016


                     *******************************
                     * LOEWDIN POPULATION ANALYSIS *
                     *******************************

-------------------------------------------
LOEWDIN ATOMIC CHARGES AND SPIN POPULATIONS
-------------------------------------------
   0 F :    0.115383    0.235676
   1 C :   -0.367474    0.492758
   2 O :    0.252092    0.271567

----------------------------------------------------
LOEWDIN REDUCED ORBITAL CHARGES AND SPIN POPULATIONS
----------------------------------------------------
CHARGE
  0 F s       :     3.389610  s :     3.389610
      pz      :     1.588608  p :     4.802146
      px      :     1.632764
      py      :     1.580774
      dz2     :     0.031680  d :     0.273920
      dxz     :     0.046695
      dyz     :     0.014817
      dx2y2   :     0.092380
      dxy     :     0.088348
      f0      :     0.020736  f :     0.192085
      f+1     :     0.020705
      f-1     :     0.008680
      f+2     :     0.011320
      f-2     :     0.020695
      f+3     :     0.069035
      f-3     :     0.040915
      g0      :     0.006049  g :     0.136046
      g+1     :     0.020547
      g-1     :     0.003868
      g+2     :     0.011384
      g-2     :     0.008397
      g+3     :     0.002086
      g-3     :     0.012808
      g+4     :     0.037699
      g-4     :     0.033208
      h0      :     0.007611  h :     0.090810
      h+1     :     0.005537
      h-1     :     0.001173
      h+2     :     0.006883
      h-2     :     0.006080
      h+3     :     0.007611
      h-3     :     0.006401
      h+4     :     0.000407
      h-4     :     0.006062
      h+5     :     0.024586
      h-5     :     0.018459
  1 C s       :     2.704696  s :     2.704696
      pz      :     0.542051  p :     2.186495
      px      :     0.904828
      py      :     0.739617
      dz2     :     0.098688  d :     0.959284
      dxz     :     0.205946
      dyz     :     0.036410
      dx2y2   :     0.276802
      dxy     :     0.341438
      f0      :     0.029223  f :     0.405270
      f+1     :     0.042234
      f-1     :     0.016052
      f+2     :     0.026250
      f-2     :     0.053391
      f+3     :     0.126277
      f-3     :     0.111844
      g0      :     0.004113  g :     0.095971
      g+1     :     0.017931
      g-1     :     0.003387
      g+2     :     0.006093
      g-2     :     0.009367
      g+3     :     0.004620
      g-3     :     0.006260
      g+4     :     0.021168
      g-4     :     0.023032
      h0      :     0.001053  h :     0.015758
      h+1     :     0.001239
      h-1     :     0.000441
      h+2     :     0.000779
      h-2     :     0.001550
      h+3     :     0.001155
      h-3     :     0.001458
      h+4     :     0.000951
      h-4     :     0.000665
      h+5     :     0.003424
      h-5     :     0.003043
  2 O s       :     3.194048  s :     3.194048
      pz      :     1.152062  p :     3.934779
      px      :     1.503553
      py      :     1.279165
      dz2     :     0.031526  d :     0.249684
      dxz     :     0.045966
      dyz     :     0.002039
      dx2y2   :     0.075761
      dxy     :     0.094392
      f0      :     0.015317  f :     0.158260
      f+1     :     0.021949
      f-1     :     0.004845
      f+2     :     0.020842
      f-2     :     0.004085
      f+3     :     0.038490
      f-3     :     0.052732
      g0      :     0.006539  g :     0.117775
      g+1     :     0.017929
      g-1     :     0.001190
      g+2     :     0.011170
      g-2     :     0.007510
      g+3     :     0.007896
      g-3     :     0.005574
      g+4     :     0.028641
      g-4     :     0.031326
      h0      :     0.006485  h :     0.093363
      h+1     :     0.006941
      h-1     :     0.000893
      h+2     :     0.009856
      h-2     :     0.002537
      h+3     :     0.006836
      h-3     :     0.007612
      h+4     :     0.002825
      h-4     :     0.005708
      h+5     :     0.023748
      h-5     :     0.019922

SPIN
  0 F s       :     0.039315  s :     0.039315
      pz      :    -0.001424  p :     0.119653
      px      :     0.015538
      py      :     0.105540
      dz2     :     0.005717  d :     0.037259
      dxz     :     0.001034
      dyz     :     0.001018
      dx2y2   :     0.013994
      dxy     :     0.015496
      f0      :     0.000535  f :     0.016945
      f+1     :     0.000137
      f-1     :     0.001566
      f+2     :    -0.000434
      f-2     :     0.000979
      f+3     :     0.010586
      f-3     :     0.003577
      g0      :     0.000095  g :     0.012530
      g+1     :     0.000070
      g-1     :     0.000223
      g+2     :     0.000459
      g-2     :     0.000212
      g+3     :    -0.000186
      g-3     :     0.000017
      g+4     :    -0.000031
      g-4     :     0.011670
      h0      :     0.000067  h :     0.009973
      h+1     :     0.000047
      h-1     :     0.000041
      h+2     :    -0.000199
      h-2     :     0.000155
      h+3     :     0.000204
      h-3     :     0.000900
      h+4     :    -0.000002
      h-4     :    -0.000263
      h+5     :     0.003626
      h-5     :     0.005397
  1 C s       :     0.146155  s :     0.146155
      pz      :     0.020876  p :     0.243399
      px      :     0.053385
      py      :     0.169138
      dz2     :     0.009548  d :     0.092497
      dxz     :    -0.003168
      dyz     :    -0.001742
      dx2y2   :     0.042713
      dxy     :     0.045146
      f0      :    -0.000957  f :     0.003195
      f+1     :     0.000593
      f-1     :     0.000524
      f+2     :    -0.001328
      f-2     :    -0.000110
      f+3     :     0.004122
      f-3     :     0.000351
      g0      :     0.000421  g :     0.006754
      g+1     :    -0.000060
      g-1     :    -0.000016
      g+2     :     0.000806
      g-2     :     0.000977
      g+3     :    -0.000066
      g-3     :    -0.000133
      g+4     :     0.001744
      g-4     :     0.003080
      h0      :    -0.000010  h :     0.000757
      h+1     :     0.000014
      h-1     :     0.000028
      h+2     :    -0.000014
      h-2     :     0.000003
      h+3     :     0.000083
      h-3     :     0.000074
      h+4     :     0.000002
      h-4     :    -0.000003
      h+5     :     0.000581
      h-5     :    -0.000000
  2 O s       :     0.031917  s :     0.031917
      pz      :    -0.018167  p :     0.166251
      px      :     0.032537
      py      :     0.151881
      dz2     :     0.003913  d :     0.044805
      dxz     :     0.001826
      dyz     :     0.000133
      dx2y2   :     0.002145
      dxy     :     0.036789
      f0      :     0.000499  f :     0.016142
      f+1     :     0.000622
      f-1     :     0.000954
      f+2     :     0.000420
      f-2     :     0.000204
      f+3     :     0.002507
      f-3     :     0.010935
      g0      :     0.000064  g :     0.007491
      g+1     :     0.000132
      g-1     :     0.000012
      g+2     :     0.000134
      g-2     :     0.000305
      g+3     :     0.000037
      g-3     :     0.000052
      g+4     :     0.004220
      g-4     :     0.002535
      h0      :     0.000018  h :     0.004961
      h+1     :     0.000027
      h-1     :     0.000013
      h+2     :     0.000015
      h-2     :     0.000001
      h+3     :     0.000397
      h-3     :     0.000135
      h+4     :    -0.000016
      h-4     :    -0.000028
      h+5     :     0.003492
      h-5     :     0.000908


                      *****************************
                      * MAYER POPULATION ANALYSIS *
                      *****************************

  NA   - Mulliken gross atomic population
  ZA   - Total nuclear charge
  QA   - Mulliken gross atomic charge
  VA   - Mayer's total valence
  BVA  - Mayer's bonded valence
  FA   - Mayer's free valence

  ATOM       NA         ZA         QA         VA         BVA        FA
  0 F      9.2595     9.0000    -0.2595     1.1487     1.1329     0.0158
  1 C      5.5396     6.0000     0.4604     3.6608     3.2495     0.4113
  2 O      8.2009     8.0000    -0.2009     2.3467     2.3098     0.0369

  Mayer bond orders larger than 0.1
B(  0-F ,  1-C ) :   1.0363 B(  1-C ,  2-O ) :   2.2132 

-------
TIMINGS
-------

Total SCF time: 0 days 2 hours 6 min 46 sec 

Total time                  ....    7606.492 sec
Sum of individual times     ....    7605.405 sec  (100.0%)

Fock matrix formation       ....    7591.914 sec  ( 99.8%)
  XC integration            ....     203.359 sec  (  2.7% of F)
    Basis function eval.    ....      13.475 sec  (  6.6% of XC)
    Density eval.           ....      44.573 sec  ( 21.9% of XC)
    XC-Functional eval.     ....       1.623 sec  (  0.8% of XC)
    XC-Potential eval.      ....     142.583 sec  ( 70.1% of XC)
Diagonalization             ....       2.630 sec  (  0.0%)
Density matrix formation    ....       0.054 sec  (  0.0%)
Population analysis         ....       0.174 sec  (  0.0%)
Initial guess               ....       6.586 sec  (  0.1%)
Orbital Transformation      ....       0.000 sec  (  0.0%)
Orbital Orthonormalization  ....       0.000 sec  (  0.0%)
DIIS solution               ....       1.151 sec  (  0.0%)
Grid generation             ....       2.895 sec  (  0.0%)

-------------------------   --------------------
FINAL SINGLE POINT ENERGY      -213.002048262528
-------------------------   --------------------


                            ***************************************
                            *     ORCA property calculations      *
                            ***************************************

                                    ---------------------
                                    Active property flags
                                    ---------------------
   (+) Dipole Moment
   (+) Polarizability


------------------------------------------------------------------------------
                       ORCA ELECTRIC PROPERTIES CALCULATION
------------------------------------------------------------------------------

Dipole Moment Calculation                       ... on
Quadrupole Moment Calculation                   ... off
Polarizability Calculation                      ... Analytic (CP-SCF)
GBWName                                         ... fco_pbe.gbw
Electron density file                           ... fco_pbe.scfp.tmp
The origin for moment calculation is the CENTER OF MASS  = (-0.041037, -0.016753  0.000000)

-------------
DIPOLE MOMENT
-------------
                                X             Y             Z
Electronic contribution:     -1.23850      -0.34430      -0.00000
Nuclear contribution   :      0.94327       0.38437       0.00000
                        -----------------------------------------
Total Dipole Moment    :     -0.29523       0.04007      -0.00000
                        -----------------------------------------
Magnitude (a.u.)       :      0.29793
Magnitude (Debye)      :      0.75728



--------------------
Rotational spectrum 
--------------------
 
Rotational constants in cm-1:     6.148275     0.382494     0.360092 
Rotational constants in MHz : 184320.655220 11466.873652 10795.282401 

 Dipole components along the rotational axes: 
x,y,z [a.u.] :     0.272547     0.120341    -0.000000 
x,y,z [Debye]:     0.692759     0.305882    -0.000000 

 
Transforming and storing MO dipole integrals   ... done

                ... starting polarizability calculation

Opening the Dipole integral file               ... (fco_pbe.dmo.tmp) done
Reading Dipole-MO integrals                    ... done
Solving CP-SCF equations                       ... 
------------------------------------------------------------------------------
                           ORCA CP-SCF CALCULATION
------------------------------------------------------------------------------

Input orbitals are from        ... fco_pbe.gbw
Input Perturbation             ... fco_pbe.cpv.tmp
Wavefunction output            ... fco_pbe.cpu.tmp
Perturbation mode              ... Real perturbation (singlet)
Solver                         ... POPLE
Max. number of iterations      ... 200
Convergence tolerance          ... 1.000e-06
Integral handling              ... Direct
Number of perturbations        ... 3
Number of operators            ... 2
Orbital ranges used for CP-SCF:
 Operator 0:  Orbitals   0... 11  to  12...434
 Operator 1:  Orbitals   0... 10  to  11...434
DFT calculation                         ... on
Exchange functional (SCF)               ... PBE
Exchange functional (CP-SCF)            ... PBE
   PBE kappa parameter  XKappa (SCF)    ...  0.804000
   PBE kappa parameter  XKappa (CP-SCF) ...  0.804000
   PBE mue parameter   XMuePBE (SCF)    ...  0.219520
   PBE mue parameter   XMuePBE (CP-SCF) ...  0.219520
Correlation functional (SCF)            ... PBE
Correlation functional (CP-SCF)         ... PBE
   PBE beta parameter CBetaPBE (SCF)    ...  0.066725
   PBE beta parameter CBetaPBE (CP-SCF) ...  0.066725
 LDA part of GGA corr.  LDAOpt (SCF)    ... PW91-LDA
 LDA part of GGA corr.  LDAOpt (CP-SCF) ... PW91-LDA
Variables per vector in CP-SCF ... 9740
Number of vectors sought       ... 3
Recalculating density on grid  ... done
Calculating the xc-kernel      ... done
     CP-SCF ITERATION   0: 
     CP-SCF ITERATION   1:      0.809982174002
     CP-SCF ITERATION   2:      0.139752118392
     CP-SCF ITERATION   3:      0.012098864093
     CP-SCF ITERATION   4:      0.001436532619
     CP-SCF ITERATION   5:      0.000125476289
     CP-SCF ITERATION   6:      0.000008998037
     CP-SCF ITERATION   7:      0.000000528941
done
Reading CP-SCF coefficients                    ... done
Doing the polarizability tensor   ... done
Cleaning up                                    ... done

-------------------------
THE POLARIZABILITY TENSOR
-------------------------

The raw cartesian tensor (atomic units):
   23.78361      0.25488     -0.00000  
    0.25488     17.78783     -0.00000  
   -0.00000     -0.00000     14.84014  
diagonalized tensor: 
   14.84014     17.77701     23.79443  

    0.00000     -0.04240     -0.99910  
    0.00000      0.99910     -0.04240  
    1.00000     -0.00000      0.00000  

Isotropic polarizability :  18.80386


Timings for individual modules:

Sum of individual times         ...    13163.263 sec (= 219.388 min)
GTO integral calculation        ...        2.015 sec (=   0.034 min)   0.0 %
SCF iterations                  ...     7606.510 sec (= 126.775 min)  57.8 %
Solution of CP-SCF eqns.        ...     5554.739 sec (=  92.579 min)  42.2 %
                             ****ORCA TERMINATED NORMALLY****
TOTAL RUN TIME: 0 days 3 hours 39 minutes 23 seconds 803 msec
