
                                 *****************
                                 * O   R   C   A *
                                 *****************

           --- An Ab Initio, DFT and Semiempirical electronic structure package ---

                  #######################################################
                  #                        -***-                        #
                  #          Department of theory and spectroscopy      #
                  #               Directorship: Frank Neese             #
                  #        Max Planck Institute fuer Kohlenforschung    #
                  #                Kaiser Wilhelm Platz 1               #
                  #                 D-45470 Muelheim/Ruhr               #
                  #                      Germany                        #
                  #                                                     #
                  #                  All rights reserved                #
                  #                        -***-                        #
                  #######################################################


                         Program Version 4.1.2  - RELEASE  -


 With contributions from (in alphabetic order):
   Daniel Aravena         : Magnetic Properties
   Michael Atanasov       : Ab Initio Ligand Field Theory
   Alexander A. Auer      : GIAO ZORA
   Ute Becker             : Parallelization
   Giovanni Bistoni       : ED, Open-shell LED
   Martin Brehm           : Molecular dynamics
   Dmytro Bykov           : SCF Hessian
   Vijay G. Chilkuri      : MRCI spin determinant printing
   Dipayan Datta          : RHF DLPNO-CCSD density
   Achintya Kumar Dutta   : EOM-CC, STEOM-CC
   Dmitry Ganyushin       : Spin-Orbit,Spin-Spin,Magnetic field MRCI
   Miquel Garcia          : C-PCM Hessian
   Yang Guo               : DLPNO-NEVPT2, CIM, IAO-localization
   Andreas Hansen         : Spin unrestricted coupled pair/coupled cluster methods
   Benjamin Helmich-Paris : CASSCF linear response (MC-RPA)
   Lee Huntington         : MR-EOM, pCC
   Robert Izsak           : Overlap fitted RIJCOSX, COSX-SCS-MP3, EOM
   Christian Kollmar      : KDIIS, OOCD, Brueckner-CCSD(T), CCSD density
   Simone Kossmann        : Meta GGA functionals, TD-DFT gradient, OOMP2, MP2 Hessian
   Martin Krupicka        : AUTO-CI
   Lucas Lang             : DCDCAS
   Dagmar Lenk            : GEPOL surface, SMD
   Dimitrios Liakos       : Extrapolation schemes; parallel MDCI
   Dimitrios Manganas     : ROCIS; embedding schemes
   Dimitrios Pantazis     : SARC Basis sets
   Taras Petrenko         : DFT Hessian,TD-DFT gradient, ASA, ECA, R-Raman, ABS, FL, XAS/XES, NRVS
   Peter Pinski           : DLPNO-MP2, DLPNO-MP2 Gradient
   Christoph Reimann      : Effective Core Potentials
   Marius Retegan         : Local ZFS, SOC
   Christoph Riplinger    : Optimizer, TS searches, QM/MM, DLPNO-CCSD(T), (RO)-DLPNO pert. Triples
   Tobias Risthaus        : Range-separated hybrids, TD-DFT gradient, RPA, STAB
   Michael Roemelt        : Restricted open shell CIS
   Masaaki Saitow         : Open-shell DLPNO
   Barbara Sandhoefer     : DKH picture change effects
   Avijit Sen             : IP-ROCIS
   Kantharuban Sivalingam : CASSCF convergence, NEVPT2, FIC-MRCI
   Bernardo de Souza      : ESD, SOC TD-DFT
   Georgi Stoychev        : AutoAux, RI-MP2 NMR
   Willem Van den Heuvel  : Paramagnetic NMR
   Boris Wezisla          : Elementary symmetry handling
   Frank Wennmohs         : Technical directorship


 We gratefully acknowledge several colleagues who have allowed us to
 interface, adapt or use parts of their codes:
   Stefan Grimme, W. Hujo, H. Kruse,             : VdW corrections, initial TS optimization,
                  C. Bannwarth                     DFT functionals, gCP, sTDA/sTD-DF
   Ed Valeev                                     : LibInt (2-el integral package), F12 methods
   Garnet Chan, S. Sharma, J. Yang, R. Olivares  : DMRG
   Ulf Ekstrom                                   : XCFun DFT Library
   Mihaly Kallay                                 : mrcc  (arbitrary order and MRCC methods)
   Andreas Klamt, Michael Diedenhofen            : otool_cosmo (COSMO solvation model)
   Jiri Pittner, Ondrej Demel                    : Mk-CCSD
   Frank Weinhold                                : gennbo (NPA and NBO analysis)
   Christopher J. Cramer and Donald G. Truhlar   : smd solvation model
   Lars Goerigk                                  : TD-DFT with DH, B97 family of functionals
   V. Asgeirsson, H. Jonsson                     : NEB implementation
   FAccTs GmbH                                   : IRC, NEB, NEB-TS, Multilevel


 Your calculation uses the libint2 library for the computation of 2-el integrals
 For citations please refer to: http://libint.valeyev.net

 This ORCA versions uses:
   CBLAS   interface :  Fast vector & matrix operations
   LAPACKE interface :  Fast linear algebra routines
   SCALAPACK package :  Parallel linear algebra routines


----- Orbital basis set information -----
Your calculation utilizes the basis: aug-pc-4
   H, C-F              : F. Jensen, J. Chem. Phys. 115, 9113 (2001).
                         F. Jensen, J. Chem. Phys. 116, 7372 (2002).
                         F. Jensen, J. Chem. Phys. 117, 9234 (2002).
   Si-Cl               : F. Jensen, T. Helgaker, J. Chem. Phys. 121, 3463 (2004).
   He-B, Ne-Mg, Al, Ar : F. Jensen, J. Phys. Chem. A 111, 11198 (2007).
   K, Ca, Ga-Kr        : F. Jensen, J. Chem. Phys. 136, 094110 (2012).
   Sc-Zn               : F. Jensen, J. Chem. Phys. 138, 014107 (2013).

================================================================================
                                        WARNINGS
                       Please study these warnings very carefully!
================================================================================


INFO   : the flag for use of LIBINT has been found!

================================================================================
                                       INPUT FILE
================================================================================
NAME = fh-oh_pbe.inp
|  1> !uks pbe nori aug-pc-4 grid7 nofinalgrid verytightscf
|  2> 
|  3> %maxcore 1500
|  4> 
|  5> %pal nprocs 1 end
|  6> 
|  7> %scf
|  8> 	maxiter 200
|  9> end
| 10> %elprop
| 11> 	dipole true
| 12> 	 polar 1
| 13> 	 maxiter 200
| 14> end
| 15> 
| 16> * xyz 0 2
| 17> H 0.000000 0.000000 0.000000
| 18> F 0.000000 0.000000 0.927729
| 19> O 0.169084 0.000000 -1.803099
| 20> H 1.103782 0.000000 -2.068116
| 21> *
| 22> 
| 23>                          ****END OF INPUT****
================================================================================

                       ****************************
                       * Single Point Calculation *
                       ****************************

---------------------------------
CARTESIAN COORDINATES (ANGSTROEM)
---------------------------------
  H      0.000000    0.000000    0.000000
  F      0.000000    0.000000    0.927729
  O      0.169084    0.000000   -1.803099
  H      1.103782    0.000000   -2.068116

----------------------------
CARTESIAN COORDINATES (A.U.)
----------------------------
  NO LB      ZA    FRAG     MASS         X           Y           Z
   0 H     1.0000    0     1.008    0.000000    0.000000    0.000000
   1 F     9.0000    0    18.998    0.000000    0.000000    1.753154
   2 O     8.0000    0    15.999    0.319522    0.000000   -3.407363
   3 H     1.0000    0     1.008    2.085846    0.000000   -3.908173

--------------------------------
INTERNAL COORDINATES (ANGSTROEM)
--------------------------------
 H      0   0   0     0.000000000000     0.00000000     0.00000000
 F      1   0   0     0.927729000000     0.00000000     0.00000000
 O      1   2   0     1.811009498279   174.64280572     0.00000000
 H      3   1   2     0.971542259242   111.18693629     0.00000000

---------------------------
INTERNAL COORDINATES (A.U.)
---------------------------
 H      0   0   0     0.000000000000     0.00000000     0.00000000
 F      1   0   0     1.753153736497     0.00000000     0.00000000
 O      1   2   0     3.422311977678   174.64280572     0.00000000
 H      3   1   2     1.835948797498   111.18693629     0.00000000

---------------------
BASIS SET INFORMATION
---------------------
There are 3 groups of distinct atoms

 Group   1 Type H   : 12s7p4d3f2g contracted to 8s7p4d3f2g pattern {51111111/1111111/1111/111/11}
 Group   2 Type F   : 27s12p7d4f3g2h contracted to 9s8p7d4f3g2h pattern {1191111111/51111111/1111111/1111/111/11}
 Group   3 Type O   : 27s12p7d4f3g2h contracted to 9s8p7d4f3g2h pattern {1191111111/51111111/1111111/1111/111/11}

Atom   0H    basis set group =>   1
Atom   1F    basis set group =>   2
Atom   2O    basis set group =>   3
Atom   3H    basis set group =>   1
------------------------------------------------------------------------------
                           ORCA GTO INTEGRAL CALCULATION
------------------------------------------------------------------------------

                         BASIS SET STATISTICS AND STARTUP INFO

 # of primitive gaussian shells          ...  166
 # of primitive gaussian functions       ...  534
 # of contracted shells                  ...  114
 # of contracted basis functions         ...  466
 Highest angular momentum                ...    5
 Maximum contraction depth               ...   11
 Integral package used                   ... LIBINT
 Integral threshhold            Thresh   ...  1.000e-12
 Primitive cut-off              TCut     ...  1.000e-14


------------------------------ INTEGRAL EVALUATION ----------------------------


 * One electron integrals 
 Pre-screening matrix                    ... done
 Shell pair data                         ... done (   0.002 sec)

-------------------------------------------------------------------------------
                                 ORCA SCF
-------------------------------------------------------------------------------

------------
SCF SETTINGS
------------
Hamiltonian:
 Density Functional     Method          .... DFT(GTOs)
 Exchange Functional    Exchange        .... PBE
   PBE kappa parameter   XKappa         ....  0.804000
   PBE mue parameter    XMuePBE         ....  0.219520
 Correlation Functional Correlation     .... PBE
   PBE beta parameter  CBetaPBE         ....  0.066725
 LDA part of GGA corr.  LDAOpt          .... PW91-LDA
 Gradients option       PostSCFGGA      .... off
   Density functional embedding theory  .... OFF
   NL short-range parameter             ....  6.400000


General Settings:
 Integral files         IntName         .... fh-oh_pbe
 Hartree-Fock type      HFTyp           .... UHF
 Total Charge           Charge          ....    0
 Multiplicity           Mult            ....    2
 Number of Electrons    NEL             ....   19
 Basis Dimension        Dim             ....  466
 Nuclear Repulsion      ENuc            ....     27.4714926964 Eh

Convergence Acceleration:
 DIIS                   CNVDIIS         .... on
   Start iteration      DIISMaxIt       ....    12
   Startup error        DIISStart       ....  0.200000
   # of expansion vecs  DIISMaxEq       ....     5
   Bias factor          DIISBfac        ....   1.050
   Max. coefficient     DIISMaxC        ....  10.000
 Newton-Raphson         CNVNR           .... off
 SOSCF                  CNVSOSCF        .... off
 Level Shifting         CNVShift        .... on
   Level shift para.    LevelShift      ....    0.2500
   Turn off err/grad.   ShiftErr        ....    0.0010
 Zerner damping         CNVZerner       .... off
 Static damping         CNVDamp         .... on
   Fraction old density DampFac         ....    0.7000
   Max. Damping (<1)    DampMax         ....    0.9800
   Min. Damping (>=0)   DampMin         ....    0.0000
   Turn off err/grad.   DampErr         ....    0.1000
 Fernandez-Rico         CNVRico         .... off

SCF Procedure:
 Maximum # iterations   MaxIter         ....   200
 SCF integral mode      SCFMode         .... Direct
   Integral package                     .... LIBINT
 Reset frequency        DirectResetFreq ....    20
 Integral Threshold     Thresh          ....  1.000e-12 Eh
 Primitive CutOff       TCut            ....  1.000e-14 Eh

Convergence Tolerance:
 Convergence Check Mode ConvCheckMode   .... Total+1el-Energy
 Convergence forced     ConvForced      .... 0
 Energy Change          TolE            ....  1.000e-09 Eh
 1-El. energy change                    ....  1.000e-06 Eh
 DIIS Error             TolErr          ....  1.000e-08


Diagonalization of the overlap matrix:
Smallest eigenvalue                        ... 1.255e-06
Time for diagonalization                   ...    0.050 sec
Threshold for overlap eigenvalues          ... 1.000e-08
Number of eigenvalues below threshold      ... 0
Time for construction of square roots      ...    0.032 sec
Total time needed                          ...    0.083 sec

-------------------
DFT GRID GENERATION
-------------------

General Integration Accuracy     IntAcc      ...  5.670
Radial Grid Type                 RadialGrid  ... Gauss-Chebyshev
Angular Grid (max. acc.)         AngularGrid ... Lebedev-770
Angular grid pruning method      GridPruning ... 3 (G Style)
Weight generation scheme         WeightScheme... Becke
Basis function cutoff            BFCut       ...    1.0000e-12
Integration weight cutoff        WCut        ...    1.0000e-14
Grids for H and He will be reduced by one unit

# of grid points (after initial pruning)     ...  86172 (   0.0 sec)
# of grid points (after weights+screening)   ...  84864 (   0.0 sec)
nearest neighbour list constructed           ...    0.0 sec
Grid point re-assignment to atoms done       ...    0.0 sec
Grid point division into batches done        ...    1.7 sec
Reduced shell lists constructed in    2.9 sec

Total number of grid points                  ...    84864
Total number of batches                      ...     1327
Average number of points per batch           ...       63
Average number of grid points per atom       ...    21216
Average number of shells per batch           ...    77.35 (67.85%)
Average number of basis functions per batch  ...   323.65 (69.45%)
Average number of large shells per batch     ...    67.84 (87.70%)
Average number of large basis fcns per batch ...   284.81 (88.00%)
Maximum spatial batch extension              ...  30.69, 31.48, 19.87 au
Average spatial batch extension              ...   2.07,  2.13,  1.91 au

Time for grid setup =    2.957 sec

------------------------------
INITIAL GUESS: MODEL POTENTIAL
------------------------------
Loading Hartree-Fock densities                     ... done
Calculating cut-offs                               ... done
Setting up the integral package                    ... done
Initializing the effective Hamiltonian             ... done
Starting the Coulomb interaction                   ... done (   0.2 sec)
Reading the grid                                   ... done
Mapping shells                                     ... done
Starting the XC term evaluation                    ... done (   6.9 sec)
  promolecular density results
     # of electrons  =     18.999021209
     EX              =    -18.655819414
     EC              =     -0.616556454
     EX+EC           =    -19.272375868
Transforming the Hamiltonian                       ... done (   0.0 sec)
Diagonalizing the Hamiltonian                      ... done (   0.1 sec)
Back transforming the eigenvectors                 ... done (   0.0 sec)
Now organizing SCF variables                       ... done
                      ------------------
                      INITIAL GUESS DONE (  10.2 sec)
                      ------------------
--------------
SCF ITERATIONS
--------------
ITER       Energy         Delta-E        Max-DP      RMS-DP      [F,P]     Damp
               ***  Starting incremental Fock matrix formation  ***
  0   -176.0528553123   0.000000000000 0.00871358  0.00009856  0.2126773 0.7000
  1   -176.0779146643  -0.025059351997 0.00592274  0.00006272  0.0641042 0.7000
                               ***Turning on DIIS***
  2   -176.0854606307  -0.007545966363 0.01095588  0.00009723  0.0160384 0.0000
  3   -176.1016309788  -0.016170348121 0.00253130  0.00003315  0.0351512 0.0000
  4   -176.1034953468  -0.001864367973 0.00105995  0.00001217  0.0094311 0.0000
  5   -176.1035962846  -0.000100937834 0.00044855  0.00000392  0.0035929 0.0000
  6   -176.1036107279  -0.000014443244 0.00024296  0.00000284  0.0003646 0.0000
  7   -176.1036123096  -0.000001581751 0.00004546  0.00000054  0.0003203 0.0000
  8   -176.1036125024  -0.000000192827 0.00001818  0.00000018  0.0000707 0.0000
  9   -176.1036125239  -0.000000021442 0.00000498  0.00000005  0.0000166 0.0000
 10   -176.1036125257  -0.000000001785 0.00000515  0.00000005  0.0000048 0.0000
 11   -176.1036125258  -0.000000000182 0.00001253  0.00000009  0.0000016 0.0000
 12   -176.1036125259  -0.000000000014 0.00001819  0.00000012  0.0000005 0.0000
                 **** Energy Check signals convergence ****

               *****************************************************
               *                     SUCCESS                       *
               *           SCF CONVERGED AFTER  13 CYCLES          *
               *****************************************************


----------------
TOTAL SCF ENERGY
----------------

Total Energy       :         -176.10361253 Eh           -4792.02292 eV

Components:
Nuclear Repulsion  :           27.47149270 Eh             747.53732 eV
Electronic Energy  :         -203.57510522 Eh           -5539.56024 eV
One Electron Energy:         -298.74745586 Eh           -8129.33156 eV
Two Electron Energy:           95.17235064 Eh            2589.77132 eV

Virial components:
Potential Energy   :         -351.72778236 Eh           -9570.99954 eV
Kinetic Energy     :          175.62416984 Eh            4778.97662 eV
Virial Ratio       :            2.00272994


DFT components:
N(Alpha)           :       10.000000080347 electrons
N(Beta)            :        9.000000079394 electrons
N(Total)           :       19.000000159742 electrons
E(X)               :      -18.908600656652 Eh       
E(C)               :       -0.617654724434 Eh       
E(XC)              :      -19.526255381086 Eh       
DFET-embed. en.    :        0.000000000000 Eh       

---------------
SCF CONVERGENCE
---------------

  Last Energy change         ...   -1.5064e-12  Tolerance :   1.0000e-09
  Last MAX-Density change    ...    2.0672e-05  Tolerance :   1.0000e-08
  Last RMS-Density change    ...    1.1717e-07  Tolerance :   1.0000e-09
  Last DIIS Error            ...    8.8431e-08  Tolerance :   1.0000e-08

             **** THE GBW FILE WAS UPDATED (fh-oh_pbe.gbw) ****
             **** DENSITY FILE WAS UPDATED (fh-oh_pbe.scfp.tmp) ****
             **** ENERGY FILE WAS UPDATED (fh-oh_pbe.en.tmp) ****
----------------------
UHF SPIN CONTAMINATION
----------------------

Warning: in a DFT calculation there is little theoretical justification to 
         calculate <S**2> as in Hartree-Fock theory. We will do it anyways
         but you should keep in mind that the values have only limited relevance

Expectation value of <S**2>     :     0.752392
Ideal value S*(S+1) for S=0.5   :     0.750000
Deviation                       :     0.002392

----------------
ORBITAL ENERGIES
----------------
                 SPIN UP ORBITALS
  NO   OCC          E(Eh)            E(eV) 
   0   1.0000     -24.222642      -659.1316 
   1   1.0000     -18.873001      -513.5605 
   2   1.0000      -1.074067       -29.2268 
   3   1.0000      -0.979502       -26.6536 
   4   1.0000      -0.487948       -13.2777 
   5   1.0000      -0.456618       -12.4252 
   6   1.0000      -0.409958       -11.1555 
   7   1.0000      -0.341490        -9.2924 
   8   1.0000      -0.329727        -8.9723 
   9   1.0000      -0.328031        -8.9262 
  10   0.0000      -0.048437        -1.3180 
  11   0.0000       0.010018         0.2726 
  12   0.0000       0.020084         0.5465 
  13   0.0000       0.020099         0.5469 
  14   0.0000       0.029884         0.8132 
  15   0.0000       0.049913         1.3582 
  16   0.0000       0.057589         1.5671 
  17   0.0000       0.061721         1.6795 
  18   0.0000       0.063204         1.7199 
  19   0.0000       0.077997         2.1224 
  20   0.0000       0.080125         2.1803 
  21   0.0000       0.096316         2.6209 
  22   0.0000       0.108043         2.9400 
  23   0.0000       0.112482         3.0608 
  24   0.0000       0.114950         3.1279 
  25   0.0000       0.126523         3.4429 
  26   0.0000       0.136842         3.7236 
  27   0.0000       0.140981         3.8363 
  28   0.0000       0.150286         4.0895 
  29   0.0000       0.157135         4.2758 
  30   0.0000       0.165542         4.5046 
  31   0.0000       0.166874         4.5409 
  32   0.0000       0.187845         5.1115 
  33   0.0000       0.194323         5.2878 
  34   0.0000       0.204016         5.5516 
  35   0.0000       0.207947         5.6585 
  36   0.0000       0.217570         5.9204 
  37   0.0000       0.221260         6.0208 
  38   0.0000       0.221947         6.0395 
  39   0.0000       0.226728         6.1696 
  40   0.0000       0.232683         6.3316 
  41   0.0000       0.246134         6.6977 
  42   0.0000       0.246998         6.7211 
  43   0.0000       0.253151         6.8886 
  44   0.0000       0.268259         7.2997 
  45   0.0000       0.269603         7.3363 
  46   0.0000       0.287023         7.8103 
  47   0.0000       0.293406         7.9840 
  48   0.0000       0.310682         8.4541 
  49   0.0000       0.315838         8.5944 
  50   0.0000       0.316514         8.6128 
  51   0.0000       0.330667         8.9979 
  52   0.0000       0.343797         9.3552 
  53   0.0000       0.359501         9.7825 
  54   0.0000       0.364163         9.9094 
  55   0.0000       0.366580         9.9751 
  56   0.0000       0.368173        10.0185 
  57   0.0000       0.376304        10.2397 
  58   0.0000       0.385255        10.4833 
  59   0.0000       0.389015        10.5856 
  60   0.0000       0.397674        10.8213 
  61   0.0000       0.416059        11.3215 
  62   0.0000       0.416399        11.3308 
  63   0.0000       0.419528        11.4159 
  64   0.0000       0.428073        11.6484 
  65   0.0000       0.444808        12.1039 
  66   0.0000       0.451585        12.2883 
  67   0.0000       0.454847        12.3770 
  68   0.0000       0.463176        12.6037 
  69   0.0000       0.475957        12.9514 
  70   0.0000       0.483345        13.1525 
  71   0.0000       0.485259        13.2046 
  72   0.0000       0.492580        13.4038 
  73   0.0000       0.496289        13.5047 
  74   0.0000       0.500698        13.6247 
  75   0.0000       0.504131        13.7181 
  76   0.0000       0.516624        14.0581 
  77   0.0000       0.520184        14.1549 
  78   0.0000       0.529020        14.3954 
  79   0.0000       0.533754        14.5242 
  80   0.0000       0.537919        14.6375 
  81   0.0000       0.554752        15.0956 
  82   0.0000       0.564541        15.3619 
  83   0.0000       0.572817        15.5872 
  84   0.0000       0.579865        15.7789 
  85   0.0000       0.584243        15.8980 
  86   0.0000       0.591025        16.0826 
  87   0.0000       0.607092        16.5198 
  88   0.0000       0.611700        16.6452 
  89   0.0000       0.619444        16.8559 
  90   0.0000       0.629914        17.1408 
  91   0.0000       0.636657        17.3243 
  92   0.0000       0.652451        17.7541 
  93   0.0000       0.658605        17.9216 
  94   0.0000       0.678813        18.4714 
  95   0.0000       0.681443        18.5430 
  96   0.0000       0.716637        19.5007 
  97   0.0000       0.716918        19.5083 
  98   0.0000       0.728155        19.8141 
  99   0.0000       0.732393        19.9294 
 100   0.0000       0.738769        20.1029 
 101   0.0000       0.744032        20.2461 
 102   0.0000       0.750258        20.4156 
 103   0.0000       0.761158        20.7121 
 104   0.0000       0.762393        20.7458 
 105   0.0000       0.766834        20.8666 
 106   0.0000       0.778951        21.1963 
 107   0.0000       0.785593        21.3771 
 108   0.0000       0.792816        21.5736 
 109   0.0000       0.805414        21.9164 
 110   0.0000       0.813980        22.1495 
 111   0.0000       0.839771        22.8513 
 112   0.0000       0.846422        23.0323 
 113   0.0000       0.855999        23.2929 
 114   0.0000       0.860774        23.4229 
 115   0.0000       0.869492        23.6601 
 116   0.0000       0.881001        23.9733 
 117   0.0000       0.903717        24.5914 
 118   0.0000       0.904852        24.6223 
 119   0.0000       0.915006        24.8986 
 120   0.0000       0.939307        25.5598 
 121   0.0000       0.940597        25.5950 
 122   0.0000       0.951419        25.8894 
 123   0.0000       0.955727        26.0067 
 124   0.0000       0.972617        26.4663 
 125   0.0000       0.976172        26.5630 
 126   0.0000       0.983858        26.7721 
 127   0.0000       0.996214        27.1084 
 128   0.0000       0.997555        27.1449 
 129   0.0000       1.019754        27.7489 
 130   0.0000       1.024323        27.8733 
 131   0.0000       1.036156        28.1952 
 132   0.0000       1.042666        28.3724 
 133   0.0000       1.043886        28.4056 
 134   0.0000       1.051903        28.6237 
 135   0.0000       1.061435        28.8831 
 136   0.0000       1.072066        29.1724 
 137   0.0000       1.078010        29.3342 
 138   0.0000       1.084538        29.5118 
 139   0.0000       1.103900        30.0386 
 140   0.0000       1.104207        30.0470 
 141   0.0000       1.127887        30.6914 
 142   0.0000       1.137238        30.9458 
 143   0.0000       1.161745        31.6127 
 144   0.0000       1.174667        31.9643 
 145   0.0000       1.182425        32.1754 
 146   0.0000       1.191455        32.4211 
 147   0.0000       1.194777        32.5115 
 148   0.0000       1.203685        32.7539 
 149   0.0000       1.217280        33.1239 
 150   0.0000       1.217616        33.1330 
 151   0.0000       1.237841        33.6834 
 152   0.0000       1.257599        34.2210 
 153   0.0000       1.288478        35.0613 
 154   0.0000       1.329664        36.1820 
 155   0.0000       1.329747        36.1843 
 156   0.0000       1.343527        36.5592 
 157   0.0000       1.348116        36.6841 
 158   0.0000       1.353412        36.8282 
 159   0.0000       1.368498        37.2387 
 160   0.0000       1.384779        37.6818 
 161   0.0000       1.386342        37.7243 
 162   0.0000       1.411788        38.4167 
 163   0.0000       1.434273        39.0285 
 164   0.0000       1.461454        39.7682 
 165   0.0000       1.461517        39.7699 
 166   0.0000       1.484374        40.3919 
 167   0.0000       1.492754        40.6199 
 168   0.0000       1.513171        41.1755 
 169   0.0000       1.545574        42.0572 
 170   0.0000       1.575262        42.8650 
 171   0.0000       1.579937        42.9923 
 172   0.0000       1.582187        43.0535 
 173   0.0000       1.622503        44.1506 
 174   0.0000       1.633355        44.4459 
 175   0.0000       1.653967        45.0067 
 176   0.0000       1.692758        46.0623 
 177   0.0000       1.728886        47.0454 
 178   0.0000       1.745711        47.5032 
 179   0.0000       1.759294        47.8728 
 180   0.0000       1.782456        48.5031 
 181   0.0000       1.800662        48.9985 
 182   0.0000       1.849080        50.3160 
 183   0.0000       1.883274        51.2465 
 184   0.0000       1.893872        51.5349 
 185   0.0000       1.928206        52.4692 
 186   0.0000       1.991935        54.2033 
 187   0.0000       2.023415        55.0599 
 188   0.0000       2.074478        56.4494 
 189   0.0000       2.105857        57.3033 
 190   0.0000       2.167712        58.9864 
 191   0.0000       2.200766        59.8859 
 192   0.0000       2.243373        61.0453 
 193   0.0000       2.272969        61.8506 
 194   0.0000       2.304509        62.7089 
 195   0.0000       2.315448        63.0066 
 196   0.0000       2.373956        64.5986 
 197   0.0000       2.375334        64.6361 
 198   0.0000       2.400186        65.3124 
 199   0.0000       2.400929        65.3326 
 200   0.0000       2.419144        65.8282 
 201   0.0000       2.423986        65.9600 
 202   0.0000       2.483887        67.5900 
 203   0.0000       2.517296        68.4991 
 204   0.0000       2.584794        70.3358 
 205   0.0000       2.637560        71.7717 
 206   0.0000       2.662707        72.4559 
 207   0.0000       2.777631        75.5832 
 208   0.0000       2.831881        77.0594 
 209   0.0000       2.846097        77.4462 
 210   0.0000       2.880128        78.3723 
 211   0.0000       2.912673        79.2579 
 212   0.0000       2.932828        79.8063 
 213   0.0000       2.989302        81.3430 
 214   0.0000       3.160955        86.0140 
 215   0.0000       3.250650        88.4547 
 216   0.0000       3.320283        90.3495 
 217   0.0000       3.358103        91.3786 
 218   0.0000       3.389313        92.2279 
 219   0.0000       3.404182        92.6325 
 220   0.0000       3.421456        93.1026 
 221   0.0000       3.444902        93.7405 
 222   0.0000       3.495494        95.1172 
 223   0.0000       3.524341        95.9022 
 224   0.0000       3.562183        96.9319 
 225   0.0000       3.591747        97.7364 
 226   0.0000       3.593721        97.7901 
 227   0.0000       3.654591        99.4465 
 228   0.0000       3.710227       100.9604 
 229   0.0000       3.723005       101.3081 
 230   0.0000       3.747802       101.9829 
 231   0.0000       3.882958       105.6606 
 232   0.0000       3.923492       106.7636 
 233   0.0000       3.936476       107.1170 
 234   0.0000       3.938375       107.1686 
 235   0.0000       3.955672       107.6393 
 236   0.0000       4.045873       110.0938 
 237   0.0000       4.110415       111.8501 
 238   0.0000       4.113793       111.9420 
 239   0.0000       4.225259       114.9751 
 240   0.0000       4.229190       115.0821 
 241   0.0000       4.265929       116.0818 
 242   0.0000       4.309375       117.2641 
 243   0.0000       4.467646       121.5708 
 244   0.0000       4.505611       122.6039 
 245   0.0000       4.528536       123.2277 
 246   0.0000       4.573173       124.4424 
 247   0.0000       4.622348       125.7805 
 248   0.0000       4.735207       128.8515 
 249   0.0000       4.895647       133.2173 
 250   0.0000       4.930419       134.1635 
 251   0.0000       5.025079       136.7393 
 252   0.0000       5.203775       141.6019 
 253   0.0000       5.244394       142.7072 
 254   0.0000       5.271902       143.4558 
 255   0.0000       5.278287       143.6295 
 256   0.0000       5.368269       146.0780 
 257   0.0000       5.417947       147.4298 
 258   0.0000       5.422718       147.5596 
 259   0.0000       5.492447       149.4571 
 260   0.0000       5.548669       150.9870 
 261   0.0000       5.576120       151.7339 
 262   0.0000       5.589713       152.1038 
 263   0.0000       5.615952       152.8178 
 264   0.0000       5.730160       155.9256 
 265   0.0000       5.797589       157.7604 
 266   0.0000       6.001165       163.3000 
 267   0.0000       6.001577       163.3112 
 268   0.0000       6.071622       165.2172 
 269   0.0000       6.131068       166.8348 
 270   0.0000       6.178481       168.1250 
 271   0.0000       6.199157       168.6876 
 272   0.0000       6.201203       168.7433 
 273   0.0000       6.203975       168.8188 
 274   0.0000       6.303651       171.5311 
 275   0.0000       6.346938       172.7090 
 276   0.0000       6.519760       177.4117 
 277   0.0000       6.547593       178.1691 
 278   0.0000       6.641480       180.7239 
 279   0.0000       6.656932       181.1443 
 280   0.0000       6.858171       186.6203 
 281   0.0000       7.014543       190.8754 
 282   0.0000       7.120382       193.7555 
 283   0.0000       7.131967       194.0707 
 284   0.0000       7.158988       194.8060 
 285   0.0000       7.159836       194.8291 
 286   0.0000       7.281388       198.1366 
 287   0.0000       7.316672       199.0968 
 288   0.0000       7.361625       200.3200 
 289   0.0000       7.393009       201.1740 
 290   0.0000       7.409960       201.6353 
 291   0.0000       7.417779       201.8480 
 292   0.0000       7.443282       202.5420 
 293   0.0000       7.599942       206.8049 
 294   0.0000       8.233259       224.0384 
 295   0.0000       8.297407       225.7839 
 296   0.0000       8.329521       226.6578 
 297   0.0000       8.344648       227.0694 
 298   0.0000       8.347590       227.1495 
 299   0.0000       8.399518       228.5625 
 300   0.0000       8.532087       232.1699 
 301   0.0000       8.766356       238.5447 
 302   0.0000       8.771843       238.6940 
 303   0.0000       8.810246       239.7390 
 304   0.0000       8.862434       241.1591 
 305   0.0000       9.000319       244.9111 
 306   0.0000       9.094512       247.4743 
 307   0.0000       9.122873       248.2460 
 308   0.0000       9.198572       250.3059 
 309   0.0000       9.324125       253.7224 
 310   0.0000       9.394039       255.6248 
 311   0.0000       9.601408       261.2676 
 312   0.0000       9.749883       265.3078 
 313   0.0000       9.993016       271.9238 
 314   0.0000      10.347060       281.5578 
 315   0.0000      10.494110       285.5593 
 316   0.0000      10.645171       289.6698 
 317   0.0000      10.665775       290.2305 
 318   0.0000      10.775480       293.2157 
 319   0.0000      10.892806       296.4083 
 320   0.0000      11.078314       301.4563 
 321   0.0000      11.273369       306.7640 
 322   0.0000      11.478486       312.3455 
 323   0.0000      11.630515       316.4824 
 324   0.0000      11.675986       317.7197 
 325   0.0000      11.705880       318.5332 
 326   0.0000      11.745066       319.5995 
 327   0.0000      11.783330       320.6407 
 328   0.0000      11.893721       323.6446 
 329   0.0000      11.908951       324.0590 
 330   0.0000      11.918602       324.3217 
 331   0.0000      11.970861       325.7437 
 332   0.0000      12.009161       326.7859 
 333   0.0000      12.054637       328.0233 
 334   0.0000      12.057134       328.0913 
 335   0.0000      12.061944       328.2222 
 336   0.0000      12.096425       329.1604 
 337   0.0000      12.284829       334.2872 
 338   0.0000      12.304053       334.8103 
 339   0.0000      12.329234       335.4955 
 340   0.0000      12.413954       337.8009 
 341   0.0000      12.507072       340.3347 
 342   0.0000      12.527285       340.8848 
 343   0.0000      12.553533       341.5990 
 344   0.0000      12.622979       343.4887 
 345   0.0000      12.623173       343.4940 
 346   0.0000      12.666683       344.6780 
 347   0.0000      12.666798       344.6811 
 348   0.0000      12.712463       345.9237 
 349   0.0000      12.720781       346.1501 
 350   0.0000      12.720787       346.1502 
 351   0.0000      12.746206       346.8419 
 352   0.0000      12.826532       349.0277 
 353   0.0000      12.831469       349.1620 
 354   0.0000      13.041675       354.8820 
 355   0.0000      13.068088       355.6007 
 356   0.0000      13.068612       355.6150 
 357   0.0000      13.649113       371.4112 
 358   0.0000      13.679143       372.2284 
 359   0.0000      13.701783       372.8445 
 360   0.0000      13.748704       374.1213 
 361   0.0000      13.775042       374.8380 
 362   0.0000      14.002055       381.0153 
 363   0.0000      14.276963       388.4959 
 364   0.0000      14.322035       389.7224 
 365   0.0000      14.495876       394.4528 
 366   0.0000      14.601394       397.3241 
 367   0.0000      14.677295       399.3895 
 368   0.0000      14.699881       400.0041 
 369   0.0000      14.736046       400.9882 
 370   0.0000      15.038282       409.2125 
 371   0.0000      15.039567       409.2474 
 372   0.0000      15.063270       409.8924 
 373   0.0000      15.394279       418.8996 
 374   0.0000      15.522183       422.3801 
 375   0.0000      15.523297       422.4104 
 376   0.0000      15.611495       424.8104 
 377   0.0000      15.731636       428.0796 
 378   0.0000      16.252681       442.2579 
 379   0.0000      16.652454       453.1363 
 380   0.0000      16.659315       453.3230 
 381   0.0000      16.778957       456.5786 
 382   0.0000      16.779006       456.5800 
 383   0.0000      16.916975       460.3343 
 384   0.0000      16.959389       461.4884 
 385   0.0000      16.965313       461.6496 
 386   0.0000      17.015210       463.0074 
 387   0.0000      17.041677       463.7276 
 388   0.0000      17.138445       466.3608 
 389   0.0000      17.143133       466.4884 
 390   0.0000      17.367877       472.6040 
 391   0.0000      17.424951       474.1570 
 392   0.0000      17.580396       478.3869 
 393   0.0000      17.584051       478.4864 
 394   0.0000      17.632679       479.8096 
 395   0.0000      17.662732       480.6274 
 396   0.0000      17.838819       485.4189 
 397   0.0000      17.839465       485.4365 
 398   0.0000      17.853893       485.8291 
 399   0.0000      18.249487       496.5938 
 400   0.0000      18.277808       497.3644 
 401   0.0000      18.904528       514.4184 
 402   0.0000      18.913283       514.6566 
 403   0.0000      19.623083       533.9712 
 404   0.0000      19.625901       534.0479 
 405   0.0000      19.655587       534.8557 
 406   0.0000      19.686619       535.7001 
 407   0.0000      20.153538       548.4056 
 408   0.0000      20.153787       548.4124 
 409   0.0000      20.302986       552.4723 
 410   0.0000      20.310053       552.6646 
 411   0.0000      20.338022       553.4257 
 412   0.0000      20.338043       553.4263 
 413   0.0000      20.559403       559.4498 
 414   0.0000      20.825519       566.6912 
 415   0.0000      20.908529       568.9500 
 416   0.0000      20.975873       570.7825 
 417   0.0000      21.013117       571.7960 
 418   0.0000      21.420471       582.8806 
 419   0.0000      22.812547       620.7610 
 420   0.0000      22.859346       622.0344 
 421   0.0000      22.946189       624.3975 
 422   0.0000      23.088725       628.2762 
 423   0.0000      23.214751       631.7055 
 424   0.0000      23.454917       638.2407 
 425   0.0000      23.583033       641.7270 
 426   0.0000      23.653522       643.6450 
 427   0.0000      23.843144       648.8049 
 428   0.0000      24.148740       657.1206 
 429   0.0000      24.197633       658.4511 
 430   0.0000      26.545782       722.3474 
 431   0.0000      27.072555       736.6817 
 432   0.0000      28.717660       781.4473 
 433   0.0000      30.382866       826.7598 
 434   0.0000      30.391978       827.0078 
 435   0.0000      30.493771       829.7777 
 436   0.0000      31.055817       845.0717 
 437   0.0000      31.119798       846.8127 
 438   0.0000      31.886581       867.6780 
 439   0.0000      32.441854       882.7877 
 440   0.0000      33.996703       925.0973 
 441   0.0000      34.437800       937.1002 
 442   0.0000      41.135611      1119.3569 
 443   0.0000      41.201313      1121.1447 
 444   0.0000      41.913989      1140.5376 
 445   0.0000      41.984462      1142.4553 
 446   0.0000      42.542517      1157.6408 
 447   0.0000      45.537505      1239.1385 
 448   0.0000      66.486429      1809.1877 
 449   0.0000      66.620251      1812.8292 
 450   0.0000      66.783613      1817.2745 
 451   0.0000      67.015513      1823.5848 
 452   0.0000      68.579288      1866.1373 
 453   0.0000      90.895888      2473.4029 
 454   0.0000      90.999136      2476.2124 
 455   0.0000      91.123894      2479.6072 
 456   0.0000      91.165291      2480.7337 
 457   0.0000      91.312871      2484.7495 
 458   0.0000      91.322689      2485.0167 
 459   0.0000      91.770133      2497.1923 
 460   0.0000      91.814808      2498.4079 
 461   0.0000      93.032596      2531.5456 
 462   0.0000      93.336116      2539.8048 
 463   0.0000      95.275081      2592.5667 
 464   0.0000     143.302120      3899.4489 
 465   0.0000     203.113771      5527.0067 

                 SPIN DOWN ORBITALS
  NO   OCC          E(Eh)            E(eV) 
   0   1.0000     -24.222359      -659.1239 
   1   1.0000     -18.849400      -512.9182 
   2   1.0000      -1.073411       -29.2090 
   3   1.0000      -0.922252       -25.0958 
   4   1.0000      -0.478787       -13.0285 
   5   1.0000      -0.442421       -12.0389 
   6   1.0000      -0.329663        -8.9706 
   7   1.0000      -0.329007        -8.9527 
   8   1.0000      -0.317857        -8.6493 
   9   0.0000      -0.279454        -7.6043 
  10   0.0000      -0.042715        -1.1623 
  11   0.0000       0.010749         0.2925 
  12   0.0000       0.020673         0.5625 
  13   0.0000       0.026430         0.7192 
  14   0.0000       0.031305         0.8519 
  15   0.0000       0.050344         1.3699 
  16   0.0000       0.057713         1.5704 
  17   0.0000       0.062225         1.6932 
  18   0.0000       0.064196         1.7469 
  19   0.0000       0.080808         2.1989 
  20   0.0000       0.083776         2.2797 
  21   0.0000       0.097184         2.6445 
  22   0.0000       0.109658         2.9839 
  23   0.0000       0.116277         3.1641 
  24   0.0000       0.118136         3.2146 
  25   0.0000       0.128916         3.5080 
  26   0.0000       0.141594         3.8530 
  27   0.0000       0.142332         3.8730 
  28   0.0000       0.150904         4.1063 
  29   0.0000       0.158824         4.3218 
  30   0.0000       0.166914         4.5420 
  31   0.0000       0.167101         4.5470 
  32   0.0000       0.191343         5.2067 
  33   0.0000       0.195068         5.3081 
  34   0.0000       0.206838         5.6284 
  35   0.0000       0.211597         5.7578 
  36   0.0000       0.218391         5.9427 
  37   0.0000       0.223638         6.0855 
  38   0.0000       0.227692         6.1958 
  39   0.0000       0.228147         6.2082 
  40   0.0000       0.233436         6.3521 
  41   0.0000       0.248969         6.7748 
  42   0.0000       0.249034         6.7766 
  43   0.0000       0.258142         7.0244 
  44   0.0000       0.269176         7.3247 
  45   0.0000       0.272207         7.4071 
  46   0.0000       0.287194         7.8149 
  47   0.0000       0.295590         8.0434 
  48   0.0000       0.311822         8.4851 
  49   0.0000       0.317300         8.6342 
  50   0.0000       0.317315         8.6346 
  51   0.0000       0.332983         9.0609 
  52   0.0000       0.344528         9.3751 
  53   0.0000       0.361561         9.8386 
  54   0.0000       0.368002        10.0138 
  55   0.0000       0.369409        10.0521 
  56   0.0000       0.370975        10.0948 
  57   0.0000       0.379112        10.3162 
  58   0.0000       0.385769        10.4973 
  59   0.0000       0.391280        10.6473 
  60   0.0000       0.398652        10.8479 
  61   0.0000       0.417978        11.3738 
  62   0.0000       0.417980        11.3738 
  63   0.0000       0.429044        11.6749 
  64   0.0000       0.429579        11.6894 
  65   0.0000       0.446212        12.1421 
  66   0.0000       0.452942        12.3252 
  67   0.0000       0.458973        12.4893 
  68   0.0000       0.467878        12.7316 
  69   0.0000       0.479010        13.0345 
  70   0.0000       0.488222        13.2852 
  71   0.0000       0.493130        13.4187 
  72   0.0000       0.493622        13.4321 
  73   0.0000       0.501609        13.6495 
  74   0.0000       0.502026        13.6608 
  75   0.0000       0.507935        13.8216 
  76   0.0000       0.517872        14.0920 
  77   0.0000       0.521707        14.1964 
  78   0.0000       0.532727        14.4962 
  79   0.0000       0.538422        14.6512 
  80   0.0000       0.541110        14.7244 
  81   0.0000       0.558336        15.1931 
  82   0.0000       0.566825        15.4241 
  83   0.0000       0.574439        15.6313 
  84   0.0000       0.581696        15.8288 
  85   0.0000       0.586553        15.9609 
  86   0.0000       0.594466        16.1763 
  87   0.0000       0.610573        16.6145 
  88   0.0000       0.614405        16.7188 
  89   0.0000       0.622846        16.9485 
  90   0.0000       0.634788        17.2734 
  91   0.0000       0.639374        17.3982 
  92   0.0000       0.653395        17.7798 
  93   0.0000       0.660432        17.9713 
  94   0.0000       0.683593        18.6015 
  95   0.0000       0.685997        18.6669 
  96   0.0000       0.718552        19.5528 
  97   0.0000       0.721711        19.6388 
  98   0.0000       0.729148        19.8411 
  99   0.0000       0.734549        19.9881 
 100   0.0000       0.740194        20.1417 
 101   0.0000       0.745199        20.2779 
 102   0.0000       0.753955        20.5161 
 103   0.0000       0.763918        20.7873 
 104   0.0000       0.765963        20.8429 
 105   0.0000       0.768144        20.9023 
 106   0.0000       0.782707        21.2985 
 107   0.0000       0.791343        21.5335 
 108   0.0000       0.796092        21.6628 
 109   0.0000       0.809584        22.0299 
 110   0.0000       0.817066        22.2335 
 111   0.0000       0.841533        22.8993 
 112   0.0000       0.854553        23.2536 
 113   0.0000       0.861159        23.4333 
 114   0.0000       0.863470        23.4962 
 115   0.0000       0.877729        23.8842 
 116   0.0000       0.886885        24.1334 
 117   0.0000       0.910883        24.7864 
 118   0.0000       0.918374        24.9902 
 119   0.0000       0.922219        25.0949 
 120   0.0000       0.946140        25.7458 
 121   0.0000       0.947841        25.7921 
 122   0.0000       0.954736        25.9797 
 123   0.0000       0.968621        26.3575 
 124   0.0000       0.978729        26.6326 
 125   0.0000       0.981400        26.7053 
 126   0.0000       0.987392        26.8683 
 127   0.0000       1.003487        27.3063 
 128   0.0000       1.004145        27.3242 
 129   0.0000       1.022081        27.8122 
 130   0.0000       1.030488        28.0410 
 131   0.0000       1.041635        28.3443 
 132   0.0000       1.045518        28.4500 
 133   0.0000       1.048363        28.5274 
 134   0.0000       1.056672        28.7535 
 135   0.0000       1.066155        29.0116 
 136   0.0000       1.075277        29.2598 
 137   0.0000       1.081076        29.4176 
 138   0.0000       1.087401        29.5897 
 139   0.0000       1.105949        30.0944 
 140   0.0000       1.107340        30.1323 
 141   0.0000       1.129515        30.7357 
 142   0.0000       1.143323        31.1114 
 143   0.0000       1.168526        31.7972 
 144   0.0000       1.181901        32.1612 
 145   0.0000       1.186509        32.2866 
 146   0.0000       1.193717        32.4827 
 147   0.0000       1.204202        32.7680 
 148   0.0000       1.205240        32.7963 
 149   0.0000       1.218838        33.1663 
 150   0.0000       1.218995        33.1705 
 151   0.0000       1.239523        33.7291 
 152   0.0000       1.264253        34.4021 
 153   0.0000       1.292411        35.1683 
 154   0.0000       1.330536        36.2057 
 155   0.0000       1.330579        36.2069 
 156   0.0000       1.346815        36.6487 
 157   0.0000       1.353979        36.8436 
 158   0.0000       1.356129        36.9021 
 159   0.0000       1.371994        37.3339 
 160   0.0000       1.389239        37.8031 
 161   0.0000       1.390839        37.8466 
 162   0.0000       1.417354        38.5682 
 163   0.0000       1.437902        39.1273 
 164   0.0000       1.463004        39.8104 
 165   0.0000       1.466361        39.9017 
 166   0.0000       1.486671        40.4544 
 167   0.0000       1.496133        40.7118 
 168   0.0000       1.514365        41.2080 
 169   0.0000       1.550062        42.1793 
 170   0.0000       1.579689        42.9855 
 171   0.0000       1.586917        43.1822 
 172   0.0000       1.588175        43.2164 
 173   0.0000       1.635461        44.5031 
 174   0.0000       1.636198        44.5232 
 175   0.0000       1.655305        45.0431 
 176   0.0000       1.694293        46.1040 
 177   0.0000       1.741501        47.3887 
 178   0.0000       1.751950        47.6730 
 179   0.0000       1.764978        48.0275 
 180   0.0000       1.798334        48.9352 
 181   0.0000       1.815115        49.3918 
 182   0.0000       1.857500        50.5451 
 183   0.0000       1.921323        52.2818 
 184   0.0000       1.922670        52.3185 
 185   0.0000       1.931304        52.5535 
 186   0.0000       1.996156        54.3182 
 187   0.0000       2.029919        55.2369 
 188   0.0000       2.107693        57.3532 
 189   0.0000       2.146105        58.3985 
 190   0.0000       2.176933        59.2373 
 191   0.0000       2.225775        60.5664 
 192   0.0000       2.258820        61.4656 
 193   0.0000       2.286596        62.2214 
 194   0.0000       2.309055        62.8326 
 195   0.0000       2.317383        63.0592 
 196   0.0000       2.389542        65.0227 
 197   0.0000       2.390867        65.0588 
 198   0.0000       2.401567        65.3500 
 199   0.0000       2.404081        65.4184 
 200   0.0000       2.422419        65.9174 
 201   0.0000       2.429846        66.1195 
 202   0.0000       2.487732        67.6946 
 203   0.0000       2.524148        68.6856 
 204   0.0000       2.586621        70.3855 
 205   0.0000       2.664670        72.5094 
 206   0.0000       2.669885        72.6513 
 207   0.0000       2.788846        75.8884 
 208   0.0000       2.833322        77.0986 
 209   0.0000       2.849957        77.5513 
 210   0.0000       2.885001        78.5049 
 211   0.0000       2.916531        79.3629 
 212   0.0000       2.937546        79.9347 
 213   0.0000       3.005234        81.7766 
 214   0.0000       3.168370        86.2157 
 215   0.0000       3.255086        88.5754 
 216   0.0000       3.328247        90.5662 
 217   0.0000       3.359230        91.4093 
 218   0.0000       3.394263        92.3626 
 219   0.0000       3.408447        92.7486 
 220   0.0000       3.434413        93.4551 
 221   0.0000       3.445201        93.7487 
 222   0.0000       3.509209        95.4904 
 223   0.0000       3.528110        96.0047 
 224   0.0000       3.565297        97.0167 
 225   0.0000       3.593668        97.7887 
 226   0.0000       3.596928        97.8774 
 227   0.0000       3.661796        99.6425 
 228   0.0000       3.719190       101.2043 
 229   0.0000       3.728707       101.4633 
 230   0.0000       3.752157       102.1014 
 231   0.0000       3.886782       105.7647 
 232   0.0000       3.929786       106.9349 
 233   0.0000       3.940640       107.2303 
 234   0.0000       3.945751       107.3693 
 235   0.0000       3.971131       108.0600 
 236   0.0000       4.073787       110.8534 
 237   0.0000       4.129884       112.3799 
 238   0.0000       4.161842       113.2495 
 239   0.0000       4.250151       115.6525 
 240   0.0000       4.258455       115.8784 
 241   0.0000       4.276170       116.3605 
 242   0.0000       4.345053       118.2349 
 243   0.0000       4.477679       121.8438 
 244   0.0000       4.525940       123.1571 
 245   0.0000       4.577167       124.5510 
 246   0.0000       4.590614       124.9170 
 247   0.0000       4.656398       126.7070 
 248   0.0000       4.743839       129.0864 
 249   0.0000       4.908126       133.5569 
 250   0.0000       4.947947       134.6405 
 251   0.0000       5.053021       137.4997 
 252   0.0000       5.217807       141.9838 
 253   0.0000       5.247968       142.8045 
 254   0.0000       5.275044       143.5412 
 255   0.0000       5.318550       144.7251 
 256   0.0000       5.417657       147.4219 
 257   0.0000       5.446897       148.2176 
 258   0.0000       5.454566       148.4263 
 259   0.0000       5.518971       150.1788 
 260   0.0000       5.556428       151.1981 
 261   0.0000       5.603261       152.4725 
 262   0.0000       5.629408       153.1840 
 263   0.0000       5.634153       153.3131 
 264   0.0000       5.744788       156.3236 
 265   0.0000       5.804497       157.9484 
 266   0.0000       6.020916       163.8375 
 267   0.0000       6.043651       164.4561 
 268   0.0000       6.105040       166.1266 
 269   0.0000       6.160549       167.6371 
 270   0.0000       6.202420       168.7764 
 271   0.0000       6.202721       168.7846 
 272   0.0000       6.211746       169.0302 
 273   0.0000       6.224013       169.3640 
 274   0.0000       6.313905       171.8101 
 275   0.0000       6.352323       172.8555 
 276   0.0000       6.522221       177.4787 
 277   0.0000       6.551664       178.2798 
 278   0.0000       6.665035       181.3648 
 279   0.0000       6.666446       181.4032 
 280   0.0000       6.872144       187.0005 
 281   0.0000       7.043643       191.6673 
 282   0.0000       7.153286       194.6508 
 283   0.0000       7.156362       194.7345 
 284   0.0000       7.159810       194.8283 
 285   0.0000       7.161693       194.8796 
 286   0.0000       7.314791       199.0456 
 287   0.0000       7.322650       199.2594 
 288   0.0000       7.392162       201.1510 
 289   0.0000       7.393625       201.1908 
 290   0.0000       7.412362       201.7006 
 291   0.0000       7.435685       202.3353 
 292   0.0000       7.443526       202.5486 
 293   0.0000       7.608588       207.0402 
 294   0.0000       8.238213       224.1732 
 295   0.0000       8.300519       225.8686 
 296   0.0000       8.335470       226.8197 
 297   0.0000       8.344954       227.0777 
 298   0.0000       8.348156       227.1649 
 299   0.0000       8.400455       228.5880 
 300   0.0000       8.529751       232.1063 
 301   0.0000       8.767887       238.5863 
 302   0.0000       8.773126       238.7289 
 303   0.0000       8.811832       239.7821 
 304   0.0000       8.866624       241.2731 
 305   0.0000       9.001683       244.9483 
 306   0.0000       9.096072       247.5167 
 307   0.0000       9.122979       248.2489 
 308   0.0000       9.267257       252.1749 
 309   0.0000       9.353386       254.5186 
 310   0.0000       9.482921       258.0434 
 311   0.0000       9.671266       263.1685 
 312   0.0000       9.779523       266.1143 
 313   0.0000      10.006126       272.2805 
 314   0.0000      10.405909       283.1592 
 315   0.0000      10.498655       285.6829 
 316   0.0000      10.652647       289.8733 
 317   0.0000      10.671625       290.3897 
 318   0.0000      10.779144       293.3154 
 319   0.0000      10.938097       297.6407 
 320   0.0000      11.207059       304.9596 
 321   0.0000      11.292378       307.2812 
 322   0.0000      11.490938       312.6843 
 323   0.0000      11.650157       317.0169 
 324   0.0000      11.688980       318.0733 
 325   0.0000      11.740602       319.4780 
 326   0.0000      11.773884       320.3837 
 327   0.0000      11.824650       321.7651 
 328   0.0000      11.926875       324.5468 
 329   0.0000      11.976295       325.8916 
 330   0.0000      11.978060       325.9396 
 331   0.0000      12.030222       327.3590 
 332   0.0000      12.040031       327.6259 
 333   0.0000      12.055174       328.0379 
 334   0.0000      12.057593       328.1038 
 335   0.0000      12.086763       328.8975 
 336   0.0000      12.103422       329.3509 
 337   0.0000      12.306703       334.8824 
 338   0.0000      12.327311       335.4432 
 339   0.0000      12.331423       335.5551 
 340   0.0000      12.469192       339.3040 
 341   0.0000      12.536079       341.1241 
 342   0.0000      12.563907       341.8813 
 343   0.0000      12.570667       342.0652 
 344   0.0000      12.630219       343.6857 
 345   0.0000      12.641671       343.9974 
 346   0.0000      12.667410       344.6978 
 347   0.0000      12.667482       344.6997 
 348   0.0000      12.721698       346.1750 
 349   0.0000      12.721706       346.1752 
 350   0.0000      12.775182       347.6304 
 351   0.0000      12.788220       347.9852 
 352   0.0000      12.889420       350.7390 
 353   0.0000      12.910085       351.3013 
 354   0.0000      13.068164       355.6028 
 355   0.0000      13.068587       355.6143 
 356   0.0000      13.105159       356.6095 
 357   0.0000      13.680934       372.2771 
 358   0.0000      13.704127       372.9083 
 359   0.0000      13.716101       373.2341 
 360   0.0000      13.770133       374.7044 
 361   0.0000      13.781402       375.0110 
 362   0.0000      14.013228       381.3193 
 363   0.0000      14.298167       389.0729 
 364   0.0000      14.344979       390.3467 
 365   0.0000      14.498433       394.5224 
 366   0.0000      14.603511       397.3817 
 367   0.0000      14.677549       399.3964 
 368   0.0000      14.700302       400.0156 
 369   0.0000      14.736572       401.0025 
 370   0.0000      15.039605       409.2485 
 371   0.0000      15.040886       409.2833 
 372   0.0000      15.065617       409.9563 
 373   0.0000      15.411794       419.3762 
 374   0.0000      15.522784       422.3964 
 375   0.0000      15.523930       422.4276 
 376   0.0000      15.615321       424.9145 
 377   0.0000      15.732923       428.1146 
 378   0.0000      16.254186       442.2989 
 379   0.0000      16.656958       453.2589 
 380   0.0000      16.661830       453.3914 
 381   0.0000      16.778652       456.5703 
 382   0.0000      16.778699       456.5716 
 383   0.0000      16.997745       462.5321 
 384   0.0000      17.011411       462.9040 
 385   0.0000      17.024913       463.2714 
 386   0.0000      17.043456       463.7760 
 387   0.0000      17.071770       464.5465 
 388   0.0000      17.156659       466.8564 
 389   0.0000      17.229661       468.8429 
 390   0.0000      17.432389       474.3594 
 391   0.0000      17.465122       475.2501 
 392   0.0000      17.602839       478.9976 
 393   0.0000      17.632618       479.8079 
 394   0.0000      17.656941       480.4698 
 395   0.0000      17.723936       482.2928 
 396   0.0000      17.838610       485.4132 
 397   0.0000      17.839347       485.4333 
 398   0.0000      17.903312       487.1739 
 399   0.0000      18.250778       496.6289 
 400   0.0000      18.278516       497.3837 
 401   0.0000      18.906086       514.4608 
 402   0.0000      18.940660       515.4016 
 403   0.0000      19.629477       534.1452 
 404   0.0000      19.631749       534.2070 
 405   0.0000      19.655870       534.8634 
 406   0.0000      19.688263       535.7449 
 407   0.0000      20.154888       548.4424 
 408   0.0000      20.155137       548.4492 
 409   0.0000      20.302799       552.4673 
 410   0.0000      20.309895       552.6604 
 411   0.0000      20.338927       553.4503 
 412   0.0000      20.338981       553.4518 
 413   0.0000      20.579371       559.9932 
 414   0.0000      20.864236       567.7447 
 415   0.0000      20.907596       568.9246 
 416   0.0000      20.976643       570.8035 
 417   0.0000      21.013091       571.7953 
 418   0.0000      21.420527       582.8822 
 419   0.0000      22.826792       621.1486 
 420   0.0000      22.863060       622.1355 
 421   0.0000      23.034057       626.7886 
 422   0.0000      23.132510       629.4676 
 423   0.0000      23.266221       633.1061 
 424   0.0000      23.483774       639.0260 
 425   0.0000      23.644557       643.4011 
 426   0.0000      23.652614       643.6204 
 427   0.0000      23.862708       649.3373 
 428   0.0000      24.148580       657.1163 
 429   0.0000      24.197307       658.4422 
 430   0.0000      26.557520       722.6669 
 431   0.0000      27.102007       737.4831 
 432   0.0000      28.717429       781.4410 
 433   0.0000      30.384347       826.8001 
 434   0.0000      30.394938       827.0883 
 435   0.0000      30.532980       830.8446 
 436   0.0000      31.057868       845.1276 
 437   0.0000      31.119832       846.8137 
 438   0.0000      32.007022       870.9554 
 439   0.0000      32.465904       883.4422 
 440   0.0000      34.028183       925.9539 
 441   0.0000      34.437912       937.1032 
 442   0.0000      41.131701      1119.2505 
 443   0.0000      41.197758      1121.0480 
 444   0.0000      41.915467      1140.5778 
 445   0.0000      41.984727      1142.4625 
 446   0.0000      42.542774      1157.6477 
 447   0.0000      45.537883      1239.1488 
 448   0.0000      66.556477      1811.0938 
 449   0.0000      66.690038      1814.7282 
 450   0.0000      66.857967      1819.2978 
 451   0.0000      67.037101      1824.1723 
 452   0.0000      68.612594      1867.0436 
 453   0.0000      90.885373      2473.1167 
 454   0.0000      90.987376      2475.8924 
 455   0.0000      91.123654      2479.6007 
 456   0.0000      91.164874      2480.7223 
 457   0.0000      91.313786      2484.7744 
 458   0.0000      91.323612      2485.0418 
 459   0.0000      91.770901      2497.2132 
 460   0.0000      91.814755      2498.4065 
 461   0.0000      93.032542      2531.5442 
 462   0.0000      93.325409      2539.5135 
 463   0.0000      95.274908      2592.5620 
 464   0.0000     143.327792      3900.1475 
 465   0.0000     203.114079      5527.0151 

                    ********************************
                    * MULLIKEN POPULATION ANALYSIS *
                    ********************************

--------------------------------------------
MULLIKEN ATOMIC CHARGES AND SPIN POPULATIONS
--------------------------------------------
   0 H :    0.278612   -0.016278
   1 F :   -0.302758    0.015840
   2 O :   -0.194424    0.993589
   3 H :    0.218571    0.006849
Sum of atomic charges         :   -0.0000000
Sum of atomic spin populations:    1.0000000

-----------------------------------------------------
MULLIKEN REDUCED ORBITAL CHARGES AND SPIN POPULATIONS
-----------------------------------------------------
CHARGE
  0 H s       :     0.621550  s :     0.621550
      pz      :     0.027196  p :     0.097460
      px      :     0.033182
      py      :     0.037083
      dz2     :    -0.000799  d :    -0.002287
      dxz     :    -0.001850
      dyz     :     0.000414
      dx2y2   :    -0.000012
      dxy     :    -0.000040
      f0      :     0.001834  f :     0.006284
      f+1     :     0.002260
      f-1     :     0.002329
      f+2     :    -0.000038
      f-2     :    -0.000091
      f+3     :    -0.000011
      f-3     :     0.000001
      g0      :    -0.000430  g :    -0.001619
      g+1     :    -0.000702
      g-1     :    -0.000345
      g+2     :    -0.000031
      g-2     :    -0.000093
      g+3     :    -0.000015
      g-3     :    -0.000000
      g+4     :    -0.000001
      g-4     :     0.000000
  1 F s       :     3.888451  s :     3.888451
      pz      :     1.476797  p :     5.409198
      px      :     1.977307
      py      :     1.955094
      dz2     :     0.001111  d :     0.006990
      dxz     :     0.002681
      dyz     :     0.003230
      dx2y2   :    -0.000023
      dxy     :    -0.000009
      f0      :    -0.000397  f :    -0.000789
      f+1     :    -0.000494
      f-1     :     0.000175
      f+2     :    -0.000030
      f-2     :    -0.000042
      f+3     :    -0.000001
      f-3     :    -0.000000
      g0      :    -0.000207  g :    -0.000842
      g+1     :    -0.000400
      g-1     :    -0.000196
      g+2     :    -0.000018
      g-2     :    -0.000022
      g+3     :     0.000001
      g-3     :    -0.000000
      g+4     :     0.000000
      g-4     :    -0.000000
      h0      :    -0.000051  h :    -0.000251
      h+1     :    -0.000110
      h-1     :    -0.000074
      h+2     :    -0.000006
      h-2     :    -0.000009
      h+3     :     0.000000
      h-3     :    -0.000000
      h+4     :    -0.000000
      h-4     :    -0.000000
      h+5     :    -0.000000
      h-5     :     0.000000
  2 O s       :     3.897093  s :     3.897093
      pz      :     1.904261  p :     4.295549
      px      :     1.405962
      py      :     0.985326
      dz2     :     0.002819  d :     0.004866
      dxz     :    -0.002331
      dyz     :    -0.001286
      dx2y2   :     0.004517
      dxy     :     0.001146
      f0      :    -0.000735  f :    -0.002196
      f+1     :    -0.001732
      f-1     :     0.000210
      f+2     :     0.000004
      f-2     :     0.000028
      f+3     :     0.000061
      f-3     :    -0.000031
      g0      :    -0.000240  g :    -0.000711
      g+1     :    -0.000363
      g-1     :    -0.000149
      g+2     :     0.000027
      g-2     :    -0.000019
      g+3     :     0.000012
      g-3     :    -0.000000
      g+4     :     0.000021
      g-4     :    -0.000000
      h0      :    -0.000027  h :    -0.000178
      h+1     :    -0.000089
      h-1     :    -0.000063
      h+2     :     0.000003
      h-2     :    -0.000002
      h+3     :     0.000001
      h-3     :     0.000000
      h+4     :     0.000001
      h-4     :    -0.000000
      h+5     :    -0.000001
      h-5     :    -0.000000
  3 H s       :     0.693622  s :     0.693622
      pz      :     0.040504  p :     0.082733
      px      :     0.025167
      py      :     0.017062
      dz2     :    -0.001981  d :     0.005633
      dxz     :     0.004106
      dyz     :    -0.000676
      dx2y2   :     0.002184
      dxy     :     0.002000
      f0      :    -0.000488  f :    -0.000553
      f+1     :     0.000503
      f-1     :    -0.000718
      f+2     :     0.000203
      f-2     :    -0.000165
      f+3     :    -0.000055
      f-3     :     0.000166
      g0      :     0.000127  g :    -0.000005
      g+1     :     0.000032
      g-1     :    -0.000085
      g+2     :     0.000104
      g-2     :    -0.000144
      g+3     :    -0.000005
      g-3     :    -0.000020
      g+4     :    -0.000029
      g-4     :     0.000014

SPIN
  0 H s       :    -0.012172  s :    -0.012172
      pz      :    -0.003472  p :    -0.006147
      px      :     0.000416
      py      :    -0.003091
      dz2     :    -0.000112  d :     0.001262
      dxz     :     0.001504
      dyz     :    -0.000183
      dx2y2   :     0.000116
      dxy     :    -0.000062
      f0      :     0.000107  f :     0.001079
      f+1     :    -0.000036
      f-1     :     0.000774
      f+2     :     0.000330
      f-2     :    -0.000111
      f+3     :     0.000014
      f-3     :     0.000001
      g0      :     0.000021  g :    -0.000301
      g+1     :     0.000086
      g-1     :    -0.000313
      g+2     :    -0.000023
      g-2     :    -0.000091
      g+3     :     0.000018
      g-3     :     0.000000
      g+4     :     0.000001
      g-4     :     0.000000
  1 F s       :     0.003282  s :     0.003282
      pz      :    -0.000104  p :     0.012503
      px      :    -0.000297
      py      :     0.012904
      dz2     :     0.000516  d :     0.001111
      dxz     :    -0.000305
      dyz     :     0.000847
      dx2y2   :     0.000071
      dxy     :    -0.000018
      f0      :    -0.000212  f :    -0.000461
      f+1     :    -0.000144
      f-1     :    -0.000074
      f+2     :     0.000010
      f-2     :    -0.000042
      f+3     :     0.000001
      f-3     :    -0.000000
      g0      :    -0.000150  g :    -0.000451
      g+1     :    -0.000070
      g-1     :    -0.000210
      g+2     :     0.000001
      g-2     :    -0.000022
      g+3     :    -0.000000
      g-3     :    -0.000000
      g+4     :    -0.000000
      g-4     :    -0.000000
      h0      :    -0.000036  h :    -0.000144
      h+1     :    -0.000023
      h-1     :    -0.000074
      h+2     :    -0.000000
      h-2     :    -0.000010
      h+3     :    -0.000000
      h-3     :    -0.000000
      h+4     :    -0.000000
      h-4     :    -0.000000
      h+5     :    -0.000000
      h-5     :     0.000000
  2 O s       :     0.010042  s :     0.010042
      pz      :     0.006148  p :     0.981549
      px      :     0.005950
      py      :     0.969451
      dz2     :     0.000530  d :     0.002216
      dxz     :     0.000441
      dyz     :     0.000047
      dx2y2   :     0.000085
      dxy     :     0.001113
      f0      :     0.000266  f :    -0.000225
      f+1     :     0.000051
      f-1     :     0.000009
      f+2     :    -0.000083
      f-2     :     0.000040
      f+3     :    -0.000475
      f-3     :    -0.000035
      g0      :     0.000016  g :    -0.000002
      g+1     :    -0.000006
      g-1     :    -0.000024
      g+2     :     0.000004
      g-2     :     0.000016
      g+3     :    -0.000001
      g-3     :     0.000000
      g+4     :    -0.000007
      g-4     :    -0.000000
      h0      :     0.000005  h :     0.000009
      h+1     :    -0.000003
      h-1     :    -0.000000
      h+2     :    -0.000001
      h-2     :     0.000005
      h+3     :    -0.000001
      h-3     :    -0.000000
      h+4     :     0.000000
      h-4     :    -0.000000
      h+5     :     0.000004
      h-5     :     0.000000
  3 H s       :    -0.005663  s :    -0.005663
      pz      :    -0.003764  p :     0.008915
      px      :    -0.003657
      py      :     0.016336
      dz2     :     0.000388  d :     0.002930
      dxz     :     0.000468
      dyz     :     0.000271
      dx2y2   :    -0.000300
      dxy     :     0.002103
      f0      :    -0.000197  f :     0.000623
      f+1     :     0.000318
      f-1     :     0.000016
      f+2     :     0.000125
      f-2     :     0.000122
      f+3     :    -0.000002
      f-3     :     0.000241
      g0      :     0.000001  g :     0.000044
      g+1     :    -0.000051
      g-1     :     0.000029
      g+2     :     0.000018
      g-2     :    -0.000003
      g+3     :     0.000011
      g-3     :     0.000014
      g+4     :     0.000002
      g-4     :     0.000023


                     *******************************
                     * LOEWDIN POPULATION ANALYSIS *
                     *******************************

-------------------------------------------
LOEWDIN ATOMIC CHARGES AND SPIN POPULATIONS
-------------------------------------------
   0 H :   -1.213052    0.033866
   1 F :    0.977740    0.021078
   2 O :    0.995772    0.783238
   3 H :   -0.760460    0.161818

----------------------------------------------------
LOEWDIN REDUCED ORBITAL CHARGES AND SPIN POPULATIONS
----------------------------------------------------
CHARGE
  0 H s       :     0.569814  s :     0.569814
      pz      :     0.414313  p :     0.718135
      px      :     0.154157
      py      :     0.149665
      dz2     :     0.266320  d :     0.616403
      dxz     :     0.185063
      dyz     :     0.163934
      dx2y2   :     0.000861
      dxy     :     0.000225
      f0      :     0.075098  f :     0.223929
      f+1     :     0.080403
      f-1     :     0.065413
      f+2     :     0.002450
      f-2     :     0.000513
      f+3     :     0.000049
      f-3     :     0.000003
      g0      :     0.034062  g :     0.084771
      g+1     :     0.030841
      g-1     :     0.014676
      g+2     :     0.004180
      g-2     :     0.000740
      g+3     :     0.000251
      g-3     :     0.000015
      g+4     :     0.000003
      g-4     :     0.000000
  1 F s       :     3.227264  s :     3.227264
      pz      :     1.503284  p :     4.617686
      px      :     1.562443
      py      :     1.551958
      dz2     :     0.047136  d :     0.060942
      dxz     :     0.008147
      dyz     :     0.005550
      dx2y2   :     0.000084
      dxy     :     0.000025
      f0      :     0.033175  f :     0.049570
      f+1     :     0.010355
      f-1     :     0.005526
      f+2     :     0.000394
      f-2     :     0.000104
      f+3     :     0.000014
      f-3     :     0.000002
      g0      :     0.023364  g :     0.036651
      g+1     :     0.008178
      g-1     :     0.004780
      g+2     :     0.000246
      g-2     :     0.000078
      g+3     :     0.000005
      g-3     :     0.000000
      g+4     :     0.000000
      g-4     :     0.000000
      h0      :     0.017136  h :     0.030148
      h+1     :     0.007822
      h-1     :     0.004636
      h+2     :     0.000417
      h-2     :     0.000120
      h+3     :     0.000016
      h-3     :     0.000000
      h+4     :     0.000001
      h-4     :     0.000000
      h+5     :     0.000000
      h-5     :     0.000000
  2 O s       :     3.129335  s :     3.129335
      pz      :     1.462778  p :     3.589787
      px      :     1.351173
      py      :     0.775836
      dz2     :     0.042871  d :     0.086682
      dxz     :     0.017080
      dyz     :     0.008159
      dx2y2   :     0.017443
      dxy     :     0.001130
      f0      :     0.033764  f :     0.067570
      f+1     :     0.015717
      f-1     :     0.013376
      f+2     :     0.001645
      f-2     :     0.000206
      f+3     :     0.002337
      f-3     :     0.000525
      g0      :     0.032572  g :     0.070092
      g+1     :     0.018816
      g-1     :     0.016985
      g+2     :     0.000608
      g-2     :     0.000436
      g+3     :     0.000225
      g-3     :     0.000038
      g+4     :     0.000303
      g-4     :     0.000110
      h0      :     0.025744  h :     0.060762
      h+1     :     0.016894
      h-1     :     0.016360
      h+2     :     0.000675
      h-2     :     0.000697
      h+3     :     0.000090
      h-3     :     0.000019
      h+4     :     0.000088
      h-4     :     0.000025
      h+5     :     0.000118
      h-5     :     0.000053
  3 H s       :     0.642345  s :     0.642345
      pz      :     0.185361  p :     0.552463
      px      :     0.290018
      py      :     0.077084
      dz2     :     0.067150  d :     0.391856
      dxz     :     0.138529
      dyz     :     0.008710
      dx2y2   :     0.106902
      dxy     :     0.070565
      f0      :     0.021843  f :     0.129852
      f+1     :     0.037113
      f-1     :     0.005591
      f+2     :     0.024054
      f-2     :     0.006194
      f+3     :     0.015067
      f-3     :     0.019991
      g0      :     0.009877  g :     0.043943
      g+1     :     0.014240
      g-1     :     0.004540
      g+2     :     0.006728
      g-2     :     0.003435
      g+3     :     0.001783
      g-3     :     0.000899
      g+4     :     0.001370
      g-4     :     0.001071

SPIN
  0 H s       :    -0.001945  s :    -0.001945
      pz      :    -0.003368  p :    -0.002050
      px      :    -0.000429
      py      :     0.001748
      dz2     :    -0.000885  d :     0.016865
      dxz     :    -0.000675
      dyz     :     0.018231
      dx2y2   :    -0.000026
      dxy     :     0.000220
      f0      :    -0.000617  f :     0.008886
      f+1     :    -0.000441
      f-1     :     0.009520
      f+2     :    -0.000061
      f-2     :     0.000487
      f+3     :    -0.000005
      f-3     :     0.000003
      g0      :    -0.000187  g :     0.012109
      g+1     :    -0.000200
      g-1     :     0.011851
      g+2     :    -0.000078
      g-2     :     0.000735
      g+3     :    -0.000026
      g-3     :     0.000015
      g+4     :    -0.000000
      g-4     :     0.000000
  1 F s       :    -0.000411  s :    -0.000411
      pz      :    -0.001824  p :     0.008151
      px      :    -0.000016
      py      :     0.009991
      dz2     :    -0.000999  d :     0.000906
      dxz     :    -0.000173
      dyz     :     0.002058
      dx2y2   :    -0.000003
      dxy     :     0.000023
      f0      :    -0.000454  f :     0.004146
      f+1     :    -0.000175
      f-1     :     0.004680
      f+2     :    -0.000010
      f-2     :     0.000104
      f+3     :    -0.000001
      f-3     :     0.000002
      g0      :    -0.000091  g :     0.003820
      g+1     :    -0.000057
      g-1     :     0.003899
      g+2     :    -0.000005
      g-2     :     0.000075
      g+3     :    -0.000001
      g-3     :     0.000000
      g+4     :     0.000000
      g-4     :     0.000000
      h0      :     0.000060  h :     0.004466
      h+1     :     0.000019
      h-1     :     0.004276
      h+2     :    -0.000005
      h-2     :     0.000119
      h+3     :    -0.000002
      h-3     :     0.000000
      h+4     :    -0.000000
      h-4     :     0.000000
      h+5     :     0.000000
      h-5     :     0.000000
  2 O s       :     0.007291  s :     0.007291
      pz      :     0.008294  p :     0.774427
      px      :     0.009894
      py      :     0.756239
      dz2     :     0.000052  d :     0.000700
      dxz     :    -0.000292
      dyz     :     0.000244
      dx2y2   :    -0.000385
      dxy     :     0.001080
      f0      :     0.000021  f :     0.000281
      f+1     :     0.000017
      f-1     :     0.000147
      f+2     :     0.000026
      f-2     :     0.000064
      f+3     :    -0.000517
      f-3     :     0.000522
      g0      :    -0.000038  g :     0.000266
      g+1     :    -0.000008
      g-1     :     0.000193
      g+2     :     0.000000
      g-2     :     0.000001
      g+3     :    -0.000007
      g-3     :     0.000038
      g+4     :    -0.000022
      g-4     :     0.000108
      h0      :    -0.000024  h :     0.000273
      h+1     :    -0.000003
      h-1     :     0.000188
      h+2     :    -0.000001
      h-2     :     0.000035
      h+3     :    -0.000001
      h-3     :     0.000006
      h+4     :     0.000000
      h-4     :     0.000021
      h+5     :    -0.000000
      h-5     :     0.000051
  3 H s       :    -0.013377  s :    -0.013377
      pz      :    -0.003236  p :     0.071876
      px      :     0.001498
      py      :     0.073613
      dz2     :     0.001156  d :     0.076626
      dxz     :     0.001177
      dyz     :     0.005230
      dx2y2   :     0.000726
      dxy     :     0.068336
      f0      :     0.000383  f :     0.025157
      f+1     :     0.000562
      f-1     :     0.000711
      f+2     :     0.000159
      f-2     :     0.004109
      f+3     :    -0.000180
      f-3     :     0.019414
      g0      :     0.000013  g :     0.001537
      g+1     :     0.000023
      g-1     :     0.000186
      g+2     :    -0.000002
      g-2     :     0.000150
      g+3     :    -0.000033
      g-3     :     0.000289
      g+4     :    -0.000076
      g-4     :     0.000988


                      *****************************
                      * MAYER POPULATION ANALYSIS *
                      *****************************

  NA   - Mulliken gross atomic population
  ZA   - Total nuclear charge
  QA   - Mulliken gross atomic charge
  VA   - Mayer's total valence
  BVA  - Mayer's bonded valence
  FA   - Mayer's free valence

  ATOM       NA         ZA         QA         VA         BVA        FA
  0 H      0.7214     1.0000     0.2786     1.0383     1.0381     0.0002
  1 F      9.3028     9.0000    -0.3028     0.7914     0.7912     0.0002
  2 O      8.1944     8.0000    -0.1944     1.9917     1.0454     0.9463
  3 H      0.7814     1.0000     0.2186     1.0036     1.0037    -0.0001

  Mayer bond orders larger than 0.1
B(  0-H ,  1-F ) :   0.9137 B(  0-H ,  2-O ) :   0.1256 B(  1-F ,  2-O ) :  -0.1039 
B(  2-O ,  3-H ) :   1.0237 

-------
TIMINGS
-------

Total SCF time: 0 days 1 hours 26 min 25 sec 

Total time                  ....    5185.531 sec
Sum of individual times     ....    5184.498 sec  (100.0%)

Fock matrix formation       ....    5170.681 sec  ( 99.7%)
  XC integration            ....     175.608 sec  (  3.4% of F)
    Basis function eval.    ....      11.741 sec  (  6.7% of XC)
    Density eval.           ....      37.351 sec  ( 21.3% of XC)
    XC-Functional eval.     ....       1.416 sec  (  0.8% of XC)
    XC-Potential eval.      ....     124.146 sec  ( 70.7% of XC)
Diagonalization             ....       2.368 sec  (  0.0%)
Density matrix formation    ....       0.043 sec  (  0.0%)
Population analysis         ....       0.189 sec  (  0.0%)
Initial guess               ....       7.237 sec  (  0.1%)
Orbital Transformation      ....       0.000 sec  (  0.0%)
Orbital Orthonormalization  ....       0.000 sec  (  0.0%)
DIIS solution               ....       1.023 sec  (  0.0%)
Grid generation             ....       2.957 sec  (  0.1%)

-------------------------   --------------------
FINAL SINGLE POINT ENERGY      -176.103612525865
-------------------------   --------------------


                            ***************************************
                            *     ORCA property calculations      *
                            ***************************************

                                    ---------------------
                                    Active property flags
                                    ---------------------
   (+) Dipole Moment
   (+) Polarizability


------------------------------------------------------------------------------
                       ORCA ELECTRIC PROPERTIES CALCULATION
------------------------------------------------------------------------------

Dipole Moment Calculation                       ... on
Quadrupole Moment Calculation                   ... off
Polarizability Calculation                      ... Analytic (CP-SCF)
GBWName                                         ... fh-oh_pbe.gbw
Electron density file                           ... fh-oh_pbe.scfp.tmp
The origin for moment calculation is the CENTER OF MASS  = ( 0.194920,  0.000000 -0.679422)

-------------
DIPOLE MOMENT
-------------
                                X             Y             Z
Electronic contribution:     -0.29347       0.00000       1.36763
Nuclear contribution   :      0.93855       0.00000      -2.47969
                        -----------------------------------------
Total Dipole Moment    :      0.64507       0.00000      -1.11205
                        -----------------------------------------
Magnitude (a.u.)       :      1.28561
Magnitude (Debye)      :      3.26775



--------------------
Rotational spectrum 
--------------------
 
Rotational constants in cm-1:    21.356998     0.246472     0.243660 
Rotational constants in MHz : 640266.678212  7389.040107  7304.739279 

 Dipole components along the rotational axes: 
x,y,z [a.u.] :     1.163520     0.546813    -0.000000 
x,y,z [Debye]:     2.957433     1.389889    -0.000000 

 
Transforming and storing MO dipole integrals   ... done

                ... starting polarizability calculation

Opening the Dipole integral file               ... (fh-oh_pbe.dmo.tmp) done
Reading Dipole-MO integrals                    ... done
Solving CP-SCF equations                       ... 
------------------------------------------------------------------------------
                           ORCA CP-SCF CALCULATION
------------------------------------------------------------------------------

Input orbitals are from        ... fh-oh_pbe.gbw
Input Perturbation             ... fh-oh_pbe.cpv.tmp
Wavefunction output            ... fh-oh_pbe.cpu.tmp
Perturbation mode              ... Real perturbation (singlet)
Solver                         ... POPLE
Max. number of iterations      ... 200
Convergence tolerance          ... 1.000e-06
Integral handling              ... Direct
Number of perturbations        ... 3
Number of operators            ... 2
Orbital ranges used for CP-SCF:
 Operator 0:  Orbitals   0...  9  to  10...465
 Operator 1:  Orbitals   0...  8  to   9...465
DFT calculation                         ... on
Exchange functional (SCF)               ... PBE
Exchange functional (CP-SCF)            ... PBE
   PBE kappa parameter  XKappa (SCF)    ...  0.804000
   PBE kappa parameter  XKappa (CP-SCF) ...  0.804000
   PBE mue parameter   XMuePBE (SCF)    ...  0.219520
   PBE mue parameter   XMuePBE (CP-SCF) ...  0.219520
Correlation functional (SCF)            ... PBE
Correlation functional (CP-SCF)         ... PBE
   PBE beta parameter CBetaPBE (SCF)    ...  0.066725
   PBE beta parameter CBetaPBE (CP-SCF) ...  0.066725
 LDA part of GGA corr.  LDAOpt (SCF)    ... PW91-LDA
 LDA part of GGA corr.  LDAOpt (CP-SCF) ... PW91-LDA
Variables per vector in CP-SCF ... 8673
Number of vectors sought       ... 3
Recalculating density on grid  ... done
Calculating the xc-kernel      ... done
     CP-SCF ITERATION   0: 
     CP-SCF ITERATION   1:      0.193009024325
     CP-SCF ITERATION   2:      0.110673787419
     CP-SCF ITERATION   3:      0.021190603333
     CP-SCF ITERATION   4:      0.000809109600
     CP-SCF ITERATION   5:      0.000015910780
     CP-SCF ITERATION   6:      0.000000513493
done
Reading CP-SCF coefficients                    ... done
Doing the polarizability tensor   ... done
Cleaning up                                    ... done

-------------------------
THE POLARIZABILITY TENSOR
-------------------------

The raw cartesian tensor (atomic units):
   14.27481      0.00000     -1.54799  
    0.00000     12.20208      0.00000  
   -1.54799      0.00000     24.17014  
diagonalized tensor: 
   12.20208     14.03830     24.40665  

   -0.00000     -0.98853     -0.15103  
    1.00000     -0.00000      0.00000  
   -0.00000     -0.15103      0.98853  

Isotropic polarizability :  16.88235


Timings for individual modules:

Sum of individual times         ...     9862.127 sec (= 164.369 min)
GTO integral calculation        ...        1.559 sec (=   0.026 min)   0.0 %
SCF iterations                  ...     5185.588 sec (=  86.426 min)  52.6 %
Solution of CP-SCF eqns.        ...     4674.980 sec (=  77.916 min)  47.4 %
                             ****ORCA TERMINATED NORMALLY****
TOTAL RUN TIME: 0 days 2 hours 44 minutes 22 seconds 715 msec
