
                                 *****************
                                 * O   R   C   A *
                                 *****************

           --- An Ab Initio, DFT and Semiempirical electronic structure package ---

                  #######################################################
                  #                        -***-                        #
                  #          Department of theory and spectroscopy      #
                  #               Directorship: Frank Neese             #
                  #        Max Planck Institute fuer Kohlenforschung    #
                  #                Kaiser Wilhelm Platz 1               #
                  #                 D-45470 Muelheim/Ruhr               #
                  #                      Germany                        #
                  #                                                     #
                  #                  All rights reserved                #
                  #                        -***-                        #
                  #######################################################


                         Program Version 4.1.2  - RELEASE  -


 With contributions from (in alphabetic order):
   Daniel Aravena         : Magnetic Properties
   Michael Atanasov       : Ab Initio Ligand Field Theory
   Alexander A. Auer      : GIAO ZORA
   Ute Becker             : Parallelization
   Giovanni Bistoni       : ED, Open-shell LED
   Martin Brehm           : Molecular dynamics
   Dmytro Bykov           : SCF Hessian
   Vijay G. Chilkuri      : MRCI spin determinant printing
   Dipayan Datta          : RHF DLPNO-CCSD density
   Achintya Kumar Dutta   : EOM-CC, STEOM-CC
   Dmitry Ganyushin       : Spin-Orbit,Spin-Spin,Magnetic field MRCI
   Miquel Garcia          : C-PCM Hessian
   Yang Guo               : DLPNO-NEVPT2, CIM, IAO-localization
   Andreas Hansen         : Spin unrestricted coupled pair/coupled cluster methods
   Benjamin Helmich-Paris : CASSCF linear response (MC-RPA)
   Lee Huntington         : MR-EOM, pCC
   Robert Izsak           : Overlap fitted RIJCOSX, COSX-SCS-MP3, EOM
   Christian Kollmar      : KDIIS, OOCD, Brueckner-CCSD(T), CCSD density
   Simone Kossmann        : Meta GGA functionals, TD-DFT gradient, OOMP2, MP2 Hessian
   Martin Krupicka        : AUTO-CI
   Lucas Lang             : DCDCAS
   Dagmar Lenk            : GEPOL surface, SMD
   Dimitrios Liakos       : Extrapolation schemes; parallel MDCI
   Dimitrios Manganas     : ROCIS; embedding schemes
   Dimitrios Pantazis     : SARC Basis sets
   Taras Petrenko         : DFT Hessian,TD-DFT gradient, ASA, ECA, R-Raman, ABS, FL, XAS/XES, NRVS
   Peter Pinski           : DLPNO-MP2, DLPNO-MP2 Gradient
   Christoph Reimann      : Effective Core Potentials
   Marius Retegan         : Local ZFS, SOC
   Christoph Riplinger    : Optimizer, TS searches, QM/MM, DLPNO-CCSD(T), (RO)-DLPNO pert. Triples
   Tobias Risthaus        : Range-separated hybrids, TD-DFT gradient, RPA, STAB
   Michael Roemelt        : Restricted open shell CIS
   Masaaki Saitow         : Open-shell DLPNO
   Barbara Sandhoefer     : DKH picture change effects
   Avijit Sen             : IP-ROCIS
   Kantharuban Sivalingam : CASSCF convergence, NEVPT2, FIC-MRCI
   Bernardo de Souza      : ESD, SOC TD-DFT
   Georgi Stoychev        : AutoAux, RI-MP2 NMR
   Willem Van den Heuvel  : Paramagnetic NMR
   Boris Wezisla          : Elementary symmetry handling
   Frank Wennmohs         : Technical directorship


 We gratefully acknowledge several colleagues who have allowed us to
 interface, adapt or use parts of their codes:
   Stefan Grimme, W. Hujo, H. Kruse,             : VdW corrections, initial TS optimization,
                  C. Bannwarth                     DFT functionals, gCP, sTDA/sTD-DF
   Ed Valeev                                     : LibInt (2-el integral package), F12 methods
   Garnet Chan, S. Sharma, J. Yang, R. Olivares  : DMRG
   Ulf Ekstrom                                   : XCFun DFT Library
   Mihaly Kallay                                 : mrcc  (arbitrary order and MRCC methods)
   Andreas Klamt, Michael Diedenhofen            : otool_cosmo (COSMO solvation model)
   Jiri Pittner, Ondrej Demel                    : Mk-CCSD
   Frank Weinhold                                : gennbo (NPA and NBO analysis)
   Christopher J. Cramer and Donald G. Truhlar   : smd solvation model
   Lars Goerigk                                  : TD-DFT with DH, B97 family of functionals
   V. Asgeirsson, H. Jonsson                     : NEB implementation
   FAccTs GmbH                                   : IRC, NEB, NEB-TS, Multilevel


 Your calculation uses the libint2 library for the computation of 2-el integrals
 For citations please refer to: http://libint.valeyev.net

 This ORCA versions uses:
   CBLAS   interface :  Fast vector & matrix operations
   LAPACKE interface :  Fast linear algebra routines
   SCALAPACK package :  Parallel linear algebra routines


----- Orbital basis set information -----
Your calculation utilizes the basis: aug-pc-4
   H, C-F              : F. Jensen, J. Chem. Phys. 115, 9113 (2001).
                         F. Jensen, J. Chem. Phys. 116, 7372 (2002).
                         F. Jensen, J. Chem. Phys. 117, 9234 (2002).
   Si-Cl               : F. Jensen, T. Helgaker, J. Chem. Phys. 121, 3463 (2004).
   He-B, Ne-Mg, Al, Ar : F. Jensen, J. Phys. Chem. A 111, 11198 (2007).
   K, Ca, Ga-Kr        : F. Jensen, J. Chem. Phys. 136, 094110 (2012).
   Sc-Zn               : F. Jensen, J. Chem. Phys. 138, 014107 (2013).

================================================================================
                                        WARNINGS
                       Please study these warnings very carefully!
================================================================================


INFO   : the flag for use of LIBINT has been found!

================================================================================
                                       INPUT FILE
================================================================================
NAME = fno_pbe.inp
|  1> !uks pbe nori aug-pc-4 grid7 nofinalgrid verytightscf
|  2> 
|  3> %maxcore 1500
|  4> 
|  5> %pal nprocs 1 end
|  6> 
|  7> %scf
|  8> 	maxiter 200
|  9> end
| 10> %elprop
| 11> 	dipole true
| 12> 	 polar 1
| 13> 	 maxiter 200
| 14> end
| 15> 
| 16> * xyz 0 1
| 17> F -0.9545 -0.6093 0.0000
| 18> N 0.0000 0.5633 0.0000
| 19> O 1.0738 0.1926 0.0000
| 20> *
| 21> 
| 22>                          ****END OF INPUT****
================================================================================

                       ****************************
                       * Single Point Calculation *
                       ****************************

---------------------------------
CARTESIAN COORDINATES (ANGSTROEM)
---------------------------------
  F     -0.954500   -0.609300    0.000000
  N      0.000000    0.563300    0.000000
  O      1.073800    0.192600    0.000000

----------------------------
CARTESIAN COORDINATES (A.U.)
----------------------------
  NO LB      ZA    FRAG     MASS         X           Y           Z
   0 F     9.0000    0    18.998   -1.803744   -1.151410    0.000000
   1 N     7.0000    0    14.007    0.000000    1.064483    0.000000
   2 O     8.0000    0    15.999    2.029188    0.363961    0.000000

--------------------------------
INTERNAL COORDINATES (ANGSTROEM)
--------------------------------
 F      0   0   0     0.000000000000     0.00000000     0.00000000
 N      1   0   0     1.511972555968     0.00000000     0.00000000
 O      2   1   0     1.135986324742   110.09986542     0.00000000

---------------------------
INTERNAL COORDINATES (A.U.)
---------------------------
 F      0   0   0     0.000000000000     0.00000000     0.00000000
 N      1   0   0     2.857214052784     0.00000000     0.00000000
 O      2   1   0     2.146703045641   110.09986542     0.00000000

---------------------
BASIS SET INFORMATION
---------------------
There are 3 groups of distinct atoms

 Group   1 Type F   : 27s12p7d4f3g2h contracted to 9s8p7d4f3g2h pattern {1191111111/51111111/1111111/1111/111/11}
 Group   2 Type N   : 27s12p7d4f3g2h contracted to 9s8p7d4f3g2h pattern {1191111111/51111111/1111111/1111/111/11}
 Group   3 Type O   : 27s12p7d4f3g2h contracted to 9s8p7d4f3g2h pattern {1191111111/51111111/1111111/1111/111/11}

Atom   0F    basis set group =>   1
Atom   1N    basis set group =>   2
Atom   2O    basis set group =>   3
------------------------------------------------------------------------------
                           ORCA GTO INTEGRAL CALCULATION
------------------------------------------------------------------------------

                         BASIS SET STATISTICS AND STARTUP INFO

 # of primitive gaussian shells          ...  165
 # of primitive gaussian functions       ...  525
 # of contracted shells                  ...   99
 # of contracted basis functions         ...  435
 Highest angular momentum                ...    5
 Maximum contraction depth               ...   11
 Integral package used                   ... LIBINT
 Integral threshhold            Thresh   ...  1.000e-12
 Primitive cut-off              TCut     ...  1.000e-14


------------------------------ INTEGRAL EVALUATION ----------------------------


 * One electron integrals 
 Pre-screening matrix                    ... done
 Shell pair data                         ... done (   0.002 sec)

-------------------------------------------------------------------------------
                                 ORCA SCF
-------------------------------------------------------------------------------

------------
SCF SETTINGS
------------
Hamiltonian:
 Density Functional     Method          .... DFT(GTOs)
 Exchange Functional    Exchange        .... PBE
   PBE kappa parameter   XKappa         ....  0.804000
   PBE mue parameter    XMuePBE         ....  0.219520
 Correlation Functional Correlation     .... PBE
   PBE beta parameter  CBetaPBE         ....  0.066725
 LDA part of GGA corr.  LDAOpt          .... PW91-LDA
 Gradients option       PostSCFGGA      .... off
   Density functional embedding theory  .... OFF
   NL short-range parameter             ....  6.400000


General Settings:
 Integral files         IntName         .... fno_pbe
 Hartree-Fock type      HFTyp           .... UHF
 Total Charge           Charge          ....    0
 Multiplicity           Mult            ....    1
 Number of Electrons    NEL             ....   24
 Basis Dimension        Dim             ....  435
 Nuclear Repulsion      ENuc            ....     65.6048433411 Eh

Convergence Acceleration:
 DIIS                   CNVDIIS         .... on
   Start iteration      DIISMaxIt       ....    12
   Startup error        DIISStart       ....  0.200000
   # of expansion vecs  DIISMaxEq       ....     5
   Bias factor          DIISBfac        ....   1.050
   Max. coefficient     DIISMaxC        ....  10.000
 Newton-Raphson         CNVNR           .... off
 SOSCF                  CNVSOSCF        .... off
 Level Shifting         CNVShift        .... on
   Level shift para.    LevelShift      ....    0.2500
   Turn off err/grad.   ShiftErr        ....    0.0010
 Zerner damping         CNVZerner       .... off
 Static damping         CNVDamp         .... on
   Fraction old density DampFac         ....    0.7000
   Max. Damping (<1)    DampMax         ....    0.9800
   Min. Damping (>=0)   DampMin         ....    0.0000
   Turn off err/grad.   DampErr         ....    0.1000
 Fernandez-Rico         CNVRico         .... off

SCF Procedure:
 Maximum # iterations   MaxIter         ....   200
 SCF integral mode      SCFMode         .... Direct
   Integral package                     .... LIBINT
 Reset frequency        DirectResetFreq ....    20
 Integral Threshold     Thresh          ....  1.000e-12 Eh
 Primitive CutOff       TCut            ....  1.000e-14 Eh

Convergence Tolerance:
 Convergence Check Mode ConvCheckMode   .... Total+1el-Energy
 Convergence forced     ConvForced      .... 0
 Energy Change          TolE            ....  1.000e-09 Eh
 1-El. energy change                    ....  1.000e-06 Eh
 DIIS Error             TolErr          ....  1.000e-08


Diagonalization of the overlap matrix:
Smallest eigenvalue                        ... 1.251e-06
Time for diagonalization                   ...    0.043 sec
Threshold for overlap eigenvalues          ... 1.000e-08
Number of eigenvalues below threshold      ... 0
Time for construction of square roots      ...    0.026 sec
Total time needed                          ...    0.069 sec

-------------------
DFT GRID GENERATION
-------------------

General Integration Accuracy     IntAcc      ...  5.670
Radial Grid Type                 RadialGrid  ... Gauss-Chebyshev
Angular Grid (max. acc.)         AngularGrid ... Lebedev-770
Angular grid pruning method      GridPruning ... 3 (G Style)
Weight generation scheme         WeightScheme... Becke
Basis function cutoff            BFCut       ...    1.0000e-12
Integration weight cutoff        WCut        ...    1.0000e-14
Grids for H and He will be reduced by one unit

# of grid points (after initial pruning)     ...  75534 (   0.0 sec)
# of grid points (after weights+screening)   ...  74983 (   0.0 sec)
nearest neighbour list constructed           ...    0.0 sec
Grid point re-assignment to atoms done       ...    0.0 sec
Grid point division into batches done        ...    1.8 sec
Reduced shell lists constructed in    2.8 sec

Total number of grid points                  ...    74983
Total number of batches                      ...     1173
Average number of points per batch           ...       63
Average number of grid points per atom       ...    24994
Average number of shells per batch           ...    69.63 (70.34%)
Average number of basis functions per batch  ...   320.15 (73.60%)
Average number of large shells per batch     ...    61.54 (88.37%)
Average number of large basis fcns per batch ...   283.37 (88.51%)
Maximum spatial batch extension              ...  20.22, 18.42, 14.78 au
Average spatial batch extension              ...   2.07,  2.11,  2.13 au

Time for grid setup =    2.887 sec

------------------------------
INITIAL GUESS: MODEL POTENTIAL
------------------------------
Loading Hartree-Fock densities                     ... done
Calculating cut-offs                               ... done
Setting up the integral package                    ... done
Initializing the effective Hamiltonian             ... done
Starting the Coulomb interaction                   ... done (   0.2 sec)
Reading the grid                                   ... done
Mapping shells                                     ... done
Starting the XC term evaluation                    ... done (   6.2 sec)
  promolecular density results
     # of electrons  =     24.000000804
     EX              =    -24.598489571
     EC              =     -0.813350005
     EX+EC           =    -25.411839576
Transforming the Hamiltonian                       ... done (   0.0 sec)
Diagonalizing the Hamiltonian                      ... done (   0.0 sec)
Back transforming the eigenvectors                 ... done (   0.0 sec)
Now organizing SCF variables                       ... done
                      ------------------
                      INITIAL GUESS DONE (   9.4 sec)
                      ------------------
--------------
SCF ITERATIONS
--------------
ITER       Energy         Delta-E        Max-DP      RMS-DP      [F,P]     Damp
               ***  Starting incremental Fock matrix formation  ***
  0   -229.5612705420   0.000000000000 0.00781593  0.00010860  0.1765590 0.7000
  1   -229.5958536239  -0.034583081968 0.00325436  0.00004710  0.0364621 0.7000
                               ***Turning on DIIS***
  2   -229.6013341287  -0.005480504760 0.00643851  0.00006332  0.0304670 0.0000
  3   -229.6248342288  -0.023500100049 0.00291513  0.00002812  0.0255343 0.0000
  4   -229.6253945415  -0.000560312706 0.00101168  0.00001054  0.0139304 0.0000
  5   -229.6256084744  -0.000213932890 0.00038391  0.00000515  0.0041375 0.0000
  6   -229.6256413476  -0.000032873235 0.00009589  0.00000133  0.0015783 0.0000
  7   -229.6256442031  -0.000002855500 0.00006010  0.00000090  0.0002465 0.0000
  8   -229.6256443224  -0.000000119290 0.00002069  0.00000031  0.0002486 0.0000
  9   -229.6256444705  -0.000000148155 0.00000446  0.00000007  0.0000658 0.0000
 10   -229.6256444762  -0.000000005641 0.00000181  0.00000002  0.0000259 0.0000
 11   -229.6256444766  -0.000000000431 0.00000547  0.00000004  0.0000120 0.0000
 12   -229.6256444769  -0.000000000294 0.00000473  0.00000005  0.0000014 0.0000
 13   -229.6256444769   0.000000000000 0.00001479  0.00000011  0.0000003 0.0000
 14   -229.6256444769  -0.000000000005 0.00001571  0.00000014  0.0000002 0.0000
                 **** Energy Check signals convergence ****

               *****************************************************
               *                     SUCCESS                       *
               *           SCF CONVERGED AFTER  15 CYCLES          *
               *****************************************************


----------------
TOTAL SCF ENERGY
----------------

Total Energy       :         -229.62564448 Eh           -6248.43145 eV

Components:
Nuclear Repulsion  :           65.60484334 Eh            1785.19855 eV
Electronic Energy  :         -295.23048782 Eh           -8033.63000 eV
One Electron Energy:         -446.44441956 Eh          -12148.37027 eV
Two Electron Energy:          151.21393175 Eh            4114.74027 eV

Virial components:
Potential Energy   :         -458.62579016 Eh          -12479.84221 eV
Kinetic Energy     :          229.00014568 Eh            6231.41076 eV
Virial Ratio       :            2.00273143


DFT components:
N(Alpha)           :       12.000000177308 electrons
N(Beta)            :       12.000000177308 electrons
N(Total)           :       24.000000354616 electrons
E(X)               :      -24.745426636195 Eh       
E(C)               :       -0.812648309859 Eh       
E(XC)              :      -25.558074946054 Eh       
DFET-embed. en.    :        0.000000000000 Eh       

---------------
SCF CONVERGENCE
---------------

  Last Energy change         ...   -1.9895e-12  Tolerance :   1.0000e-09
  Last MAX-Density change    ...    3.8484e-05  Tolerance :   1.0000e-08
  Last RMS-Density change    ...    3.2753e-07  Tolerance :   1.0000e-09
  Last DIIS Error            ...    9.2955e-08  Tolerance :   1.0000e-08

             **** THE GBW FILE WAS UPDATED (fno_pbe.gbw) ****
             **** DENSITY FILE WAS UPDATED (fno_pbe.scfp.tmp) ****
             **** ENERGY FILE WAS UPDATED (fno_pbe.en.tmp) ****
----------------------
UHF SPIN CONTAMINATION
----------------------

Warning: in a DFT calculation there is little theoretical justification to 
         calculate <S**2> as in Hartree-Fock theory. We will do it anyways
         but you should keep in mind that the values have only limited relevance

Expectation value of <S**2>     :     0.000000
Ideal value S*(S+1) for S=0.0   :     0.000000
Deviation                       :     0.000000

----------------
ORBITAL ENERGIES
----------------
                 SPIN UP ORBITALS
  NO   OCC          E(Eh)            E(eV) 
   0   1.0000     -24.263367      -660.2398 
   1   1.0000     -18.907329      -514.4946 
   2   1.0000     -14.214077      -386.7847 
   3   1.0000      -1.217997       -33.1434 
   4   1.0000      -1.070120       -29.1195 
   5   1.0000      -0.653529       -17.7834 
   6   1.0000      -0.538036       -14.6407 
   7   1.0000      -0.520922       -14.1750 
   8   1.0000      -0.491375       -13.3710 
   9   1.0000      -0.359577        -9.7846 
  10   1.0000      -0.341691        -9.2979 
  11   1.0000      -0.305943        -8.3251 
  12   0.0000      -0.174220        -4.7408 
  13   0.0000      -0.059084        -1.6078 
  14   0.0000      -0.003043        -0.0828 
  15   0.0000       0.020535         0.5588 
  16   0.0000       0.022080         0.6008 
  17   0.0000       0.023304         0.6341 
  18   0.0000       0.053690         1.4610 
  19   0.0000       0.057733         1.5710 
  20   0.0000       0.059458         1.6179 
  21   0.0000       0.066651         1.8137 
  22   0.0000       0.072972         1.9857 
  23   0.0000       0.091150         2.4803 
  24   0.0000       0.103386         2.8133 
  25   0.0000       0.110033         2.9942 
  26   0.0000       0.111406         3.0315 
  27   0.0000       0.119706         3.2574 
  28   0.0000       0.151931         4.1343 
  29   0.0000       0.156509         4.2588 
  30   0.0000       0.160081         4.3560 
  31   0.0000       0.173970         4.7340 
  32   0.0000       0.178452         4.8559 
  33   0.0000       0.180255         4.9050 
  34   0.0000       0.187192         5.0938 
  35   0.0000       0.193480         5.2649 
  36   0.0000       0.197766         5.3815 
  37   0.0000       0.223559         6.0834 
  38   0.0000       0.237542         6.4638 
  39   0.0000       0.251174         6.8348 
  40   0.0000       0.251324         6.8389 
  41   0.0000       0.283017         7.7013 
  42   0.0000       0.287387         7.8202 
  43   0.0000       0.296588         8.0706 
  44   0.0000       0.301464         8.2033 
  45   0.0000       0.301489         8.2039 
  46   0.0000       0.314561         8.5597 
  47   0.0000       0.323876         8.8131 
  48   0.0000       0.332501         9.0478 
  49   0.0000       0.336116         9.1462 
  50   0.0000       0.346218         9.4211 
  51   0.0000       0.356661         9.7052 
  52   0.0000       0.361126         9.8268 
  53   0.0000       0.365619         9.9490 
  54   0.0000       0.366688         9.9781 
  55   0.0000       0.372236        10.1291 
  56   0.0000       0.386912        10.5284 
  57   0.0000       0.413676        11.2567 
  58   0.0000       0.415666        11.3108 
  59   0.0000       0.420817        11.4510 
  60   0.0000       0.430845        11.7239 
  61   0.0000       0.434514        11.8237 
  62   0.0000       0.448736        12.2107 
  63   0.0000       0.455167        12.3857 
  64   0.0000       0.465136        12.6570 
  65   0.0000       0.476272        12.9600 
  66   0.0000       0.534504        14.5446 
  67   0.0000       0.540768        14.7150 
  68   0.0000       0.544391        14.8136 
  69   0.0000       0.548013        14.9122 
  70   0.0000       0.554309        15.0835 
  71   0.0000       0.570433        15.5223 
  72   0.0000       0.576054        15.6752 
  73   0.0000       0.584134        15.8951 
  74   0.0000       0.598838        16.2952 
  75   0.0000       0.608863        16.5680 
  76   0.0000       0.611797        16.6479 
  77   0.0000       0.617773        16.8105 
  78   0.0000       0.618901        16.8411 
  79   0.0000       0.627853        17.0848 
  80   0.0000       0.640071        17.4172 
  81   0.0000       0.644961        17.5503 
  82   0.0000       0.669311        18.2129 
  83   0.0000       0.673309        18.3217 
  84   0.0000       0.684655        18.6304 
  85   0.0000       0.689476        18.7616 
  86   0.0000       0.703523        19.1438 
  87   0.0000       0.712443        19.3866 
  88   0.0000       0.719524        19.5792 
  89   0.0000       0.725950        19.7541 
  90   0.0000       0.743605        20.2345 
  91   0.0000       0.756776        20.5929 
  92   0.0000       0.768238        20.9048 
  93   0.0000       0.777690        21.1620 
  94   0.0000       0.785350        21.3704 
  95   0.0000       0.788964        21.4688 
  96   0.0000       0.801765        21.8171 
  97   0.0000       0.813568        22.1383 
  98   0.0000       0.823055        22.3965 
  99   0.0000       0.826750        22.4970 
 100   0.0000       0.834857        22.7176 
 101   0.0000       0.845618        23.0104 
 102   0.0000       0.855725        23.2855 
 103   0.0000       0.866373        23.5752 
 104   0.0000       0.872891        23.7526 
 105   0.0000       0.887945        24.1622 
 106   0.0000       0.889284        24.1986 
 107   0.0000       0.890780        24.2393 
 108   0.0000       0.908778        24.7291 
 109   0.0000       0.909510        24.7490 
 110   0.0000       0.910738        24.7824 
 111   0.0000       0.935635        25.4599 
 112   0.0000       0.936933        25.4953 
 113   0.0000       0.961947        26.1759 
 114   0.0000       0.973101        26.4794 
 115   0.0000       0.976717        26.5778 
 116   0.0000       0.996227        27.1087 
 117   0.0000       1.007944        27.4275 
 118   0.0000       1.026214        27.9247 
 119   0.0000       1.053783        28.6749 
 120   0.0000       1.076064        29.2812 
 121   0.0000       1.079828        29.3836 
 122   0.0000       1.087509        29.5926 
 123   0.0000       1.100353        29.9421 
 124   0.0000       1.102906        30.0116 
 125   0.0000       1.112958        30.2851 
 126   0.0000       1.130625        30.7659 
 127   0.0000       1.139062        30.9954 
 128   0.0000       1.144625        31.1468 
 129   0.0000       1.163557        31.6620 
 130   0.0000       1.177657        32.0457 
 131   0.0000       1.192328        32.4449 
 132   0.0000       1.200558        32.6688 
 133   0.0000       1.203794        32.7569 
 134   0.0000       1.204189        32.7677 
 135   0.0000       1.224553        33.3218 
 136   0.0000       1.233553        33.5667 
 137   0.0000       1.234563        33.5942 
 138   0.0000       1.256115        34.1806 
 139   0.0000       1.262314        34.3493 
 140   0.0000       1.267246        34.4835 
 141   0.0000       1.283773        34.9332 
 142   0.0000       1.314275        35.7632 
 143   0.0000       1.318185        35.8696 
 144   0.0000       1.337515        36.3956 
 145   0.0000       1.350083        36.7376 
 146   0.0000       1.383689        37.6521 
 147   0.0000       1.399749        38.0891 
 148   0.0000       1.402546        38.1652 
 149   0.0000       1.409255        38.3478 
 150   0.0000       1.414460        38.4894 
 151   0.0000       1.436560        39.0908 
 152   0.0000       1.443847        39.2891 
 153   0.0000       1.460435        39.7405 
 154   0.0000       1.469807        39.9955 
 155   0.0000       1.482014        40.3277 
 156   0.0000       1.501602        40.8607 
 157   0.0000       1.522146        41.4197 
 158   0.0000       1.535743        41.7897 
 159   0.0000       1.546767        42.0897 
 160   0.0000       1.568657        42.6853 
 161   0.0000       1.583581        43.0914 
 162   0.0000       1.605652        43.6920 
 163   0.0000       1.665128        45.3104 
 164   0.0000       1.678178        45.6655 
 165   0.0000       1.688208        45.9385 
 166   0.0000       1.732152        47.1342 
 167   0.0000       1.768646        48.1273 
 168   0.0000       1.843709        50.1699 
 169   0.0000       1.897435        51.6318 
 170   0.0000       1.897763        51.6407 
 171   0.0000       1.918735        52.2114 
 172   0.0000       2.023894        55.0730 
 173   0.0000       2.068644        56.2907 
 174   0.0000       2.076548        56.5057 
 175   0.0000       2.128331        57.9148 
 176   0.0000       2.132555        58.0298 
 177   0.0000       2.143636        58.3313 
 178   0.0000       2.167681        58.9856 
 179   0.0000       2.198473        59.8235 
 180   0.0000       2.232329        60.7448 
 181   0.0000       2.245618        61.1064 
 182   0.0000       2.287068        62.2343 
 183   0.0000       2.356738        64.1301 
 184   0.0000       2.393645        65.1344 
 185   0.0000       2.422617        65.9227 
 186   0.0000       2.438083        66.3436 
 187   0.0000       2.499595        68.0174 
 188   0.0000       2.504239        68.1438 
 189   0.0000       2.530683        68.8634 
 190   0.0000       2.538450        69.0747 
 191   0.0000       2.601119        70.7800 
 192   0.0000       2.622701        71.3673 
 193   0.0000       2.627406        71.4954 
 194   0.0000       2.681143        72.9576 
 195   0.0000       2.734022        74.3965 
 196   0.0000       2.738820        74.5271 
 197   0.0000       2.863094        77.9087 
 198   0.0000       2.869619        78.0863 
 199   0.0000       2.958960        80.5174 
 200   0.0000       2.993411        81.4549 
 201   0.0000       3.043253        82.8111 
 202   0.0000       3.051261        83.0290 
 203   0.0000       3.068687        83.5032 
 204   0.0000       3.121879        84.9506 
 205   0.0000       3.176048        86.4247 
 206   0.0000       3.210542        87.3633 
 207   0.0000       3.276970        89.1709 
 208   0.0000       3.341482        90.9264 
 209   0.0000       3.416892        92.9784 
 210   0.0000       3.450395        93.8900 
 211   0.0000       3.497980        95.1849 
 212   0.0000       3.623533        98.6013 
 213   0.0000       3.770756       102.6075 
 214   0.0000       4.068908       110.7206 
 215   0.0000       4.088678       111.2586 
 216   0.0000       4.122317       112.1739 
 217   0.0000       4.165528       113.3498 
 218   0.0000       4.257920       115.8639 
 219   0.0000       4.296869       116.9238 
 220   0.0000       4.380860       119.2093 
 221   0.0000       4.434708       120.6745 
 222   0.0000       4.599045       125.1464 
 223   0.0000       4.618993       125.6892 
 224   0.0000       4.629092       125.9640 
 225   0.0000       4.663237       126.8931 
 226   0.0000       4.749392       129.2375 
 227   0.0000       4.958817       134.9363 
 228   0.0000       4.986427       135.6876 
 229   0.0000       5.060065       137.6914 
 230   0.0000       5.074023       138.0712 
 231   0.0000       5.188008       141.1729 
 232   0.0000       5.251026       142.8877 
 233   0.0000       5.310141       144.4963 
 234   0.0000       5.324455       144.8858 
 235   0.0000       5.356221       145.7502 
 236   0.0000       5.358134       145.8022 
 237   0.0000       5.398388       146.8976 
 238   0.0000       5.422882       147.5641 
 239   0.0000       5.434927       147.8919 
 240   0.0000       5.576924       151.7558 
 241   0.0000       5.692482       154.9003 
 242   0.0000       5.706697       155.2871 
 243   0.0000       5.719149       155.6259 
 244   0.0000       5.776099       157.1756 
 245   0.0000       5.824137       158.4828 
 246   0.0000       5.865150       159.5988 
 247   0.0000       5.906786       160.7318 
 248   0.0000       5.934134       161.4760 
 249   0.0000       5.961368       162.2171 
 250   0.0000       6.030000       164.0846 
 251   0.0000       6.064861       165.0332 
 252   0.0000       6.090015       165.7177 
 253   0.0000       6.159799       167.6167 
 254   0.0000       6.188423       168.3955 
 255   0.0000       6.207922       168.9262 
 256   0.0000       6.223863       169.3599 
 257   0.0000       6.308221       171.6554 
 258   0.0000       6.328555       172.2087 
 259   0.0000       6.521806       177.4673 
 260   0.0000       6.580803       179.0727 
 261   0.0000       6.606729       179.7782 
 262   0.0000       6.686292       181.9432 
 263   0.0000       6.724076       182.9714 
 264   0.0000       6.837260       186.0513 
 265   0.0000       6.972050       189.7191 
 266   0.0000       6.986539       190.1134 
 267   0.0000       7.013168       190.8380 
 268   0.0000       7.134663       194.1441 
 269   0.0000       7.142576       194.3594 
 270   0.0000       7.156182       194.7296 
 271   0.0000       7.189038       195.6237 
 272   0.0000       7.197975       195.8669 
 273   0.0000       7.231041       196.7666 
 274   0.0000       7.476081       203.4345 
 275   0.0000       7.555838       205.6048 
 276   0.0000       7.697055       209.4475 
 277   0.0000       7.713771       209.9024 
 278   0.0000       7.803619       212.3473 
 279   0.0000       7.876494       214.3303 
 280   0.0000       8.094293       220.2569 
 281   0.0000       8.247379       224.4226 
 282   0.0000       8.347997       227.1606 
 283   0.0000       8.431727       229.4390 
 284   0.0000       8.556646       232.8382 
 285   0.0000       8.966568       243.9927 
 286   0.0000       9.017053       245.3665 
 287   0.0000       9.098685       247.5878 
 288   0.0000       9.237986       251.3784 
 289   0.0000       9.368922       254.9413 
 290   0.0000       9.434951       256.7381 
 291   0.0000       9.859277       268.2846 
 292   0.0000      10.235308       278.5169 
 293   0.0000      10.352343       281.7016 
 294   0.0000      10.404978       283.1338 
 295   0.0000      10.675309       290.4899 
 296   0.0000      10.914807       297.0070 
 297   0.0000      10.930150       297.4245 
 298   0.0000      10.958782       298.2036 
 299   0.0000      11.024829       300.0009 
 300   0.0000      11.042774       300.4891 
 301   0.0000      11.132897       302.9415 
 302   0.0000      11.163856       303.7840 
 303   0.0000      11.177822       304.1640 
 304   0.0000      11.267749       306.6110 
 305   0.0000      11.283912       307.0509 
 306   0.0000      11.286856       307.1310 
 307   0.0000      11.340505       308.5908 
 308   0.0000      11.496127       312.8255 
 309   0.0000      11.577065       315.0280 
 310   0.0000      11.811038       321.3947 
 311   0.0000      11.927355       324.5598 
 312   0.0000      11.928368       324.5874 
 313   0.0000      11.954200       325.2903 
 314   0.0000      11.980925       326.0175 
 315   0.0000      12.204828       332.1102 
 316   0.0000      12.225611       332.6758 
 317   0.0000      12.273323       333.9741 
 318   0.0000      12.338548       335.7490 
 319   0.0000      12.368805       336.5723 
 320   0.0000      12.498347       340.0973 
 321   0.0000      12.554654       341.6295 
 322   0.0000      12.648498       344.1831 
 323   0.0000      12.664569       344.6204 
 324   0.0000      12.666925       344.6846 
 325   0.0000      12.680882       345.0643 
 326   0.0000      12.687280       345.2384 
 327   0.0000      12.690125       345.3159 
 328   0.0000      12.694123       345.4247 
 329   0.0000      12.746715       346.8557 
 330   0.0000      12.836890       349.3095 
 331   0.0000      12.903338       351.1177 
 332   0.0000      12.974442       353.0525 
 333   0.0000      13.024942       354.4267 
 334   0.0000      13.035959       354.7265 
 335   0.0000      13.087408       356.1265 
 336   0.0000      13.216657       359.6435 
 337   0.0000      13.311020       362.2113 
 338   0.0000      13.340821       363.0222 
 339   0.0000      13.492312       367.1445 
 340   0.0000      13.581753       369.5783 
 341   0.0000      13.724566       373.4644 
 342   0.0000      13.761119       374.4591 
 343   0.0000      14.010574       381.2471 
 344   0.0000      14.128446       384.4546 
 345   0.0000      14.249765       387.7558 
 346   0.0000      14.394343       391.6900 
 347   0.0000      14.432531       392.7291 
 348   0.0000      14.508070       394.7847 
 349   0.0000      14.615370       397.7044 
 350   0.0000      14.743413       401.1887 
 351   0.0000      14.882729       404.9796 
 352   0.0000      14.993647       407.9979 
 353   0.0000      15.010716       408.4623 
 354   0.0000      15.011721       408.4897 
 355   0.0000      15.040702       409.2783 
 356   0.0000      15.101121       410.9224 
 357   0.0000      15.185243       413.2115 
 358   0.0000      15.243043       414.7843 
 359   0.0000      15.291796       416.1109 
 360   0.0000      15.448324       420.3703 
 361   0.0000      15.579747       423.9465 
 362   0.0000      15.791873       429.7187 
 363   0.0000      15.828356       430.7115 
 364   0.0000      15.944989       433.8852 
 365   0.0000      16.110251       438.3822 
 366   0.0000      16.142477       439.2591 
 367   0.0000      16.191183       440.5845 
 368   0.0000      16.301094       443.5753 
 369   0.0000      16.504860       449.1201 
 370   0.0000      16.652962       453.1501 
 371   0.0000      16.883400       459.4207 
 372   0.0000      16.898378       459.8282 
 373   0.0000      16.941434       460.9999 
 374   0.0000      16.994784       462.4516 
 375   0.0000      17.187941       467.7076 
 376   0.0000      17.269764       469.9342 
 377   0.0000      17.919836       487.6235 
 378   0.0000      17.973900       489.0947 
 379   0.0000      18.525436       504.1028 
 380   0.0000      18.710842       509.1479 
 381   0.0000      18.819269       512.0984 
 382   0.0000      18.831880       512.4415 
 383   0.0000      18.942735       515.4580 
 384   0.0000      19.276932       524.5520 
 385   0.0000      20.116871       547.4079 
 386   0.0000      20.119190       547.4710 
 387   0.0000      20.151843       548.3595 
 388   0.0000      20.188115       549.3465 
 389   0.0000      20.444149       556.3136 
 390   0.0000      20.497339       557.7609 
 391   0.0000      20.637601       561.5777 
 392   0.0000      21.356832       581.1490 
 393   0.0000      21.445876       583.5720 
 394   0.0000      22.492253       612.0453 
 395   0.0000      22.958648       624.7366 
 396   0.0000      23.009069       626.1086 
 397   0.0000      23.982733       652.6033 
 398   0.0000      24.307890       661.4513 
 399   0.0000      24.557838       668.2527 
 400   0.0000      25.926915       705.5072 
 401   0.0000      26.191508       712.7072 
 402   0.0000      27.035163       735.6642 
 403   0.0000      28.841541       784.8182 
 404   0.0000      30.397663       827.1625 
 405   0.0000      30.473619       829.2293 
 406   0.0000      30.535964       830.9258 
 407   0.0000      30.678241       834.7974 
 408   0.0000      31.209221       849.2461 
 409   0.0000      31.381876       853.9443 
 410   0.0000      31.821661       865.9114 
 411   0.0000      32.016267       871.2069 
 412   0.0000      34.356823       934.8967 
 413   0.0000      41.637534      1133.0149 
 414   0.0000      41.750906      1136.0999 
 415   0.0000      41.888259      1139.8375 
 416   0.0000      43.130059      1173.6286 
 417   0.0000      47.582502      1294.7857 
 418   0.0000      47.757283      1299.5418 
 419   0.0000      47.908238      1303.6494 
 420   0.0000      48.278577      1313.7269 
 421   0.0000      49.372939      1343.5060 
 422   0.0000      66.490470      1809.2977 
 423   0.0000      66.518257      1810.0538 
 424   0.0000      67.315344      1831.7436 
 425   0.0000      67.427099      1834.7846 
 426   0.0000      69.047383      1878.8748 
 427   0.0000      91.311466      2484.7113 
 428   0.0000      91.363866      2486.1372 
 429   0.0000      91.405658      2487.2744 
 430   0.0000      91.502671      2489.9143 
 431   0.0000      91.903701      2500.8268 
 432   0.0000     105.785504      2878.5699 
 433   0.0000     143.746565      3911.5429 
 434   0.0000     201.712535      5488.8771 

                 SPIN DOWN ORBITALS
  NO   OCC          E(Eh)            E(eV) 
   0   1.0000     -24.263367      -660.2398 
   1   1.0000     -18.907329      -514.4946 
   2   1.0000     -14.214077      -386.7847 
   3   1.0000      -1.217997       -33.1434 
   4   1.0000      -1.070120       -29.1195 
   5   1.0000      -0.653529       -17.7834 
   6   1.0000      -0.538036       -14.6407 
   7   1.0000      -0.520922       -14.1750 
   8   1.0000      -0.491375       -13.3710 
   9   1.0000      -0.359577        -9.7846 
  10   1.0000      -0.341691        -9.2979 
  11   1.0000      -0.305943        -8.3251 
  12   0.0000      -0.174220        -4.7408 
  13   0.0000      -0.059084        -1.6078 
  14   0.0000      -0.003043        -0.0828 
  15   0.0000       0.020535         0.5588 
  16   0.0000       0.022080         0.6008 
  17   0.0000       0.023304         0.6341 
  18   0.0000       0.053690         1.4610 
  19   0.0000       0.057733         1.5710 
  20   0.0000       0.059458         1.6179 
  21   0.0000       0.066651         1.8137 
  22   0.0000       0.072972         1.9857 
  23   0.0000       0.091150         2.4803 
  24   0.0000       0.103386         2.8133 
  25   0.0000       0.110033         2.9942 
  26   0.0000       0.111406         3.0315 
  27   0.0000       0.119706         3.2574 
  28   0.0000       0.151931         4.1343 
  29   0.0000       0.156509         4.2588 
  30   0.0000       0.160081         4.3560 
  31   0.0000       0.173970         4.7340 
  32   0.0000       0.178452         4.8559 
  33   0.0000       0.180255         4.9050 
  34   0.0000       0.187192         5.0938 
  35   0.0000       0.193480         5.2649 
  36   0.0000       0.197766         5.3815 
  37   0.0000       0.223559         6.0834 
  38   0.0000       0.237542         6.4638 
  39   0.0000       0.251174         6.8348 
  40   0.0000       0.251324         6.8389 
  41   0.0000       0.283017         7.7013 
  42   0.0000       0.287387         7.8202 
  43   0.0000       0.296588         8.0706 
  44   0.0000       0.301464         8.2033 
  45   0.0000       0.301489         8.2039 
  46   0.0000       0.314561         8.5597 
  47   0.0000       0.323876         8.8131 
  48   0.0000       0.332501         9.0478 
  49   0.0000       0.336116         9.1462 
  50   0.0000       0.346218         9.4211 
  51   0.0000       0.356661         9.7052 
  52   0.0000       0.361126         9.8268 
  53   0.0000       0.365619         9.9490 
  54   0.0000       0.366688         9.9781 
  55   0.0000       0.372236        10.1291 
  56   0.0000       0.386912        10.5284 
  57   0.0000       0.413676        11.2567 
  58   0.0000       0.415666        11.3108 
  59   0.0000       0.420817        11.4510 
  60   0.0000       0.430845        11.7239 
  61   0.0000       0.434514        11.8237 
  62   0.0000       0.448736        12.2107 
  63   0.0000       0.455167        12.3857 
  64   0.0000       0.465136        12.6570 
  65   0.0000       0.476272        12.9600 
  66   0.0000       0.534504        14.5446 
  67   0.0000       0.540768        14.7150 
  68   0.0000       0.544391        14.8136 
  69   0.0000       0.548013        14.9122 
  70   0.0000       0.554309        15.0835 
  71   0.0000       0.570433        15.5223 
  72   0.0000       0.576054        15.6752 
  73   0.0000       0.584134        15.8951 
  74   0.0000       0.598838        16.2952 
  75   0.0000       0.608863        16.5680 
  76   0.0000       0.611797        16.6479 
  77   0.0000       0.617773        16.8105 
  78   0.0000       0.618901        16.8411 
  79   0.0000       0.627853        17.0848 
  80   0.0000       0.640071        17.4172 
  81   0.0000       0.644961        17.5503 
  82   0.0000       0.669311        18.2129 
  83   0.0000       0.673309        18.3217 
  84   0.0000       0.684655        18.6304 
  85   0.0000       0.689476        18.7616 
  86   0.0000       0.703523        19.1438 
  87   0.0000       0.712443        19.3866 
  88   0.0000       0.719524        19.5792 
  89   0.0000       0.725950        19.7541 
  90   0.0000       0.743605        20.2345 
  91   0.0000       0.756776        20.5929 
  92   0.0000       0.768238        20.9048 
  93   0.0000       0.777690        21.1620 
  94   0.0000       0.785350        21.3704 
  95   0.0000       0.788964        21.4688 
  96   0.0000       0.801765        21.8171 
  97   0.0000       0.813568        22.1383 
  98   0.0000       0.823055        22.3965 
  99   0.0000       0.826750        22.4970 
 100   0.0000       0.834857        22.7176 
 101   0.0000       0.845618        23.0104 
 102   0.0000       0.855725        23.2855 
 103   0.0000       0.866373        23.5752 
 104   0.0000       0.872891        23.7526 
 105   0.0000       0.887945        24.1622 
 106   0.0000       0.889284        24.1986 
 107   0.0000       0.890780        24.2393 
 108   0.0000       0.908778        24.7291 
 109   0.0000       0.909510        24.7490 
 110   0.0000       0.910738        24.7824 
 111   0.0000       0.935635        25.4599 
 112   0.0000       0.936933        25.4953 
 113   0.0000       0.961947        26.1759 
 114   0.0000       0.973101        26.4794 
 115   0.0000       0.976717        26.5778 
 116   0.0000       0.996227        27.1087 
 117   0.0000       1.007944        27.4275 
 118   0.0000       1.026214        27.9247 
 119   0.0000       1.053783        28.6749 
 120   0.0000       1.076064        29.2812 
 121   0.0000       1.079828        29.3836 
 122   0.0000       1.087509        29.5926 
 123   0.0000       1.100353        29.9421 
 124   0.0000       1.102906        30.0116 
 125   0.0000       1.112958        30.2851 
 126   0.0000       1.130625        30.7659 
 127   0.0000       1.139062        30.9954 
 128   0.0000       1.144625        31.1468 
 129   0.0000       1.163557        31.6620 
 130   0.0000       1.177657        32.0457 
 131   0.0000       1.192328        32.4449 
 132   0.0000       1.200558        32.6688 
 133   0.0000       1.203794        32.7569 
 134   0.0000       1.204189        32.7677 
 135   0.0000       1.224553        33.3218 
 136   0.0000       1.233553        33.5667 
 137   0.0000       1.234563        33.5942 
 138   0.0000       1.256115        34.1806 
 139   0.0000       1.262314        34.3493 
 140   0.0000       1.267246        34.4835 
 141   0.0000       1.283773        34.9332 
 142   0.0000       1.314275        35.7632 
 143   0.0000       1.318185        35.8696 
 144   0.0000       1.337515        36.3956 
 145   0.0000       1.350083        36.7376 
 146   0.0000       1.383689        37.6521 
 147   0.0000       1.399749        38.0891 
 148   0.0000       1.402546        38.1652 
 149   0.0000       1.409255        38.3478 
 150   0.0000       1.414460        38.4894 
 151   0.0000       1.436560        39.0908 
 152   0.0000       1.443847        39.2891 
 153   0.0000       1.460435        39.7405 
 154   0.0000       1.469807        39.9955 
 155   0.0000       1.482014        40.3277 
 156   0.0000       1.501602        40.8607 
 157   0.0000       1.522146        41.4197 
 158   0.0000       1.535743        41.7897 
 159   0.0000       1.546767        42.0897 
 160   0.0000       1.568657        42.6853 
 161   0.0000       1.583581        43.0914 
 162   0.0000       1.605652        43.6920 
 163   0.0000       1.665128        45.3104 
 164   0.0000       1.678178        45.6655 
 165   0.0000       1.688208        45.9385 
 166   0.0000       1.732152        47.1342 
 167   0.0000       1.768646        48.1273 
 168   0.0000       1.843709        50.1699 
 169   0.0000       1.897435        51.6318 
 170   0.0000       1.897763        51.6407 
 171   0.0000       1.918735        52.2114 
 172   0.0000       2.023894        55.0730 
 173   0.0000       2.068644        56.2907 
 174   0.0000       2.076548        56.5057 
 175   0.0000       2.128331        57.9148 
 176   0.0000       2.132555        58.0298 
 177   0.0000       2.143636        58.3313 
 178   0.0000       2.167681        58.9856 
 179   0.0000       2.198473        59.8235 
 180   0.0000       2.232329        60.7448 
 181   0.0000       2.245618        61.1064 
 182   0.0000       2.287068        62.2343 
 183   0.0000       2.356738        64.1301 
 184   0.0000       2.393645        65.1344 
 185   0.0000       2.422617        65.9227 
 186   0.0000       2.438083        66.3436 
 187   0.0000       2.499595        68.0174 
 188   0.0000       2.504239        68.1438 
 189   0.0000       2.530683        68.8634 
 190   0.0000       2.538450        69.0747 
 191   0.0000       2.601119        70.7800 
 192   0.0000       2.622701        71.3673 
 193   0.0000       2.627406        71.4954 
 194   0.0000       2.681143        72.9576 
 195   0.0000       2.734022        74.3965 
 196   0.0000       2.738820        74.5271 
 197   0.0000       2.863094        77.9087 
 198   0.0000       2.869619        78.0863 
 199   0.0000       2.958960        80.5174 
 200   0.0000       2.993411        81.4549 
 201   0.0000       3.043253        82.8111 
 202   0.0000       3.051261        83.0290 
 203   0.0000       3.068687        83.5032 
 204   0.0000       3.121879        84.9506 
 205   0.0000       3.176048        86.4247 
 206   0.0000       3.210542        87.3633 
 207   0.0000       3.276970        89.1709 
 208   0.0000       3.341482        90.9264 
 209   0.0000       3.416892        92.9784 
 210   0.0000       3.450395        93.8900 
 211   0.0000       3.497980        95.1849 
 212   0.0000       3.623533        98.6013 
 213   0.0000       3.770756       102.6075 
 214   0.0000       4.068908       110.7206 
 215   0.0000       4.088678       111.2586 
 216   0.0000       4.122317       112.1739 
 217   0.0000       4.165528       113.3498 
 218   0.0000       4.257920       115.8639 
 219   0.0000       4.296869       116.9238 
 220   0.0000       4.380860       119.2093 
 221   0.0000       4.434708       120.6745 
 222   0.0000       4.599045       125.1464 
 223   0.0000       4.618993       125.6892 
 224   0.0000       4.629092       125.9640 
 225   0.0000       4.663237       126.8931 
 226   0.0000       4.749392       129.2375 
 227   0.0000       4.958817       134.9363 
 228   0.0000       4.986427       135.6876 
 229   0.0000       5.060065       137.6914 
 230   0.0000       5.074023       138.0712 
 231   0.0000       5.188008       141.1729 
 232   0.0000       5.251026       142.8877 
 233   0.0000       5.310141       144.4963 
 234   0.0000       5.324455       144.8858 
 235   0.0000       5.356221       145.7502 
 236   0.0000       5.358134       145.8022 
 237   0.0000       5.398388       146.8976 
 238   0.0000       5.422882       147.5641 
 239   0.0000       5.434927       147.8919 
 240   0.0000       5.576924       151.7558 
 241   0.0000       5.692482       154.9003 
 242   0.0000       5.706697       155.2871 
 243   0.0000       5.719149       155.6259 
 244   0.0000       5.776099       157.1756 
 245   0.0000       5.824137       158.4828 
 246   0.0000       5.865150       159.5988 
 247   0.0000       5.906786       160.7318 
 248   0.0000       5.934134       161.4760 
 249   0.0000       5.961368       162.2171 
 250   0.0000       6.030000       164.0846 
 251   0.0000       6.064861       165.0332 
 252   0.0000       6.090015       165.7177 
 253   0.0000       6.159799       167.6167 
 254   0.0000       6.188423       168.3955 
 255   0.0000       6.207922       168.9262 
 256   0.0000       6.223863       169.3599 
 257   0.0000       6.308221       171.6554 
 258   0.0000       6.328555       172.2087 
 259   0.0000       6.521806       177.4673 
 260   0.0000       6.580803       179.0727 
 261   0.0000       6.606729       179.7782 
 262   0.0000       6.686292       181.9432 
 263   0.0000       6.724076       182.9714 
 264   0.0000       6.837260       186.0513 
 265   0.0000       6.972050       189.7191 
 266   0.0000       6.986539       190.1134 
 267   0.0000       7.013168       190.8380 
 268   0.0000       7.134663       194.1441 
 269   0.0000       7.142576       194.3594 
 270   0.0000       7.156182       194.7296 
 271   0.0000       7.189038       195.6237 
 272   0.0000       7.197975       195.8669 
 273   0.0000       7.231041       196.7666 
 274   0.0000       7.476081       203.4345 
 275   0.0000       7.555838       205.6048 
 276   0.0000       7.697055       209.4475 
 277   0.0000       7.713771       209.9024 
 278   0.0000       7.803619       212.3473 
 279   0.0000       7.876494       214.3303 
 280   0.0000       8.094293       220.2569 
 281   0.0000       8.247379       224.4226 
 282   0.0000       8.347997       227.1606 
 283   0.0000       8.431727       229.4390 
 284   0.0000       8.556646       232.8382 
 285   0.0000       8.966568       243.9927 
 286   0.0000       9.017053       245.3665 
 287   0.0000       9.098685       247.5878 
 288   0.0000       9.237986       251.3784 
 289   0.0000       9.368922       254.9413 
 290   0.0000       9.434951       256.7381 
 291   0.0000       9.859277       268.2846 
 292   0.0000      10.235308       278.5169 
 293   0.0000      10.352343       281.7016 
 294   0.0000      10.404978       283.1338 
 295   0.0000      10.675309       290.4899 
 296   0.0000      10.914807       297.0070 
 297   0.0000      10.930150       297.4245 
 298   0.0000      10.958782       298.2036 
 299   0.0000      11.024829       300.0009 
 300   0.0000      11.042774       300.4891 
 301   0.0000      11.132897       302.9415 
 302   0.0000      11.163856       303.7840 
 303   0.0000      11.177822       304.1640 
 304   0.0000      11.267749       306.6110 
 305   0.0000      11.283912       307.0509 
 306   0.0000      11.286856       307.1310 
 307   0.0000      11.340505       308.5908 
 308   0.0000      11.496127       312.8255 
 309   0.0000      11.577065       315.0280 
 310   0.0000      11.811038       321.3947 
 311   0.0000      11.927355       324.5598 
 312   0.0000      11.928368       324.5874 
 313   0.0000      11.954200       325.2903 
 314   0.0000      11.980925       326.0175 
 315   0.0000      12.204828       332.1102 
 316   0.0000      12.225611       332.6758 
 317   0.0000      12.273323       333.9741 
 318   0.0000      12.338548       335.7490 
 319   0.0000      12.368805       336.5723 
 320   0.0000      12.498347       340.0973 
 321   0.0000      12.554654       341.6295 
 322   0.0000      12.648498       344.1831 
 323   0.0000      12.664569       344.6204 
 324   0.0000      12.666925       344.6846 
 325   0.0000      12.680882       345.0643 
 326   0.0000      12.687280       345.2384 
 327   0.0000      12.690125       345.3159 
 328   0.0000      12.694123       345.4247 
 329   0.0000      12.746715       346.8557 
 330   0.0000      12.836890       349.3095 
 331   0.0000      12.903338       351.1177 
 332   0.0000      12.974442       353.0525 
 333   0.0000      13.024942       354.4267 
 334   0.0000      13.035959       354.7265 
 335   0.0000      13.087408       356.1265 
 336   0.0000      13.216657       359.6435 
 337   0.0000      13.311020       362.2113 
 338   0.0000      13.340821       363.0222 
 339   0.0000      13.492312       367.1445 
 340   0.0000      13.581753       369.5783 
 341   0.0000      13.724566       373.4644 
 342   0.0000      13.761119       374.4591 
 343   0.0000      14.010574       381.2471 
 344   0.0000      14.128446       384.4546 
 345   0.0000      14.249765       387.7558 
 346   0.0000      14.394343       391.6900 
 347   0.0000      14.432531       392.7291 
 348   0.0000      14.508070       394.7847 
 349   0.0000      14.615370       397.7044 
 350   0.0000      14.743413       401.1887 
 351   0.0000      14.882729       404.9796 
 352   0.0000      14.993647       407.9979 
 353   0.0000      15.010716       408.4623 
 354   0.0000      15.011721       408.4897 
 355   0.0000      15.040702       409.2783 
 356   0.0000      15.101121       410.9224 
 357   0.0000      15.185243       413.2115 
 358   0.0000      15.243043       414.7843 
 359   0.0000      15.291796       416.1109 
 360   0.0000      15.448324       420.3703 
 361   0.0000      15.579747       423.9465 
 362   0.0000      15.791873       429.7187 
 363   0.0000      15.828356       430.7115 
 364   0.0000      15.944989       433.8852 
 365   0.0000      16.110251       438.3822 
 366   0.0000      16.142477       439.2591 
 367   0.0000      16.191183       440.5845 
 368   0.0000      16.301094       443.5753 
 369   0.0000      16.504860       449.1201 
 370   0.0000      16.652962       453.1501 
 371   0.0000      16.883400       459.4207 
 372   0.0000      16.898378       459.8282 
 373   0.0000      16.941434       460.9999 
 374   0.0000      16.994784       462.4516 
 375   0.0000      17.187941       467.7076 
 376   0.0000      17.269764       469.9342 
 377   0.0000      17.919836       487.6235 
 378   0.0000      17.973900       489.0947 
 379   0.0000      18.525436       504.1028 
 380   0.0000      18.710842       509.1479 
 381   0.0000      18.819269       512.0984 
 382   0.0000      18.831880       512.4415 
 383   0.0000      18.942735       515.4580 
 384   0.0000      19.276932       524.5520 
 385   0.0000      20.116871       547.4079 
 386   0.0000      20.119190       547.4710 
 387   0.0000      20.151843       548.3595 
 388   0.0000      20.188115       549.3465 
 389   0.0000      20.444149       556.3136 
 390   0.0000      20.497339       557.7609 
 391   0.0000      20.637601       561.5777 
 392   0.0000      21.356832       581.1490 
 393   0.0000      21.445876       583.5720 
 394   0.0000      22.492253       612.0453 
 395   0.0000      22.958648       624.7366 
 396   0.0000      23.009069       626.1086 
 397   0.0000      23.982733       652.6033 
 398   0.0000      24.307890       661.4513 
 399   0.0000      24.557838       668.2527 
 400   0.0000      25.926915       705.5072 
 401   0.0000      26.191508       712.7072 
 402   0.0000      27.035163       735.6642 
 403   0.0000      28.841541       784.8182 
 404   0.0000      30.397663       827.1625 
 405   0.0000      30.473619       829.2293 
 406   0.0000      30.535964       830.9258 
 407   0.0000      30.678241       834.7974 
 408   0.0000      31.209221       849.2461 
 409   0.0000      31.381876       853.9443 
 410   0.0000      31.821661       865.9114 
 411   0.0000      32.016267       871.2069 
 412   0.0000      34.356823       934.8967 
 413   0.0000      41.637534      1133.0149 
 414   0.0000      41.750906      1136.0999 
 415   0.0000      41.888259      1139.8375 
 416   0.0000      43.130059      1173.6286 
 417   0.0000      47.582502      1294.7857 
 418   0.0000      47.757283      1299.5418 
 419   0.0000      47.908238      1303.6494 
 420   0.0000      48.278577      1313.7269 
 421   0.0000      49.372939      1343.5060 
 422   0.0000      66.490470      1809.2977 
 423   0.0000      66.518257      1810.0538 
 424   0.0000      67.315344      1831.7436 
 425   0.0000      67.427099      1834.7846 
 426   0.0000      69.047383      1878.8748 
 427   0.0000      91.311466      2484.7113 
 428   0.0000      91.363866      2486.1372 
 429   0.0000      91.405658      2487.2744 
 430   0.0000      91.502671      2489.9143 
 431   0.0000      91.903701      2500.8268 
 432   0.0000     105.785504      2878.5699 
 433   0.0000     143.746565      3911.5429 
 434   0.0000     201.712535      5488.8771 

                    ********************************
                    * MULLIKEN POPULATION ANALYSIS *
                    ********************************

--------------------------------------------
MULLIKEN ATOMIC CHARGES AND SPIN POPULATIONS
--------------------------------------------
   0 F :   -0.259687   -0.000000
   1 N :    0.360156   -0.000000
   2 O :   -0.100470    0.000000
Sum of atomic charges         :    0.0000000
Sum of atomic spin populations:    0.0000000

-----------------------------------------------------
MULLIKEN REDUCED ORBITAL CHARGES AND SPIN POPULATIONS
-----------------------------------------------------
CHARGE
  0 F s       :     3.961245  s :     3.961245
      pz      :     1.849574  p :     5.274574
      px      :     1.780689
      py      :     1.644312
      dz2     :     0.003850  d :     0.023331
      dxz     :     0.002348
      dyz     :     0.002876
      dx2y2   :     0.005259
      dxy     :     0.008998
      f0      :     0.000364  f :     0.001642
      f+1     :     0.000108
      f-1     :     0.000342
      f+2     :    -0.000182
      f-2     :     0.000420
      f+3     :     0.000093
      f-3     :     0.000498
      g0      :     0.000006  g :    -0.000883
      g+1     :    -0.000238
      g-1     :     0.000049
      g+2     :    -0.000079
      g-2     :    -0.000001
      g+3     :     0.000018
      g-3     :     0.000053
      g+4     :    -0.000801
      g-4     :     0.000109
      h0      :    -0.000044  h :    -0.000224
      h+1     :    -0.000002
      h-1     :     0.000009
      h+2     :    -0.000044
      h-2     :    -0.000001
      h+3     :    -0.000047
      h-3     :    -0.000000
      h+4     :     0.000054
      h-4     :     0.000006
      h+5     :    -0.000135
      h-5     :    -0.000019
  1 N s       :     3.756433  s :     3.756433
      pz      :     0.813558  p :     2.703480
      px      :     0.883833
      py      :     1.006089
      dz2     :     0.011128  d :     0.152249
      dxz     :     0.037104
      dyz     :     0.009946
      dx2y2   :     0.035185
      dxy     :     0.058887
      f0      :     0.001799  f :     0.023176
      f+1     :     0.001188
      f-1     :     0.000477
      f+2     :     0.001819
      f-2     :     0.003570
      f+3     :     0.009091
      f-3     :     0.005232
      g0      :     0.000089  g :     0.004200
      g+1     :     0.000411
      g-1     :     0.000335
      g+2     :     0.000246
      g-2     :     0.000335
      g+3     :     0.000095
      g-3     :     0.000201
      g+4     :     0.000927
      g-4     :     0.001560
      h0      :     0.000016  h :     0.000306
      h+1     :     0.000016
      h-1     :    -0.000004
      h+2     :     0.000001
      h-2     :    -0.000002
      h+3     :     0.000030
      h-3     :    -0.000051
      h+4     :     0.000051
      h-4     :     0.000036
      h+5     :     0.000192
      h-5     :     0.000021
  2 O s       :     3.896557  s :     3.896557
      pz      :     1.245579  p :     4.134111
      px      :     1.273644
      py      :     1.614888
      dz2     :     0.005239  d :     0.060607
      dxz     :     0.022390
      dyz     :     0.002793
      dx2y2   :     0.015192
      dxy     :     0.014992
      f0      :     0.001098  f :     0.007966
      f+1     :     0.000910
      f-1     :    -0.000031
      f+2     :     0.002142
      f-2     :     0.001114
      f+3     :     0.001513
      f-3     :     0.001220
      g0      :    -0.000012  g :     0.001080
      g+1     :     0.000228
      g-1     :    -0.000017
      g+2     :     0.000130
      g-2     :    -0.000028
      g+3     :     0.000109
      g-3     :     0.000309
      g+4     :    -0.000135
      g-4     :     0.000496
      h0      :     0.000027  h :     0.000149
      h+1     :    -0.000023
      h-1     :    -0.000003
      h+2     :    -0.000013
      h-2     :    -0.000027
      h+3     :     0.000008
      h-3     :    -0.000006
      h+4     :     0.000000
      h-4     :     0.000076
      h+5     :    -0.000030
      h-5     :     0.000139

SPIN
  0 F s       :    -0.000000  s :    -0.000000
      pz      :     0.000000  p :    -0.000000
      px      :    -0.000000
      py      :    -0.000000
      dz2     :    -0.000000  d :    -0.000000
      dxz     :     0.000000
      dyz     :    -0.000000
      dx2y2   :    -0.000000
      dxy     :    -0.000000
      f0      :     0.000000  f :    -0.000000
      f+1     :     0.000000
      f-1     :    -0.000000
      f+2     :     0.000000
      f-2     :     0.000000
      f+3     :    -0.000000
      f-3     :    -0.000000
      g0      :     0.000000  g :    -0.000000
      g+1     :     0.000000
      g-1     :     0.000000
      g+2     :     0.000000
      g-2     :     0.000000
      g+3     :     0.000000
      g-3     :     0.000000
      g+4     :    -0.000000
      g-4     :    -0.000000
      h0      :     0.000000  h :    -0.000000
      h+1     :     0.000000
      h-1     :     0.000000
      h+2     :     0.000000
      h-2     :     0.000000
      h+3     :    -0.000000
      h-3     :    -0.000000
      h+4     :    -0.000000
      h-4     :     0.000000
      h+5     :    -0.000000
      h-5     :    -0.000000
  1 N s       :    -0.000000  s :    -0.000000
      pz      :    -0.000000  p :    -0.000000
      px      :     0.000000
      py      :    -0.000000
      dz2     :    -0.000000  d :    -0.000000
      dxz     :     0.000000
      dyz     :    -0.000000
      dx2y2   :     0.000000
      dxy     :    -0.000000
      f0      :    -0.000000  f :    -0.000000
      f+1     :     0.000000
      f-1     :    -0.000000
      f+2     :    -0.000000
      f-2     :    -0.000000
      f+3     :    -0.000000
      f-3     :    -0.000000
      g0      :     0.000000  g :    -0.000000
      g+1     :    -0.000000
      g-1     :     0.000000
      g+2     :     0.000000
      g-2     :     0.000000
      g+3     :    -0.000000
      g-3     :     0.000000
      g+4     :    -0.000000
      g-4     :    -0.000000
      h0      :    -0.000000  h :    -0.000000
      h+1     :     0.000000
      h-1     :     0.000000
      h+2     :    -0.000000
      h-2     :    -0.000000
      h+3     :     0.000000
      h-3     :     0.000000
      h+4     :    -0.000000
      h-4     :     0.000000
      h+5     :    -0.000000
      h-5     :    -0.000000
  2 O s       :     0.000000  s :     0.000000
      pz      :     0.000000  p :     0.000000
      px      :     0.000000
      py      :    -0.000000
      dz2     :     0.000000  d :     0.000000
      dxz     :    -0.000000
      dyz     :     0.000000
      dx2y2   :     0.000000
      dxy     :     0.000000
      f0      :    -0.000000  f :     0.000000
      f+1     :     0.000000
      f-1     :     0.000000
      f+2     :    -0.000000
      f-2     :     0.000000
      f+3     :    -0.000000
      f-3     :     0.000000
      g0      :     0.000000  g :     0.000000
      g+1     :    -0.000000
      g-1     :     0.000000
      g+2     :     0.000000
      g-2     :     0.000000
      g+3     :     0.000000
      g-3     :     0.000000
      g+4     :     0.000000
      g-4     :     0.000000
      h0      :    -0.000000  h :     0.000000
      h+1     :     0.000000
      h-1     :    -0.000000
      h+2     :    -0.000000
      h-2     :     0.000000
      h+3     :    -0.000000
      h-3     :     0.000000
      h+4     :     0.000000
      h-4     :     0.000000
      h+5     :     0.000000
      h-5     :     0.000000


                     *******************************
                     * LOEWDIN POPULATION ANALYSIS *
                     *******************************

-------------------------------------------
LOEWDIN ATOMIC CHARGES AND SPIN POPULATIONS
-------------------------------------------
   0 F :   -0.102492   -0.000000
   1 N :   -0.118975   -0.000000
   2 O :    0.221467    0.000000

----------------------------------------------------
LOEWDIN REDUCED ORBITAL CHARGES AND SPIN POPULATIONS
----------------------------------------------------
CHARGE
  0 F s       :     3.506649  s :     3.506649
      pz      :     1.612321  p :     4.828284
      px      :     1.669930
      py      :     1.546034
      dz2     :     0.043947  d :     0.272291
      dxz     :     0.028169
      dyz     :     0.019187
      dx2y2   :     0.078124
      dxy     :     0.102865
      f0      :     0.020703  f :     0.209333
      f+1     :     0.021911
      f-1     :     0.016557
      f+2     :     0.003025
      f-2     :     0.026108
      f+3     :     0.070468
      f-3     :     0.050560
      g0      :     0.007659  g :     0.166626
      g+1     :     0.019630
      g-1     :     0.008430
      g+2     :     0.011981
      g-2     :     0.011693
      g+3     :     0.001920
      g-3     :     0.013172
      g+4     :     0.038056
      g-4     :     0.054085
      h0      :     0.009451  h :     0.119309
      h+1     :     0.005416
      h-1     :     0.002483
      h+2     :     0.003182
      h-2     :     0.012542
      h+3     :     0.009424
      h-3     :     0.008382
      h+4     :     0.002447
      h-4     :     0.003460
      h+5     :     0.036631
      h-5     :     0.025891
  1 N s       :     3.024052  s :     3.024052
      pz      :     0.684039  p :     2.699061
      px      :     1.072558
      py      :     0.942463
      dz2     :     0.094392  d :     0.849928
      dxz     :     0.143358
      dyz     :     0.040177
      dx2y2   :     0.238379
      dxy     :     0.333622
      f0      :     0.022268  f :     0.391117
      f+1     :     0.034044
      f-1     :     0.020011
      f+2     :     0.024634
      f-2     :     0.047936
      f+3     :     0.139480
      f-3     :     0.102743
      g0      :     0.005174  g :     0.107484
      g+1     :     0.013125
      g-1     :     0.004989
      g+2     :     0.006636
      g-2     :     0.011258
      g+3     :     0.005998
      g-3     :     0.004183
      g+4     :     0.031025
      g-4     :     0.025096
      h0      :     0.003402  h :     0.047333
      h+1     :     0.002912
      h-1     :     0.002554
      h+2     :     0.001085
      h-2     :     0.006408
      h+3     :     0.004141
      h-3     :     0.003711
      h+4     :     0.003180
      h-4     :     0.000955
      h+5     :     0.011086
      h-5     :     0.007900
  2 O s       :     3.191440  s :     3.191440
      pz      :     1.024278  p :     3.776730
      px      :     1.417891
      py      :     1.334561
      dz2     :     0.046733  d :     0.372852
      dxz     :     0.064696
      dyz     :     0.006331
      dx2y2   :     0.104255
      dxy     :     0.150838
      f0      :     0.020286  f :     0.203923
      f+1     :     0.025408
      f-1     :     0.008058
      f+2     :     0.020090
      f-2     :     0.010726
      f+3     :     0.051687
      f-3     :     0.067668
      g0      :     0.007385  g :     0.132733
      g+1     :     0.018799
      g-1     :     0.002645
      g+2     :     0.009374
      g-2     :     0.010642
      g+3     :     0.003552
      g-3     :     0.010763
      g+4     :     0.035827
      g-4     :     0.033746
      h0      :     0.006008  h :     0.100855
      h+1     :     0.006478
      h-1     :     0.001022
      h+2     :     0.008207
      h-2     :     0.004757
      h+3     :     0.006043
      h-3     :     0.009984
      h+4     :     0.000157
      h-4     :     0.009220
      h+5     :     0.027880
      h-5     :     0.021098

SPIN
  0 F s       :    -0.000000  s :    -0.000000
      pz      :     0.000000  p :    -0.000000
      px      :    -0.000000
      py      :     0.000000
      dz2     :    -0.000000  d :    -0.000000
      dxz     :    -0.000000
      dyz     :    -0.000000
      dx2y2   :     0.000000
      dxy     :    -0.000000
      f0      :    -0.000000  f :     0.000000
      f+1     :     0.000000
      f-1     :    -0.000000
      f+2     :    -0.000000
      f-2     :    -0.000000
      f+3     :     0.000000
      f-3     :     0.000000
      g0      :     0.000000  g :     0.000000
      g+1     :    -0.000000
      g-1     :     0.000000
      g+2     :     0.000000
      g-2     :     0.000000
      g+3     :     0.000000
      g-3     :     0.000000
      g+4     :     0.000000
      g-4     :    -0.000000
      h0      :     0.000000  h :     0.000000
      h+1     :     0.000000
      h-1     :     0.000000
      h+2     :     0.000000
      h-2     :     0.000000
      h+3     :    -0.000000
      h-3     :     0.000000
      h+4     :    -0.000000
      h-4     :     0.000000
      h+5     :    -0.000000
      h-5     :     0.000000
  1 N s       :    -0.000000  s :    -0.000000
      pz      :    -0.000000  p :    -0.000000
      px      :     0.000000
      py      :     0.000000
      dz2     :     0.000000  d :     0.000000
      dxz     :     0.000000
      dyz     :    -0.000000
      dx2y2   :     0.000000
      dxy     :     0.000000
      f0      :     0.000000  f :     0.000000
      f+1     :     0.000000
      f-1     :     0.000000
      f+2     :     0.000000
      f-2     :     0.000000
      f+3     :     0.000000
      f-3     :    -0.000000
      g0      :     0.000000  g :     0.000000
      g+1     :     0.000000
      g-1     :    -0.000000
      g+2     :     0.000000
      g-2     :    -0.000000
      g+3     :    -0.000000
      g-3     :     0.000000
      g+4     :     0.000000
      g-4     :    -0.000000
      h0      :     0.000000  h :    -0.000000
      h+1     :     0.000000
      h-1     :     0.000000
      h+2     :    -0.000000
      h-2     :     0.000000
      h+3     :     0.000000
      h-3     :    -0.000000
      h+4     :     0.000000
      h-4     :    -0.000000
      h+5     :    -0.000000
      h-5     :    -0.000000
  2 O s       :     0.000000  s :     0.000000
      pz      :     0.000000  p :     0.000000
      px      :     0.000000
      py      :     0.000000
      dz2     :     0.000000  d :     0.000000
      dxz     :    -0.000000
      dyz     :     0.000000
      dx2y2   :     0.000000
      dxy     :    -0.000000
      f0      :     0.000000  f :    -0.000000
      f+1     :    -0.000000
      f-1     :     0.000000
      f+2     :    -0.000000
      f-2     :    -0.000000
      f+3     :    -0.000000
      f-3     :     0.000000
      g0      :     0.000000  g :    -0.000000
      g+1     :    -0.000000
      g-1     :    -0.000000
      g+2     :    -0.000000
      g-2     :    -0.000000
      g+3     :     0.000000
      g-3     :     0.000000
      g+4     :     0.000000
      g-4     :    -0.000000
      h0      :    -0.000000  h :    -0.000000
      h+1     :    -0.000000
      h-1     :    -0.000000
      h+2     :     0.000000
      h-2     :     0.000000
      h+3     :    -0.000000
      h-3     :    -0.000000
      h+4     :    -0.000000
      h-4     :    -0.000000
      h+5     :    -0.000000
      h-5     :    -0.000000


                      *****************************
                      * MAYER POPULATION ANALYSIS *
                      *****************************

  NA   - Mulliken gross atomic population
  ZA   - Total nuclear charge
  QA   - Mulliken gross atomic charge
  VA   - Mayer's total valence
  BVA  - Mayer's bonded valence
  FA   - Mayer's free valence

  ATOM       NA         ZA         QA         VA         BVA        FA
  0 F      9.2597     9.0000    -0.2597     1.0237     1.0237    -0.0000
  1 N      6.6398     7.0000     0.3602     2.9375     2.9375     0.0000
  2 O      8.1005     8.0000    -0.1005     2.3453     2.3453     0.0000

  Mayer bond orders larger than 0.1
B(  0-F ,  1-N ) :   0.8080 B(  0-F ,  2-O ) :   0.2158 B(  1-N ,  2-O ) :   2.1295 


-------
TIMINGS
-------

Total SCF time: 0 days 1 hours 50 min 26 sec 

Total time                  ....    6626.181 sec
Sum of individual times     ....    6625.177 sec  (100.0%)

Fock matrix formation       ....    6610.779 sec  ( 99.8%)
  XC integration            ....     175.073 sec  (  2.6% of F)
    Basis function eval.    ....      12.018 sec  (  6.9% of XC)
    Density eval.           ....      39.161 sec  ( 22.4% of XC)
    XC-Functional eval.     ....       1.436 sec  (  0.8% of XC)
    XC-Potential eval.      ....     121.435 sec  ( 69.4% of XC)
Diagonalization             ....       2.340 sec  (  0.0%)
Density matrix formation    ....       0.049 sec  (  0.0%)
Population analysis         ....       1.569 sec  (  0.0%)
Initial guess               ....       6.546 sec  (  0.1%)
Orbital Transformation      ....       0.000 sec  (  0.0%)
Orbital Orthonormalization  ....       0.000 sec  (  0.0%)
DIIS solution               ....       1.007 sec  (  0.0%)
Grid generation             ....       2.887 sec  (  0.0%)

-------------------------   --------------------
FINAL SINGLE POINT ENERGY      -229.625644476905
-------------------------   --------------------


                            ***************************************
                            *     ORCA property calculations      *
                            ***************************************

                                    ---------------------
                                    Active property flags
                                    ---------------------
   (+) Dipole Moment
   (+) Polarizability


------------------------------------------------------------------------------
                       ORCA ELECTRIC PROPERTIES CALCULATION
------------------------------------------------------------------------------

Dipole Moment Calculation                       ... on
Quadrupole Moment Calculation                   ... off
Polarizability Calculation                      ... Analytic (CP-SCF)
GBWName                                         ... fno_pbe.gbw
Electron density file                           ... fno_pbe.scfp.tmp
The origin for moment calculation is the CENTER OF MASS  = (-0.036784, -0.023289  0.000000)

-------------
DIPOLE MOMENT
-------------
                                X             Y             Z
Electronic contribution:     -0.41628      -0.22091      -0.00000
Nuclear contribution   :      0.88262       0.55932       0.00000
                        -----------------------------------------
Total Dipole Moment    :      0.46633       0.33840      -0.00000
                        -----------------------------------------
Magnitude (a.u.)       :      0.57618
Magnitude (Debye)      :      1.46453



--------------------
Rotational spectrum 
--------------------
 
Rotational constants in cm-1:     3.169928     0.396622     0.352515 
Rotational constants in MHz : 95032.062293 11890.431086 10568.142885 

 Dipole components along the rotational axes: 
x,y,z [a.u.] :    -0.566128     0.107162    -0.000000 
x,y,z [Debye]:    -1.438982     0.272385    -0.000000 

 
Transforming and storing MO dipole integrals   ... done

                ... starting polarizability calculation

Opening the Dipole integral file               ... (fno_pbe.dmo.tmp) done
Reading Dipole-MO integrals                    ... done
Solving CP-SCF equations                       ... 
------------------------------------------------------------------------------
                           ORCA CP-SCF CALCULATION
------------------------------------------------------------------------------

Input orbitals are from        ... fno_pbe.gbw
Input Perturbation             ... fno_pbe.cpv.tmp
Wavefunction output            ... fno_pbe.cpu.tmp
Perturbation mode              ... Real perturbation (singlet)
Solver                         ... POPLE
Max. number of iterations      ... 200
Convergence tolerance          ... 1.000e-06
Integral handling              ... Direct
Number of perturbations        ... 3
Number of operators            ... 2
Orbital ranges used for CP-SCF:
 Operator 0:  Orbitals   0... 11  to  12...434
 Operator 1:  Orbitals   0... 11  to  12...434
DFT calculation                         ... on
Exchange functional (SCF)               ... PBE
Exchange functional (CP-SCF)            ... PBE
   PBE kappa parameter  XKappa (SCF)    ...  0.804000
   PBE kappa parameter  XKappa (CP-SCF) ...  0.804000
   PBE mue parameter   XMuePBE (SCF)    ...  0.219520
   PBE mue parameter   XMuePBE (CP-SCF) ...  0.219520
Correlation functional (SCF)            ... PBE
Correlation functional (CP-SCF)         ... PBE
   PBE beta parameter CBetaPBE (SCF)    ...  0.066725
   PBE beta parameter CBetaPBE (CP-SCF) ...  0.066725
 LDA part of GGA corr.  LDAOpt (SCF)    ... PW91-LDA
 LDA part of GGA corr.  LDAOpt (CP-SCF) ... PW91-LDA
Variables per vector in CP-SCF ... 10152
Number of vectors sought       ... 3
Recalculating density on grid  ... done
Calculating the xc-kernel      ... done
     CP-SCF ITERATION   0: 
     CP-SCF ITERATION   1:      1.693261584234
     CP-SCF ITERATION   2:      0.109467721545
     CP-SCF ITERATION   3:      0.003186918800
     CP-SCF ITERATION   4:      0.000160676104
     CP-SCF ITERATION   5:      0.000005126908
     CP-SCF ITERATION   6:      0.000000090391
done
Reading CP-SCF coefficients                    ... done
Doing the polarizability tensor   ... done
Cleaning up                                    ... done

-------------------------
THE POLARIZABILITY TENSOR
-------------------------

The raw cartesian tensor (atomic units):
   23.76286      4.18287      0.00000  
    4.18287     17.37908      0.00000  
    0.00000      0.00000     12.46518  
diagonalized tensor: 
   12.46518     15.30936     25.83258  

   -0.00000     -0.44349     -0.89628  
   -0.00000      0.89628     -0.44349  
    1.00000      0.00000     -0.00000  

Isotropic polarizability :  17.86904


Timings for individual modules:

Sum of individual times         ...    11477.647 sec (= 191.294 min)
GTO integral calculation        ...        1.998 sec (=   0.033 min)   0.0 %
SCF iterations                  ...     6626.199 sec (= 110.437 min)  57.7 %
Solution of CP-SCF eqns.        ...     4849.449 sec (=  80.824 min)  42.3 %
                             ****ORCA TERMINATED NORMALLY****
TOTAL RUN TIME: 0 days 3 hours 11 minutes 18 seconds 310 msec
