
                                 *****************
                                 * O   R   C   A *
                                 *****************

           --- An Ab Initio, DFT and Semiempirical electronic structure package ---

                  #######################################################
                  #                        -***-                        #
                  #          Department of theory and spectroscopy      #
                  #               Directorship: Frank Neese             #
                  #        Max Planck Institute fuer Kohlenforschung    #
                  #                Kaiser Wilhelm Platz 1               #
                  #                 D-45470 Muelheim/Ruhr               #
                  #                      Germany                        #
                  #                                                     #
                  #                  All rights reserved                #
                  #                        -***-                        #
                  #######################################################


                         Program Version 4.1.2  - RELEASE  -


 With contributions from (in alphabetic order):
   Daniel Aravena         : Magnetic Properties
   Michael Atanasov       : Ab Initio Ligand Field Theory
   Alexander A. Auer      : GIAO ZORA
   Ute Becker             : Parallelization
   Giovanni Bistoni       : ED, Open-shell LED
   Martin Brehm           : Molecular dynamics
   Dmytro Bykov           : SCF Hessian
   Vijay G. Chilkuri      : MRCI spin determinant printing
   Dipayan Datta          : RHF DLPNO-CCSD density
   Achintya Kumar Dutta   : EOM-CC, STEOM-CC
   Dmitry Ganyushin       : Spin-Orbit,Spin-Spin,Magnetic field MRCI
   Miquel Garcia          : C-PCM Hessian
   Yang Guo               : DLPNO-NEVPT2, CIM, IAO-localization
   Andreas Hansen         : Spin unrestricted coupled pair/coupled cluster methods
   Benjamin Helmich-Paris : CASSCF linear response (MC-RPA)
   Lee Huntington         : MR-EOM, pCC
   Robert Izsak           : Overlap fitted RIJCOSX, COSX-SCS-MP3, EOM
   Christian Kollmar      : KDIIS, OOCD, Brueckner-CCSD(T), CCSD density
   Simone Kossmann        : Meta GGA functionals, TD-DFT gradient, OOMP2, MP2 Hessian
   Martin Krupicka        : AUTO-CI
   Lucas Lang             : DCDCAS
   Dagmar Lenk            : GEPOL surface, SMD
   Dimitrios Liakos       : Extrapolation schemes; parallel MDCI
   Dimitrios Manganas     : ROCIS; embedding schemes
   Dimitrios Pantazis     : SARC Basis sets
   Taras Petrenko         : DFT Hessian,TD-DFT gradient, ASA, ECA, R-Raman, ABS, FL, XAS/XES, NRVS
   Peter Pinski           : DLPNO-MP2, DLPNO-MP2 Gradient
   Christoph Reimann      : Effective Core Potentials
   Marius Retegan         : Local ZFS, SOC
   Christoph Riplinger    : Optimizer, TS searches, QM/MM, DLPNO-CCSD(T), (RO)-DLPNO pert. Triples
   Tobias Risthaus        : Range-separated hybrids, TD-DFT gradient, RPA, STAB
   Michael Roemelt        : Restricted open shell CIS
   Masaaki Saitow         : Open-shell DLPNO
   Barbara Sandhoefer     : DKH picture change effects
   Avijit Sen             : IP-ROCIS
   Kantharuban Sivalingam : CASSCF convergence, NEVPT2, FIC-MRCI
   Bernardo de Souza      : ESD, SOC TD-DFT
   Georgi Stoychev        : AutoAux, RI-MP2 NMR
   Willem Van den Heuvel  : Paramagnetic NMR
   Boris Wezisla          : Elementary symmetry handling
   Frank Wennmohs         : Technical directorship


 We gratefully acknowledge several colleagues who have allowed us to
 interface, adapt or use parts of their codes:
   Stefan Grimme, W. Hujo, H. Kruse,             : VdW corrections, initial TS optimization,
                  C. Bannwarth                     DFT functionals, gCP, sTDA/sTD-DF
   Ed Valeev                                     : LibInt (2-el integral package), F12 methods
   Garnet Chan, S. Sharma, J. Yang, R. Olivares  : DMRG
   Ulf Ekstrom                                   : XCFun DFT Library
   Mihaly Kallay                                 : mrcc  (arbitrary order and MRCC methods)
   Andreas Klamt, Michael Diedenhofen            : otool_cosmo (COSMO solvation model)
   Jiri Pittner, Ondrej Demel                    : Mk-CCSD
   Frank Weinhold                                : gennbo (NPA and NBO analysis)
   Christopher J. Cramer and Donald G. Truhlar   : smd solvation model
   Lars Goerigk                                  : TD-DFT with DH, B97 family of functionals
   V. Asgeirsson, H. Jonsson                     : NEB implementation
   FAccTs GmbH                                   : IRC, NEB, NEB-TS, Multilevel


 Your calculation uses the libint2 library for the computation of 2-el integrals
 For citations please refer to: http://libint.valeyev.net

 This ORCA versions uses:
   CBLAS   interface :  Fast vector & matrix operations
   LAPACKE interface :  Fast linear algebra routines
   SCALAPACK package :  Parallel linear algebra routines


----- Orbital basis set information -----
Your calculation utilizes the basis: aug-pc-4
   H, C-F              : F. Jensen, J. Chem. Phys. 115, 9113 (2001).
                         F. Jensen, J. Chem. Phys. 116, 7372 (2002).
                         F. Jensen, J. Chem. Phys. 117, 9234 (2002).
   Si-Cl               : F. Jensen, T. Helgaker, J. Chem. Phys. 121, 3463 (2004).
   He-B, Ne-Mg, Al, Ar : F. Jensen, J. Phys. Chem. A 111, 11198 (2007).
   K, Ca, Ga-Kr        : F. Jensen, J. Chem. Phys. 136, 094110 (2012).
   Sc-Zn               : F. Jensen, J. Chem. Phys. 138, 014107 (2013).

================================================================================
                                        WARNINGS
                       Please study these warnings very carefully!
================================================================================


INFO   : the flag for use of LIBINT has been found!

================================================================================
                                       INPUT FILE
================================================================================
NAME = h2_pbe.inp
|  1> !uks pbe nori aug-pc-4 grid7 nofinalgrid verytightscf
|  2> 
|  3> %maxcore 1500
|  4> 
|  5> %pal nprocs 1 end
|  6> 
|  7> %scf
|  8> 	maxiter 200
|  9> end
| 10> %elprop
| 11> 	dipole true
| 12> 	 polar 1
| 13> 	 maxiter 200
| 14> end
| 15> 
| 16> * xyz 0 1
| 17> H 0.0000 0.0000 0.0000
| 18> H 0.0000 0.0000 0.7414
| 19> *
| 20> 
| 21>                          ****END OF INPUT****
================================================================================

                       ****************************
                       * Single Point Calculation *
                       ****************************

---------------------------------
CARTESIAN COORDINATES (ANGSTROEM)
---------------------------------
  H      0.000000    0.000000    0.000000
  H      0.000000    0.000000    0.741400

----------------------------
CARTESIAN COORDINATES (A.U.)
----------------------------
  NO LB      ZA    FRAG     MASS         X           Y           Z
   0 H     1.0000    0     1.008    0.000000    0.000000    0.000000
   1 H     1.0000    0     1.008    0.000000    0.000000    1.401043

--------------------------------
INTERNAL COORDINATES (ANGSTROEM)
--------------------------------
 H      0   0   0     0.000000000000     0.00000000     0.00000000
 H      1   0   0     0.741400000000     0.00000000     0.00000000

---------------------------
INTERNAL COORDINATES (A.U.)
---------------------------
 H      0   0   0     0.000000000000     0.00000000     0.00000000
 H      1   0   0     1.401042955689     0.00000000     0.00000000

---------------------
BASIS SET INFORMATION
---------------------
There are 1 groups of distinct atoms

 Group   1 Type H   : 12s7p4d3f2g contracted to 8s7p4d3f2g pattern {51111111/1111111/1111/111/11}

Atom   0H    basis set group =>   1
Atom   1H    basis set group =>   1
------------------------------------------------------------------------------
                           ORCA GTO INTEGRAL CALCULATION
------------------------------------------------------------------------------

                         BASIS SET STATISTICS AND STARTUP INFO

 # of primitive gaussian shells          ...   56
 # of primitive gaussian functions       ...  184
 # of contracted shells                  ...   48
 # of contracted basis functions         ...  176
 Highest angular momentum                ...    4
 Maximum contraction depth               ...    5
 Integral package used                   ... LIBINT
 Integral threshhold            Thresh   ...  1.000e-12
 Primitive cut-off              TCut     ...  1.000e-14


------------------------------ INTEGRAL EVALUATION ----------------------------


 * One electron integrals 
 Pre-screening matrix                    ... done
 Shell pair data                         ... done (   0.000 sec)

-------------------------------------------------------------------------------
                                 ORCA SCF
-------------------------------------------------------------------------------

------------
SCF SETTINGS
------------
Hamiltonian:
 Density Functional     Method          .... DFT(GTOs)
 Exchange Functional    Exchange        .... PBE
   PBE kappa parameter   XKappa         ....  0.804000
   PBE mue parameter    XMuePBE         ....  0.219520
 Correlation Functional Correlation     .... PBE
   PBE beta parameter  CBetaPBE         ....  0.066725
 LDA part of GGA corr.  LDAOpt          .... PW91-LDA
 Gradients option       PostSCFGGA      .... off
   Density functional embedding theory  .... OFF
   NL short-range parameter             ....  6.400000


General Settings:
 Integral files         IntName         .... h2_pbe
 Hartree-Fock type      HFTyp           .... UHF
 Total Charge           Charge          ....    0
 Multiplicity           Mult            ....    1
 Number of Electrons    NEL             ....    2
 Basis Dimension        Dim             ....  176
 Nuclear Repulsion      ENuc            ....      0.7137539902 Eh

Convergence Acceleration:
 DIIS                   CNVDIIS         .... on
   Start iteration      DIISMaxIt       ....    12
   Startup error        DIISStart       ....  0.200000
   # of expansion vecs  DIISMaxEq       ....     5
   Bias factor          DIISBfac        ....   1.050
   Max. coefficient     DIISMaxC        ....  10.000
 Newton-Raphson         CNVNR           .... off
 SOSCF                  CNVSOSCF        .... off
 Level Shifting         CNVShift        .... on
   Level shift para.    LevelShift      ....    0.2500
   Turn off err/grad.   ShiftErr        ....    0.0010
 Zerner damping         CNVZerner       .... off
 Static damping         CNVDamp         .... on
   Fraction old density DampFac         ....    0.7000
   Max. Damping (<1)    DampMax         ....    0.9800
   Min. Damping (>=0)   DampMin         ....    0.0000
   Turn off err/grad.   DampErr         ....    0.1000
 Fernandez-Rico         CNVRico         .... off

SCF Procedure:
 Maximum # iterations   MaxIter         ....   200
 SCF integral mode      SCFMode         .... Direct
   Integral package                     .... LIBINT
 Reset frequency        DirectResetFreq ....    20
 Integral Threshold     Thresh          ....  1.000e-12 Eh
 Primitive CutOff       TCut            ....  1.000e-14 Eh

Convergence Tolerance:
 Convergence Check Mode ConvCheckMode   .... Total+1el-Energy
 Convergence forced     ConvForced      .... 0
 Energy Change          TolE            ....  1.000e-09 Eh
 1-El. energy change                    ....  1.000e-06 Eh
 DIIS Error             TolErr          ....  1.000e-08


Diagonalization of the overlap matrix:
Smallest eigenvalue                        ... 2.143e-06
Time for diagonalization                   ...    0.005 sec
Threshold for overlap eigenvalues          ... 1.000e-08
Number of eigenvalues below threshold      ... 0
Time for construction of square roots      ...    0.005 sec
Total time needed                          ...    0.011 sec

-------------------
DFT GRID GENERATION
-------------------

General Integration Accuracy     IntAcc      ...  5.670
Radial Grid Type                 RadialGrid  ... Gauss-Chebyshev
Angular Grid (max. acc.)         AngularGrid ... Lebedev-770
Angular grid pruning method      GridPruning ... 3 (G Style)
Weight generation scheme         WeightScheme... Becke
Basis function cutoff            BFCut       ...    1.0000e-12
Integration weight cutoff        WCut        ...    1.0000e-14
Grids for H and He will be reduced by one unit

# of grid points (after initial pruning)     ...  35672 (   0.0 sec)
# of grid points (after weights+screening)   ...  35494 (   0.0 sec)
nearest neighbour list constructed           ...    0.0 sec
Grid point re-assignment to atoms done       ...    0.0 sec
Grid point division into batches done        ...    0.6 sec
Reduced shell lists constructed in    0.8 sec

Total number of grid points                  ...    35494
Total number of batches                      ...      556
Average number of points per batch           ...       63
Average number of grid points per atom       ...    17747
Average number of shells per batch           ...    40.07 (83.48%)
Average number of basis functions per batch  ...   148.55 (84.40%)
Average number of large shells per batch     ...    37.71 (94.11%)
Average number of large basis fcns per batch ...   140.34 (94.47%)
Maximum spatial batch extension              ...  12.36, 12.36, 14.03 au
Average spatial batch extension              ...   2.28,  2.30,  2.03 au

Time for grid setup =    0.785 sec

------------------------------
INITIAL GUESS: MODEL POTENTIAL
------------------------------
Loading Hartree-Fock densities                     ... done
Calculating cut-offs                               ... done
Setting up the integral package                    ... done
Initializing the effective Hamiltonian             ... done
Starting the Coulomb interaction                   ... done (   0.0 sec)
Reading the grid                                   ... done
Mapping shells                                     ... done
Starting the XC term evaluation                    ... done (   0.7 sec)
  promolecular density results
     # of electrons  =      1.999020843
     EX              =     -0.558898507
     EC              =     -0.041224043
     EX+EC           =     -0.600122550
Transforming the Hamiltonian                       ... done (   0.0 sec)
Diagonalizing the Hamiltonian                      ... done (   0.0 sec)
Back transforming the eigenvectors                 ... done (   0.0 sec)
Now organizing SCF variables                       ... done
                      ------------------
                      INITIAL GUESS DONE (   1.6 sec)
                      ------------------
--------------
SCF ITERATIONS
--------------
ITER       Energy         Delta-E        Max-DP      RMS-DP      [F,P]     Damp
               ***  Starting incremental Fock matrix formation  ***
  0     -1.1623890289   0.000000000000 0.00171547  0.00003451  0.0612977 0.7000
  1     -1.1638889161  -0.001499887184 0.00141214  0.00003110  0.0428857 0.7000
                               ***Turning on DIIS***
  2     -1.1648681425  -0.000979226405 0.00309859  0.00007039  0.0268604 0.0000
  3     -1.1665961643  -0.001728021804 0.00081816  0.00001550  0.0096221 0.0000
  4     -1.1666905306  -0.000094366296 0.00025403  0.00000488  0.0024053 0.0000
  5     -1.1666974201  -0.000006889506 0.00009755  0.00000177  0.0006387 0.0000
  6     -1.1666979959  -0.000000575759 0.00000694  0.00000014  0.0000445 0.0000
  7     -1.1666979980  -0.000000002061 0.00000013  0.00000000  0.0000007 0.0000
                 **** Energy Check signals convergence ****

               *****************************************************
               *                     SUCCESS                       *
               *           SCF CONVERGED AFTER   8 CYCLES          *
               *****************************************************


----------------
TOTAL SCF ENERGY
----------------

Total Energy       :           -1.16669800 Eh             -31.74747 eV

Components:
Nuclear Repulsion  :            0.71375399 Eh              19.42223 eV
Electronic Energy  :           -1.88045199 Eh             -51.16970 eV
One Electron Energy:           -2.50326921 Eh             -68.11742 eV
Two Electron Energy:            0.62281723 Eh              16.94772 eV

Virial components:
Potential Energy   :           -2.30717715 Eh             -62.78148 eV
Kinetic Energy     :            1.14047915 Eh              31.03402 eV
Virial Ratio       :            2.02298933


DFT components:
N(Alpha)           :        0.999999997196 electrons
N(Beta)            :        0.999999997196 electrons
N(Total)           :        1.999999994391 electrons
E(X)               :       -0.647771129755 Eh       
E(C)               :       -0.042896760731 Eh       
E(XC)              :       -0.690667890486 Eh       
DFET-embed. en.    :        0.000000000000 Eh       

---------------
SCF CONVERGENCE
---------------

  Last Energy change         ...   -4.6629e-13  Tolerance :   1.0000e-09
  Last MAX-Density change    ...    3.5491e-07  Tolerance :   1.0000e-08
  Last RMS-Density change    ...    8.2874e-09  Tolerance :   1.0000e-09
  Last DIIS Error            ...    1.4790e-08  Tolerance :   1.0000e-08

             **** THE GBW FILE WAS UPDATED (h2_pbe.gbw) ****
             **** DENSITY FILE WAS UPDATED (h2_pbe.scfp.tmp) ****
             **** ENERGY FILE WAS UPDATED (h2_pbe.en.tmp) ****
----------------------
UHF SPIN CONTAMINATION
----------------------

Warning: in a DFT calculation there is little theoretical justification to 
         calculate <S**2> as in Hartree-Fock theory. We will do it anyways
         but you should keep in mind that the values have only limited relevance

Expectation value of <S**2>     :    -0.000000
Ideal value S*(S+1) for S=0.0   :     0.000000
Deviation                       :    -0.000000

----------------
ORBITAL ENERGIES
----------------
                 SPIN UP ORBITALS
  NO   OCC          E(Eh)            E(eV) 
   0   1.0000      -0.381460       -10.3800 
   1   0.0000       0.007811         0.2125 
   2   0.0000       0.009156         0.2491 
   3   0.0000       0.047160         1.2833 
   4   0.0000       0.047160         1.2833 
   5   0.0000       0.048357         1.3159 
   6   0.0000       0.086400         2.3511 
   7   0.0000       0.103624         2.8198 
   8   0.0000       0.103624         2.8198 
   9   0.0000       0.120599         3.2817 
  10   0.0000       0.140996         3.8367 
  11   0.0000       0.155522         4.2320 
  12   0.0000       0.155522         4.2320 
  13   0.0000       0.204280         5.5587 
  14   0.0000       0.204280         5.5587 
  15   0.0000       0.204474         5.5640 
  16   0.0000       0.211536         5.7562 
  17   0.0000       0.211536         5.7562 
  18   0.0000       0.260205         7.0806 
  19   0.0000       0.271133         7.3779 
  20   0.0000       0.271133         7.3779 
  21   0.0000       0.299163         8.1406 
  22   0.0000       0.299163         8.1406 
  23   0.0000       0.310043         8.4367 
  24   0.0000       0.319700         8.6995 
  25   0.0000       0.319700         8.6995 
  26   0.0000       0.345553         9.4030 
  27   0.0000       0.345553         9.4030 
  28   0.0000       0.355451         9.6723 
  29   0.0000       0.358606         9.7582 
  30   0.0000       0.358606         9.7582 
  31   0.0000       0.404407        11.0045 
  32   0.0000       0.404407        11.0045 
  33   0.0000       0.415921        11.3178 
  34   0.0000       0.474388        12.9088 
  35   0.0000       0.504812        13.7366 
  36   0.0000       0.504812        13.7366 
  37   0.0000       0.512860        13.9556 
  38   0.0000       0.512860        13.9556 
  39   0.0000       0.515187        14.0190 
  40   0.0000       0.515187        14.0190 
  41   0.0000       0.536433        14.5971 
  42   0.0000       0.536433        14.5971 
  43   0.0000       0.592466        16.1218 
  44   0.0000       0.594018        16.1641 
  45   0.0000       0.604756        16.4562 
  46   0.0000       0.604756        16.4562 
  47   0.0000       0.621988        16.9252 
  48   0.0000       0.621988        16.9252 
  49   0.0000       0.624924        17.0050 
  50   0.0000       0.624924        17.0050 
  51   0.0000       0.625429        17.0188 
  52   0.0000       0.625429        17.0188 
  53   0.0000       0.631664        17.1884 
  54   0.0000       0.636056        17.3080 
  55   0.0000       0.636056        17.3080 
  56   0.0000       0.767170        20.8758 
  57   0.0000       0.767170        20.8758 
  58   0.0000       0.775492        21.1022 
  59   0.0000       0.775492        21.1022 
  60   0.0000       0.785088        21.3633 
  61   0.0000       0.960613        26.1396 
  62   0.0000       1.101844        29.9827 
  63   0.0000       1.101844        29.9827 
  64   0.0000       1.114954        30.3394 
  65   0.0000       1.114954        30.3394 
  66   0.0000       1.194712        32.5098 
  67   0.0000       1.274200        34.6728 
  68   0.0000       1.278174        34.7809 
  69   0.0000       1.278174        34.7809 
  70   0.0000       1.286075        34.9959 
  71   0.0000       1.286075        34.9959 
  72   0.0000       1.331581        36.2342 
  73   0.0000       1.331581        36.2342 
  74   0.0000       1.372186        37.3391 
  75   0.0000       1.689585        45.9760 
  76   0.0000       1.969098        53.5819 
  77   0.0000       2.027485        55.1707 
  78   0.0000       2.027485        55.1707 
  79   0.0000       2.787298        75.8462 
  80   0.0000       2.825210        76.8779 
  81   0.0000       2.825210        76.8779 
  82   0.0000       2.937612        79.9365 
  83   0.0000       2.937612        79.9365 
  84   0.0000       3.005409        81.7813 
  85   0.0000       3.005409        81.7813 
  86   0.0000       3.104463        84.4767 
  87   0.0000       3.163712        86.0890 
  88   0.0000       3.184985        86.6679 
  89   0.0000       3.266939        88.8979 
  90   0.0000       3.266939        88.8979 
  91   0.0000       3.292358        89.5896 
  92   0.0000       3.292358        89.5896 
  93   0.0000       3.331231        90.6474 
  94   0.0000       3.331231        90.6474 
  95   0.0000       3.926043       106.8331 
  96   0.0000       3.926043       106.8331 
  97   0.0000       4.098433       111.5240 
  98   0.0000       4.098433       111.5240 
  99   0.0000       4.162803       113.2756 
 100   0.0000       4.313310       117.3711 
 101   0.0000       4.313310       117.3711 
 102   0.0000       4.821343       131.1954 
 103   0.0000       5.031092       136.9030 
 104   0.0000       5.031092       136.9030 
 105   0.0000       5.094169       138.6194 
 106   0.0000       5.094169       138.6194 
 107   0.0000       5.134872       139.7270 
 108   0.0000       5.704248       155.2205 
 109   0.0000       5.704248       155.2205 
 110   0.0000       6.004990       163.4041 
 111   0.0000       6.359308       173.0456 
 112   0.0000       7.723365       210.1634 
 113   0.0000       7.870992       214.1806 
 114   0.0000       7.870992       214.1806 
 115   0.0000       8.503462       231.3910 
 116   0.0000       8.503462       231.3910 
 117   0.0000       8.534928       232.2472 
 118   0.0000       8.534928       232.2472 
 119   0.0000       9.063682       246.6353 
 120   0.0000       9.063682       246.6353 
 121   0.0000       9.315891       253.4983 
 122   0.0000       9.315891       253.4983 
 123   0.0000       9.915123       269.8042 
 124   0.0000      10.173571       276.8369 
 125   0.0000      10.771292       293.1017 
 126   0.0000      10.771292       293.1017 
 127   0.0000      11.260901       306.4247 
 128   0.0000      11.399746       310.2029 
 129   0.0000      11.657705       317.2223 
 130   0.0000      11.657705       317.2223 
 131   0.0000      11.847405       322.3843 
 132   0.0000      11.847405       322.3843 
 133   0.0000      12.702247       345.6457 
 134   0.0000      12.702247       345.6457 
 135   0.0000      12.951438       352.4265 
 136   0.0000      12.951438       352.4265 
 137   0.0000      13.561230       369.0198 
 138   0.0000      14.111786       384.0012 
 139   0.0000      14.111786       384.0012 
 140   0.0000      14.646220       398.5439 
 141   0.0000      15.759962       428.8504 
 142   0.0000      15.759962       428.8504 
 143   0.0000      16.134340       439.0377 
 144   0.0000      16.134340       439.0377 
 145   0.0000      16.341146       444.6652 
 146   0.0000      16.341146       444.6652 
 147   0.0000      17.210346       468.3173 
 148   0.0000      17.210346       468.3173 
 149   0.0000      17.522407       476.8089 
 150   0.0000      17.522407       476.8089 
 151   0.0000      18.294967       497.8314 
 152   0.0000      18.948712       515.6207 
 153   0.0000      19.095058       519.6029 
 154   0.0000      19.095058       519.6029 
 155   0.0000      20.218304       550.1680 
 156   0.0000      20.218304       550.1680 
 157   0.0000      21.813753       593.5824 
 158   0.0000      22.233572       605.0063 
 159   0.0000      22.233572       605.0063 
 160   0.0000      22.464773       611.2976 
 161   0.0000      22.464773       611.2976 
 162   0.0000      22.983429       625.4109 
 163   0.0000      22.983429       625.4109 
 164   0.0000      24.775303       674.1703 
 165   0.0000      27.378955       745.0192 
 166   0.0000      27.378955       745.0192 
 167   0.0000      34.351453       934.7506 
 168   0.0000      40.494723      1101.9174 
 169   0.0000      41.573718      1131.2784 
 170   0.0000      90.726166      2468.7845 
 171   0.0000      90.726166      2468.7845 
 172   0.0000      92.250883      2510.2741 
 173   0.0000      92.315656      2512.0367 
 174   0.0000      92.315656      2512.0367 
 175   0.0000      98.007502      2666.9197 

                 SPIN DOWN ORBITALS
  NO   OCC          E(Eh)            E(eV) 
   0   1.0000      -0.381460       -10.3800 
   1   0.0000       0.007811         0.2125 
   2   0.0000       0.009156         0.2491 
   3   0.0000       0.047160         1.2833 
   4   0.0000       0.047160         1.2833 
   5   0.0000       0.048357         1.3159 
   6   0.0000       0.086400         2.3511 
   7   0.0000       0.103624         2.8198 
   8   0.0000       0.103624         2.8198 
   9   0.0000       0.120599         3.2817 
  10   0.0000       0.140996         3.8367 
  11   0.0000       0.155522         4.2320 
  12   0.0000       0.155522         4.2320 
  13   0.0000       0.204280         5.5587 
  14   0.0000       0.204280         5.5587 
  15   0.0000       0.204474         5.5640 
  16   0.0000       0.211536         5.7562 
  17   0.0000       0.211536         5.7562 
  18   0.0000       0.260205         7.0806 
  19   0.0000       0.271133         7.3779 
  20   0.0000       0.271133         7.3779 
  21   0.0000       0.299163         8.1406 
  22   0.0000       0.299163         8.1406 
  23   0.0000       0.310043         8.4367 
  24   0.0000       0.319700         8.6995 
  25   0.0000       0.319700         8.6995 
  26   0.0000       0.345553         9.4030 
  27   0.0000       0.345553         9.4030 
  28   0.0000       0.355451         9.6723 
  29   0.0000       0.358606         9.7582 
  30   0.0000       0.358606         9.7582 
  31   0.0000       0.404407        11.0045 
  32   0.0000       0.404407        11.0045 
  33   0.0000       0.415921        11.3178 
  34   0.0000       0.474388        12.9088 
  35   0.0000       0.504812        13.7366 
  36   0.0000       0.504812        13.7366 
  37   0.0000       0.512860        13.9556 
  38   0.0000       0.512860        13.9556 
  39   0.0000       0.515187        14.0190 
  40   0.0000       0.515187        14.0190 
  41   0.0000       0.536433        14.5971 
  42   0.0000       0.536433        14.5971 
  43   0.0000       0.592466        16.1218 
  44   0.0000       0.594018        16.1641 
  45   0.0000       0.604756        16.4562 
  46   0.0000       0.604756        16.4562 
  47   0.0000       0.621988        16.9252 
  48   0.0000       0.621988        16.9252 
  49   0.0000       0.624924        17.0050 
  50   0.0000       0.624924        17.0050 
  51   0.0000       0.625429        17.0188 
  52   0.0000       0.625429        17.0188 
  53   0.0000       0.631664        17.1884 
  54   0.0000       0.636056        17.3080 
  55   0.0000       0.636056        17.3080 
  56   0.0000       0.767170        20.8758 
  57   0.0000       0.767170        20.8758 
  58   0.0000       0.775492        21.1022 
  59   0.0000       0.775492        21.1022 
  60   0.0000       0.785088        21.3633 
  61   0.0000       0.960613        26.1396 
  62   0.0000       1.101844        29.9827 
  63   0.0000       1.101844        29.9827 
  64   0.0000       1.114954        30.3394 
  65   0.0000       1.114954        30.3394 
  66   0.0000       1.194712        32.5098 
  67   0.0000       1.274200        34.6728 
  68   0.0000       1.278174        34.7809 
  69   0.0000       1.278174        34.7809 
  70   0.0000       1.286075        34.9959 
  71   0.0000       1.286075        34.9959 
  72   0.0000       1.331581        36.2342 
  73   0.0000       1.331581        36.2342 
  74   0.0000       1.372186        37.3391 
  75   0.0000       1.689585        45.9760 
  76   0.0000       1.969098        53.5819 
  77   0.0000       2.027485        55.1707 
  78   0.0000       2.027485        55.1707 
  79   0.0000       2.787298        75.8462 
  80   0.0000       2.825210        76.8779 
  81   0.0000       2.825210        76.8779 
  82   0.0000       2.937612        79.9365 
  83   0.0000       2.937612        79.9365 
  84   0.0000       3.005409        81.7813 
  85   0.0000       3.005409        81.7813 
  86   0.0000       3.104463        84.4767 
  87   0.0000       3.163712        86.0890 
  88   0.0000       3.184985        86.6679 
  89   0.0000       3.266939        88.8979 
  90   0.0000       3.266939        88.8979 
  91   0.0000       3.292358        89.5896 
  92   0.0000       3.292358        89.5896 
  93   0.0000       3.331231        90.6474 
  94   0.0000       3.331231        90.6474 
  95   0.0000       3.926043       106.8331 
  96   0.0000       3.926043       106.8331 
  97   0.0000       4.098433       111.5240 
  98   0.0000       4.098433       111.5240 
  99   0.0000       4.162803       113.2756 
 100   0.0000       4.313310       117.3711 
 101   0.0000       4.313310       117.3711 
 102   0.0000       4.821343       131.1954 
 103   0.0000       5.031092       136.9030 
 104   0.0000       5.031092       136.9030 
 105   0.0000       5.094169       138.6194 
 106   0.0000       5.094169       138.6194 
 107   0.0000       5.134872       139.7270 
 108   0.0000       5.704248       155.2205 
 109   0.0000       5.704248       155.2205 
 110   0.0000       6.004990       163.4041 
 111   0.0000       6.359308       173.0456 
 112   0.0000       7.723365       210.1634 
 113   0.0000       7.870992       214.1806 
 114   0.0000       7.870992       214.1806 
 115   0.0000       8.503462       231.3910 
 116   0.0000       8.503462       231.3910 
 117   0.0000       8.534928       232.2472 
 118   0.0000       8.534928       232.2472 
 119   0.0000       9.063682       246.6353 
 120   0.0000       9.063682       246.6353 
 121   0.0000       9.315891       253.4983 
 122   0.0000       9.315891       253.4983 
 123   0.0000       9.915123       269.8042 
 124   0.0000      10.173571       276.8369 
 125   0.0000      10.771292       293.1017 
 126   0.0000      10.771292       293.1017 
 127   0.0000      11.260901       306.4247 
 128   0.0000      11.399746       310.2029 
 129   0.0000      11.657705       317.2223 
 130   0.0000      11.657705       317.2223 
 131   0.0000      11.847405       322.3843 
 132   0.0000      11.847405       322.3843 
 133   0.0000      12.702247       345.6457 
 134   0.0000      12.702247       345.6457 
 135   0.0000      12.951438       352.4265 
 136   0.0000      12.951438       352.4265 
 137   0.0000      13.561230       369.0198 
 138   0.0000      14.111786       384.0012 
 139   0.0000      14.111786       384.0012 
 140   0.0000      14.646220       398.5439 
 141   0.0000      15.759962       428.8504 
 142   0.0000      15.759962       428.8504 
 143   0.0000      16.134340       439.0377 
 144   0.0000      16.134340       439.0377 
 145   0.0000      16.341146       444.6652 
 146   0.0000      16.341146       444.6652 
 147   0.0000      17.210346       468.3173 
 148   0.0000      17.210346       468.3173 
 149   0.0000      17.522407       476.8089 
 150   0.0000      17.522407       476.8089 
 151   0.0000      18.294967       497.8314 
 152   0.0000      18.948712       515.6207 
 153   0.0000      19.095058       519.6029 
 154   0.0000      19.095058       519.6029 
 155   0.0000      20.218304       550.1680 
 156   0.0000      20.218304       550.1680 
 157   0.0000      21.813753       593.5824 
 158   0.0000      22.233572       605.0063 
 159   0.0000      22.233572       605.0063 
 160   0.0000      22.464773       611.2976 
 161   0.0000      22.464773       611.2976 
 162   0.0000      22.983429       625.4109 
 163   0.0000      22.983429       625.4109 
 164   0.0000      24.775303       674.1703 
 165   0.0000      27.378955       745.0192 
 166   0.0000      27.378955       745.0192 
 167   0.0000      34.351453       934.7506 
 168   0.0000      40.494723      1101.9174 
 169   0.0000      41.573718      1131.2784 
 170   0.0000      90.726166      2468.7845 
 171   0.0000      90.726166      2468.7845 
 172   0.0000      92.250883      2510.2741 
 173   0.0000      92.315656      2512.0367 
 174   0.0000      92.315656      2512.0367 
 175   0.0000      98.007502      2666.9197 

                    ********************************
                    * MULLIKEN POPULATION ANALYSIS *
                    ********************************

--------------------------------------------
MULLIKEN ATOMIC CHARGES AND SPIN POPULATIONS
--------------------------------------------
   0 H :   -0.000001    0.000000
   1 H :    0.000001   -0.000000
Sum of atomic charges         :   -0.0000000
Sum of atomic spin populations:    0.0000000

-----------------------------------------------------
MULLIKEN REDUCED ORBITAL CHARGES AND SPIN POPULATIONS
-----------------------------------------------------
CHARGE
  0 H s       :     0.985502  s :     0.985502
      pz      :     0.013706  p :     0.013706
      px      :     0.000000
      py      :     0.000000
      dz2     :     0.000717  d :     0.000717
      dxz     :     0.000000
      dyz     :    -0.000000
      dx2y2   :    -0.000000
      dxy     :     0.000000
      f0      :     0.000071  f :     0.000071
      f+1     :     0.000000
      f-1     :     0.000000
      f+2     :     0.000000
      f-2     :    -0.000000
      f+3     :    -0.000000
      f-3     :    -0.000000
      g0      :     0.000005  g :     0.000005
      g+1     :    -0.000000
      g-1     :    -0.000000
      g+2     :     0.000000
      g-2     :    -0.000000
      g+3     :    -0.000000
      g-3     :    -0.000000
      g+4     :     0.000000
      g-4     :     0.000000
  1 H s       :     0.985501  s :     0.985501
      pz      :     0.013706  p :     0.013706
      px      :    -0.000000
      py      :    -0.000000
      dz2     :     0.000717  d :     0.000717
      dxz     :     0.000000
      dyz     :    -0.000000
      dx2y2   :     0.000000
      dxy     :     0.000000
      f0      :     0.000071  f :     0.000071
      f+1     :    -0.000000
      f-1     :     0.000000
      f+2     :     0.000000
      f-2     :    -0.000000
      f+3     :     0.000000
      f-3     :     0.000000
      g0      :     0.000005  g :     0.000005
      g+1     :    -0.000000
      g-1     :    -0.000000
      g+2     :     0.000000
      g-2     :    -0.000000
      g+3     :    -0.000000
      g-3     :    -0.000000
      g+4     :     0.000000
      g-4     :    -0.000000

SPIN
  0 H s       :     0.000000  s :     0.000000
      pz      :    -0.000000  p :    -0.000000
      px      :    -0.000000
      py      :    -0.000000
      dz2     :    -0.000000  d :    -0.000000
      dxz     :     0.000000
      dyz     :     0.000000
      dx2y2   :     0.000000
      dxy     :    -0.000000
      f0      :    -0.000000  f :    -0.000000
      f+1     :     0.000000
      f-1     :     0.000000
      f+2     :     0.000000
      f-2     :     0.000000
      f+3     :    -0.000000
      f-3     :    -0.000000
      g0      :     0.000000  g :     0.000000
      g+1     :    -0.000000
      g-1     :    -0.000000
      g+2     :    -0.000000
      g-2     :     0.000000
      g+3     :     0.000000
      g-3     :    -0.000000
      g+4     :     0.000000
      g-4     :     0.000000
  1 H s       :    -0.000000  s :    -0.000000
      pz      :     0.000000  p :     0.000000
      px      :     0.000000
      py      :     0.000000
      dz2     :     0.000000  d :     0.000000
      dxz     :    -0.000000
      dyz     :     0.000000
      dx2y2   :    -0.000000
      dxy     :    -0.000000
      f0      :     0.000000  f :     0.000000
      f+1     :    -0.000000
      f-1     :     0.000000
      f+2     :     0.000000
      f-2     :     0.000000
      f+3     :     0.000000
      f-3     :     0.000000
      g0      :     0.000000  g :     0.000000
      g+1     :    -0.000000
      g-1     :    -0.000000
      g+2     :    -0.000000
      g-2     :     0.000000
      g+3     :     0.000000
      g-3     :    -0.000000
      g+4     :    -0.000000
      g-4     :     0.000000


                     *******************************
                     * LOEWDIN POPULATION ANALYSIS *
                     *******************************

-------------------------------------------
LOEWDIN ATOMIC CHARGES AND SPIN POPULATIONS
-------------------------------------------
   0 H :   -0.000000    0.000000
   1 H :    0.000000   -0.000000

----------------------------------------------------
LOEWDIN REDUCED ORBITAL CHARGES AND SPIN POPULATIONS
----------------------------------------------------
CHARGE
  0 H s       :     0.916767  s :     0.916767
      pz      :     0.069198  p :     0.069198
      px      :     0.000000
      py      :     0.000000
      dz2     :     0.012752  d :     0.012752
      dxz     :     0.000000
      dyz     :     0.000000
      dx2y2   :     0.000000
      dxy     :     0.000000
      f0      :     0.001256  f :     0.001256
      f+1     :     0.000000
      f-1     :     0.000000
      f+2     :     0.000000
      f-2     :     0.000000
      f+3     :     0.000000
      f-3     :     0.000000
      g0      :     0.000026  g :     0.000026
      g+1     :     0.000000
      g-1     :     0.000000
      g+2     :     0.000000
      g-2     :     0.000000
      g+3     :     0.000000
      g-3     :     0.000000
      g+4     :     0.000000
      g-4     :     0.000000
  1 H s       :     0.916767  s :     0.916767
      pz      :     0.069198  p :     0.069198
      px      :     0.000000
      py      :     0.000000
      dz2     :     0.012752  d :     0.012752
      dxz     :     0.000000
      dyz     :     0.000000
      dx2y2   :     0.000000
      dxy     :     0.000000
      f0      :     0.001256  f :     0.001256
      f+1     :     0.000000
      f-1     :     0.000000
      f+2     :     0.000000
      f-2     :     0.000000
      f+3     :     0.000000
      f-3     :     0.000000
      g0      :     0.000026  g :     0.000026
      g+1     :     0.000000
      g-1     :     0.000000
      g+2     :     0.000000
      g-2     :     0.000000
      g+3     :     0.000000
      g-3     :     0.000000
      g+4     :     0.000000
      g-4     :     0.000000

SPIN
  0 H s       :     0.000000  s :     0.000000
      pz      :    -0.000000  p :    -0.000000
      px      :    -0.000000
      py      :    -0.000000
      dz2     :    -0.000000  d :    -0.000000
      dxz     :     0.000000
      dyz     :     0.000000
      dx2y2   :    -0.000000
      dxy     :    -0.000000
      f0      :    -0.000000  f :    -0.000000
      f+1     :     0.000000
      f-1     :     0.000000
      f+2     :     0.000000
      f-2     :    -0.000000
      f+3     :     0.000000
      f-3     :    -0.000000
      g0      :    -0.000000  g :    -0.000000
      g+1     :    -0.000000
      g-1     :    -0.000000
      g+2     :     0.000000
      g-2     :     0.000000
      g+3     :    -0.000000
      g-3     :     0.000000
      g+4     :     0.000000
      g-4     :     0.000000
  1 H s       :    -0.000000  s :    -0.000000
      pz      :     0.000000  p :     0.000000
      px      :     0.000000
      py      :    -0.000000
      dz2     :     0.000000  d :     0.000000
      dxz     :    -0.000000
      dyz     :    -0.000000
      dx2y2   :    -0.000000
      dxy     :    -0.000000
      f0      :     0.000000  f :     0.000000
      f+1     :    -0.000000
      f-1     :     0.000000
      f+2     :    -0.000000
      f-2     :     0.000000
      f+3     :     0.000000
      f-3     :    -0.000000
      g0      :     0.000000  g :     0.000000
      g+1     :     0.000000
      g-1     :    -0.000000
      g+2     :     0.000000
      g-2     :     0.000000
      g+3     :     0.000000
      g-3     :    -0.000000
      g+4     :    -0.000000
      g-4     :     0.000000


                      *****************************
                      * MAYER POPULATION ANALYSIS *
                      *****************************

  NA   - Mulliken gross atomic population
  ZA   - Total nuclear charge
  QA   - Mulliken gross atomic charge
  VA   - Mayer's total valence
  BVA  - Mayer's bonded valence
  FA   - Mayer's free valence

  ATOM       NA         ZA         QA         VA         BVA        FA
  0 H      1.0000     1.0000    -0.0000     1.0000     1.0000    -0.0000
  1 H      1.0000     1.0000     0.0000     1.0000     1.0000    -0.0000

  Mayer bond orders larger than 0.1
B(  0-H ,  1-H ) :   1.0000 

-------
TIMINGS
-------

Total SCF time: 0 days 0 hours 1 min 18 sec 

Total time                  ....      78.906 sec
Sum of individual times     ....      78.581 sec  ( 99.6%)

Fock matrix formation       ....      76.703 sec  ( 97.2%)
  XC integration            ....      13.282 sec  ( 17.3% of F)
    Basis function eval.    ....       1.363 sec  ( 10.3% of XC)
    Density eval.           ....       2.617 sec  ( 19.7% of XC)
    XC-Functional eval.     ....       0.359 sec  (  2.7% of XC)
    XC-Potential eval.      ....       8.710 sec  ( 65.6% of XC)
Diagonalization             ....       0.130 sec  (  0.2%)
Density matrix formation    ....       0.002 sec  (  0.0%)
Population analysis         ....       0.028 sec  (  0.0%)
Initial guess               ....       0.855 sec  (  1.1%)
Orbital Transformation      ....       0.000 sec  (  0.0%)
Orbital Orthonormalization  ....       0.000 sec  (  0.0%)
DIIS solution               ....       0.076 sec  (  0.1%)
Grid generation             ....       0.785 sec  (  1.0%)

-------------------------   --------------------
FINAL SINGLE POINT ENERGY        -1.166697997957
-------------------------   --------------------


                            ***************************************
                            *     ORCA property calculations      *
                            ***************************************

                                    ---------------------
                                    Active property flags
                                    ---------------------
   (+) Dipole Moment
   (+) Polarizability


------------------------------------------------------------------------------
                       ORCA ELECTRIC PROPERTIES CALCULATION
------------------------------------------------------------------------------

Dipole Moment Calculation                       ... on
Quadrupole Moment Calculation                   ... off
Polarizability Calculation                      ... Analytic (CP-SCF)
GBWName                                         ... h2_pbe.gbw
Electron density file                           ... h2_pbe.scfp.tmp
The origin for moment calculation is the CENTER OF MASS  = ( 0.000000,  0.000000  0.700521)

-------------
DIPOLE MOMENT
-------------
                                X             Y             Z
Electronic contribution:     -0.00000      -0.00000      -0.00000
Nuclear contribution   :      0.00000       0.00000       0.00000
                        -----------------------------------------
Total Dipole Moment    :     -0.00000      -0.00000      -0.00000
                        -----------------------------------------
Magnitude (a.u.)       :      0.00000
Magnitude (Debye)      :      0.00000



--------------------
Rotational spectrum 
--------------------
 
Rotational constants in cm-1:     0.000000    60.850087    60.850087 
Rotational constants in MHz :     0.000000 1824239.705432 1824239.705432 

 Dipole components along the rotational axes: 
x,y,z [a.u.] :    -0.000000    -0.000000    -0.000000 
x,y,z [Debye]:    -0.000000    -0.000000    -0.000000 

 
Transforming and storing MO dipole integrals   ... done

                ... starting polarizability calculation

Opening the Dipole integral file               ... (h2_pbe.dmo.tmp) done
Reading Dipole-MO integrals                    ... done
Solving CP-SCF equations                       ... 
------------------------------------------------------------------------------
                           ORCA CP-SCF CALCULATION
------------------------------------------------------------------------------

Input orbitals are from        ... h2_pbe.gbw
Input Perturbation             ... h2_pbe.cpv.tmp
Wavefunction output            ... h2_pbe.cpu.tmp
Perturbation mode              ... Real perturbation (singlet)
Solver                         ... POPLE
Max. number of iterations      ... 200
Convergence tolerance          ... 1.000e-06
Integral handling              ... Direct
Number of perturbations        ... 3
Number of operators            ... 2
Orbital ranges used for CP-SCF:
 Operator 0:  Orbitals   0...  0  to   1...175
 Operator 1:  Orbitals   0...  0  to   1...175
DFT calculation                         ... on
Exchange functional (SCF)               ... PBE
Exchange functional (CP-SCF)            ... PBE
   PBE kappa parameter  XKappa (SCF)    ...  0.804000
   PBE kappa parameter  XKappa (CP-SCF) ...  0.804000
   PBE mue parameter   XMuePBE (SCF)    ...  0.219520
   PBE mue parameter   XMuePBE (CP-SCF) ...  0.219520
Correlation functional (SCF)            ... PBE
Correlation functional (CP-SCF)         ... PBE
   PBE beta parameter CBetaPBE (SCF)    ...  0.066725
   PBE beta parameter CBetaPBE (CP-SCF) ...  0.066725
 LDA part of GGA corr.  LDAOpt (SCF)    ... PW91-LDA
 LDA part of GGA corr.  LDAOpt (CP-SCF) ... PW91-LDA
Variables per vector in CP-SCF ... 350
Number of vectors sought       ... 3
Recalculating density on grid  ... done
Calculating the xc-kernel      ... done
     CP-SCF ITERATION   0: 
     CP-SCF ITERATION   1:      0.000021466204
     CP-SCF ITERATION   2:      0.000000002569
done
Reading CP-SCF coefficients                    ... done
Doing the polarizability tensor   ... done
Cleaning up                                    ... done

-------------------------
THE POLARIZABILITY TENSOR
-------------------------

The raw cartesian tensor (atomic units):
    5.05645      0.00000     -0.00000  
    0.00000      5.05645     -0.00000  
   -0.00000     -0.00000      6.93389  
diagonalized tensor: 
    5.05645      5.05645      6.93389  

    0.90589     -0.42351     -0.00000  
   -0.42351     -0.90589     -0.00000  
   -0.00000     -0.00000      1.00000  

Isotropic polarizability :   5.68226


Timings for individual modules:

Sum of individual times         ...      133.680 sec (=   2.228 min)
GTO integral calculation        ...        0.370 sec (=   0.006 min)   0.3 %
SCF iterations                  ...       78.931 sec (=   1.316 min)  59.0 %
Solution of CP-SCF eqns.        ...       54.379 sec (=   0.906 min)  40.7 %
                             ****ORCA TERMINATED NORMALLY****
TOTAL RUN TIME: 0 days 0 hours 2 minutes 17 seconds 872 msec
