
                                 *****************
                                 * O   R   C   A *
                                 *****************

           --- An Ab Initio, DFT and Semiempirical electronic structure package ---

                  #######################################################
                  #                        -***-                        #
                  #          Department of theory and spectroscopy      #
                  #               Directorship: Frank Neese             #
                  #        Max Planck Institute fuer Kohlenforschung    #
                  #                Kaiser Wilhelm Platz 1               #
                  #                 D-45470 Muelheim/Ruhr               #
                  #                      Germany                        #
                  #                                                     #
                  #                  All rights reserved                #
                  #                        -***-                        #
                  #######################################################


                         Program Version 4.1.2  - RELEASE  -


 With contributions from (in alphabetic order):
   Daniel Aravena         : Magnetic Properties
   Michael Atanasov       : Ab Initio Ligand Field Theory
   Alexander A. Auer      : GIAO ZORA
   Ute Becker             : Parallelization
   Giovanni Bistoni       : ED, Open-shell LED
   Martin Brehm           : Molecular dynamics
   Dmytro Bykov           : SCF Hessian
   Vijay G. Chilkuri      : MRCI spin determinant printing
   Dipayan Datta          : RHF DLPNO-CCSD density
   Achintya Kumar Dutta   : EOM-CC, STEOM-CC
   Dmitry Ganyushin       : Spin-Orbit,Spin-Spin,Magnetic field MRCI
   Miquel Garcia          : C-PCM Hessian
   Yang Guo               : DLPNO-NEVPT2, CIM, IAO-localization
   Andreas Hansen         : Spin unrestricted coupled pair/coupled cluster methods
   Benjamin Helmich-Paris : CASSCF linear response (MC-RPA)
   Lee Huntington         : MR-EOM, pCC
   Robert Izsak           : Overlap fitted RIJCOSX, COSX-SCS-MP3, EOM
   Christian Kollmar      : KDIIS, OOCD, Brueckner-CCSD(T), CCSD density
   Simone Kossmann        : Meta GGA functionals, TD-DFT gradient, OOMP2, MP2 Hessian
   Martin Krupicka        : AUTO-CI
   Lucas Lang             : DCDCAS
   Dagmar Lenk            : GEPOL surface, SMD
   Dimitrios Liakos       : Extrapolation schemes; parallel MDCI
   Dimitrios Manganas     : ROCIS; embedding schemes
   Dimitrios Pantazis     : SARC Basis sets
   Taras Petrenko         : DFT Hessian,TD-DFT gradient, ASA, ECA, R-Raman, ABS, FL, XAS/XES, NRVS
   Peter Pinski           : DLPNO-MP2, DLPNO-MP2 Gradient
   Christoph Reimann      : Effective Core Potentials
   Marius Retegan         : Local ZFS, SOC
   Christoph Riplinger    : Optimizer, TS searches, QM/MM, DLPNO-CCSD(T), (RO)-DLPNO pert. Triples
   Tobias Risthaus        : Range-separated hybrids, TD-DFT gradient, RPA, STAB
   Michael Roemelt        : Restricted open shell CIS
   Masaaki Saitow         : Open-shell DLPNO
   Barbara Sandhoefer     : DKH picture change effects
   Avijit Sen             : IP-ROCIS
   Kantharuban Sivalingam : CASSCF convergence, NEVPT2, FIC-MRCI
   Bernardo de Souza      : ESD, SOC TD-DFT
   Georgi Stoychev        : AutoAux, RI-MP2 NMR
   Willem Van den Heuvel  : Paramagnetic NMR
   Boris Wezisla          : Elementary symmetry handling
   Frank Wennmohs         : Technical directorship


 We gratefully acknowledge several colleagues who have allowed us to
 interface, adapt or use parts of their codes:
   Stefan Grimme, W. Hujo, H. Kruse,             : VdW corrections, initial TS optimization,
                  C. Bannwarth                     DFT functionals, gCP, sTDA/sTD-DF
   Ed Valeev                                     : LibInt (2-el integral package), F12 methods
   Garnet Chan, S. Sharma, J. Yang, R. Olivares  : DMRG
   Ulf Ekstrom                                   : XCFun DFT Library
   Mihaly Kallay                                 : mrcc  (arbitrary order and MRCC methods)
   Andreas Klamt, Michael Diedenhofen            : otool_cosmo (COSMO solvation model)
   Jiri Pittner, Ondrej Demel                    : Mk-CCSD
   Frank Weinhold                                : gennbo (NPA and NBO analysis)
   Christopher J. Cramer and Donald G. Truhlar   : smd solvation model
   Lars Goerigk                                  : TD-DFT with DH, B97 family of functionals
   V. Asgeirsson, H. Jonsson                     : NEB implementation
   FAccTs GmbH                                   : IRC, NEB, NEB-TS, Multilevel


 Your calculation uses the libint2 library for the computation of 2-el integrals
 For citations please refer to: http://libint.valeyev.net

 This ORCA versions uses:
   CBLAS   interface :  Fast vector & matrix operations
   LAPACKE interface :  Fast linear algebra routines
   SCALAPACK package :  Parallel linear algebra routines


----- Orbital basis set information -----
Your calculation utilizes the basis: aug-pc-4
   H, C-F              : F. Jensen, J. Chem. Phys. 115, 9113 (2001).
                         F. Jensen, J. Chem. Phys. 116, 7372 (2002).
                         F. Jensen, J. Chem. Phys. 117, 9234 (2002).
   Si-Cl               : F. Jensen, T. Helgaker, J. Chem. Phys. 121, 3463 (2004).
   He-B, Ne-Mg, Al, Ar : F. Jensen, J. Phys. Chem. A 111, 11198 (2007).
   K, Ca, Ga-Kr        : F. Jensen, J. Chem. Phys. 136, 094110 (2012).
   Sc-Zn               : F. Jensen, J. Chem. Phys. 138, 014107 (2013).

================================================================================
                                        WARNINGS
                       Please study these warnings very carefully!
================================================================================


INFO   : the flag for use of LIBINT has been found!

================================================================================
                                       INPUT FILE
================================================================================
NAME = h2cn_pbe.inp
|  1> !uks pbe nori aug-pc-4 grid7 nofinalgrid verytightscf
|  2> 
|  3> %maxcore 1500
|  4> 
|  5> %pal nprocs 1 end
|  6> 
|  7> %scf
|  8> 	maxiter 200
|  9> end
| 10> %elprop
| 11> 	dipole true
| 12> 	 polar 1
| 13> 	 maxiter 200
| 14> end
| 15> 
| 16> * xyz 0 2
| 17> C 0.0000000000 0.0000000000 -0.4906000000
| 18> N 0.0000000000 0.0000000000 0.7226000000
| 19> H 0.0000000000 0.9342000000 -1.0572000000
| 20> H 0.0000000000 -0.9342000000 -1.0572000000
| 21> *
| 22> 
| 23>                          ****END OF INPUT****
================================================================================

                       ****************************
                       * Single Point Calculation *
                       ****************************

---------------------------------
CARTESIAN COORDINATES (ANGSTROEM)
---------------------------------
  C      0.000000    0.000000   -0.490600
  N      0.000000    0.000000    0.722600
  H      0.000000    0.934200   -1.057200
  H      0.000000   -0.934200   -1.057200

----------------------------
CARTESIAN COORDINATES (A.U.)
----------------------------
  NO LB      ZA    FRAG     MASS         X           Y           Z
   0 C     6.0000    0    12.011    0.000000    0.000000   -0.927100
   1 N     7.0000    0    14.007    0.000000    0.000000    1.365516
   2 H     1.0000    0     1.008    0.000000    1.765382   -1.997818
   3 H     1.0000    0     1.008    0.000000   -1.765382   -1.997818

--------------------------------
INTERNAL COORDINATES (ANGSTROEM)
--------------------------------
 C      0   0   0     0.000000000000     0.00000000     0.00000000
 N      1   0   0     1.213200000000     0.00000000     0.00000000
 H      1   2   0     1.092595625106   121.23715681     0.00000000
 H      1   2   3     1.092595625106   121.23715681   180.00000121

---------------------------
INTERNAL COORDINATES (A.U.)
---------------------------
 C      0   0   0     0.000000000000     0.00000000     0.00000000
 N      1   0   0     2.292615745673     0.00000000     0.00000000
 H      1   2   0     2.064706506570   121.23715681     0.00000000
 H      1   2   3     2.064706506570   121.23715681   180.00000121

---------------------
BASIS SET INFORMATION
---------------------
There are 3 groups of distinct atoms

 Group   1 Type C   : 28s12p7d4f3g2h contracted to 9s8p7d4f3g2h pattern {11101111111/51111111/1111111/1111/111/11}
 Group   2 Type N   : 27s12p7d4f3g2h contracted to 9s8p7d4f3g2h pattern {1191111111/51111111/1111111/1111/111/11}
 Group   3 Type H   : 12s7p4d3f2g contracted to 8s7p4d3f2g pattern {51111111/1111111/1111/111/11}

Atom   0C    basis set group =>   1
Atom   1N    basis set group =>   2
Atom   2H    basis set group =>   3
Atom   3H    basis set group =>   3
------------------------------------------------------------------------------
                           ORCA GTO INTEGRAL CALCULATION
------------------------------------------------------------------------------

                         BASIS SET STATISTICS AND STARTUP INFO

 # of primitive gaussian shells          ...  167
 # of primitive gaussian functions       ...  535
 # of contracted shells                  ...  114
 # of contracted basis functions         ...  466
 Highest angular momentum                ...    5
 Maximum contraction depth               ...   11
 Integral package used                   ... LIBINT
 Integral threshhold            Thresh   ...  1.000e-12
 Primitive cut-off              TCut     ...  1.000e-14


------------------------------ INTEGRAL EVALUATION ----------------------------


 * One electron integrals 
 Pre-screening matrix                    ... done
 Shell pair data                         ... done (   0.002 sec)

-------------------------------------------------------------------------------
                                 ORCA SCF
-------------------------------------------------------------------------------

------------
SCF SETTINGS
------------
Hamiltonian:
 Density Functional     Method          .... DFT(GTOs)
 Exchange Functional    Exchange        .... PBE
   PBE kappa parameter   XKappa         ....  0.804000
   PBE mue parameter    XMuePBE         ....  0.219520
 Correlation Functional Correlation     .... PBE
   PBE beta parameter  CBetaPBE         ....  0.066725
 LDA part of GGA corr.  LDAOpt          .... PW91-LDA
 Gradients option       PostSCFGGA      .... off
   Density functional embedding theory  .... OFF
   NL short-range parameter             ....  6.400000


General Settings:
 Integral files         IntName         .... h2cn_pbe
 Hartree-Fock type      HFTyp           .... UHF
 Total Charge           Charge          ....    0
 Multiplicity           Mult            ....    2
 Number of Electrons    NEL             ....   15
 Basis Dimension        Dim             ....  466
 Nuclear Repulsion      ENuc            ....     28.1005410966 Eh

Convergence Acceleration:
 DIIS                   CNVDIIS         .... on
   Start iteration      DIISMaxIt       ....    12
   Startup error        DIISStart       ....  0.200000
   # of expansion vecs  DIISMaxEq       ....     5
   Bias factor          DIISBfac        ....   1.050
   Max. coefficient     DIISMaxC        ....  10.000
 Newton-Raphson         CNVNR           .... off
 SOSCF                  CNVSOSCF        .... off
 Level Shifting         CNVShift        .... on
   Level shift para.    LevelShift      ....    0.2500
   Turn off err/grad.   ShiftErr        ....    0.0010
 Zerner damping         CNVZerner       .... off
 Static damping         CNVDamp         .... on
   Fraction old density DampFac         ....    0.7000
   Max. Damping (<1)    DampMax         ....    0.9800
   Min. Damping (>=0)   DampMin         ....    0.0000
   Turn off err/grad.   DampErr         ....    0.1000
 Fernandez-Rico         CNVRico         .... off

SCF Procedure:
 Maximum # iterations   MaxIter         ....   200
 SCF integral mode      SCFMode         .... Direct
   Integral package                     .... LIBINT
 Reset frequency        DirectResetFreq ....    20
 Integral Threshold     Thresh          ....  1.000e-12 Eh
 Primitive CutOff       TCut            ....  1.000e-14 Eh

Convergence Tolerance:
 Convergence Check Mode ConvCheckMode   .... Total+1el-Energy
 Convergence forced     ConvForced      .... 0
 Energy Change          TolE            ....  1.000e-09 Eh
 1-El. energy change                    ....  1.000e-06 Eh
 DIIS Error             TolErr          ....  1.000e-08


Diagonalization of the overlap matrix:
Smallest eigenvalue                        ... 1.526e-07
Time for diagonalization                   ...    0.154 sec
Threshold for overlap eigenvalues          ... 1.000e-08
Number of eigenvalues below threshold      ... 0
Time for construction of square roots      ...    0.033 sec
Total time needed                          ...    0.188 sec

-------------------
DFT GRID GENERATION
-------------------

General Integration Accuracy     IntAcc      ...  5.670
Radial Grid Type                 RadialGrid  ... Gauss-Chebyshev
Angular Grid (max. acc.)         AngularGrid ... Lebedev-770
Angular grid pruning method      GridPruning ... 3 (G Style)
Weight generation scheme         WeightScheme... Becke
Basis function cutoff            BFCut       ...    1.0000e-12
Integration weight cutoff        WCut        ...    1.0000e-14
Grids for H and He will be reduced by one unit

# of grid points (after initial pruning)     ...  85740 (   0.0 sec)
# of grid points (after weights+screening)   ...  84070 (   0.0 sec)
nearest neighbour list constructed           ...    0.0 sec
Grid point re-assignment to atoms done       ...    0.0 sec
Grid point division into batches done        ...    1.7 sec
Reduced shell lists constructed in    2.9 sec

Total number of grid points                  ...    84070
Total number of batches                      ...     1315
Average number of points per batch           ...       63
Average number of grid points per atom       ...    21018
Average number of shells per batch           ...    85.59 (75.08%)
Average number of basis functions per batch  ...   359.81 (77.21%)
Average number of large shells per batch     ...    76.22 (89.05%)
Average number of large basis fcns per batch ...   320.89 (89.18%)
Maximum spatial batch extension              ...  20.36, 14.63, 16.21 au
Average spatial batch extension              ...   2.20,  2.00,  2.04 au

Time for grid setup =    2.976 sec

------------------------------
INITIAL GUESS: MODEL POTENTIAL
------------------------------
Loading Hartree-Fock densities                     ... done
Calculating cut-offs                               ... done
Setting up the integral package                    ... done
Initializing the effective Hamiltonian             ... done
Starting the Coulomb interaction                   ... done (   0.2 sec)
Reading the grid                                   ... done
Mapping shells                                     ... done
Starting the XC term evaluation                    ... done (   8.6 sec)
  promolecular density results
     # of electrons  =     14.999020401
     EX              =    -12.151137150
     EC              =     -0.465653809
     EX+EC           =    -12.616790959
Transforming the Hamiltonian                       ... done (   0.0 sec)
Diagonalizing the Hamiltonian                      ... done (   0.1 sec)
Back transforming the eigenvectors                 ... done (   0.0 sec)
Now organizing SCF variables                       ... done
                      ------------------
                      INITIAL GUESS DONE (  11.9 sec)
                      ------------------
--------------
SCF ITERATIONS
--------------
ITER       Energy         Delta-E        Max-DP      RMS-DP      [F,P]     Damp
               ***  Starting incremental Fock matrix formation  ***
  0    -93.8499529890   0.000000000000 0.01773052  0.00014507  0.1742658 0.7000
  1    -93.8778707970  -0.027917808043 0.00891120  0.00009508  0.0675986 0.7000
                               ***Turning on DIIS***
  2    -93.8868755587  -0.009004761711 0.01647438  0.00016675  0.0323833 0.0000
  3    -93.9015753058  -0.014699747064 0.00685243  0.00006129  0.0441143 0.0000
  4    -93.9057123084  -0.004137002655 0.00340651  0.00002877  0.0195036 0.0000
  5    -93.9063236290  -0.000611320596 0.00376303  0.00002056  0.0014099 0.0000
  6    -93.9063589515  -0.000035322486 0.00713335  0.00003182  0.0005696 0.0000
  7    -93.9063760867  -0.000017135187 0.00029997  0.00000259  0.0001570 0.0000
  8    -93.9063784326  -0.000002345872 0.00008748  0.00000101  0.0000687 0.0000
  9    -93.9063788713  -0.000000438765 0.00005141  0.00000062  0.0000330 0.0000
 10    -93.9063790024  -0.000000131090 0.00002683  0.00000025  0.0000212 0.0000
 11    -93.9063790227  -0.000000020279 0.00005273  0.00000028  0.0000048 0.0000
 12    -93.9063790272  -0.000000004511 0.00001607  0.00000009  0.0000009 0.0000
 13    -93.9063790273  -0.000000000099 0.00002904  0.00000032  0.0000004 0.0000
                 **** Energy Check signals convergence ****

               *****************************************************
               *                     SUCCESS                       *
               *           SCF CONVERGED AFTER  14 CYCLES          *
               *****************************************************


----------------
TOTAL SCF ENERGY
----------------

Total Energy       :          -93.90637903 Eh           -2555.32248 eV

Components:
Nuclear Repulsion  :           28.10054110 Eh             764.65460 eV
Electronic Energy  :         -122.00692012 Eh           -3319.97708 eV
One Electron Energy:         -181.73735220 Eh           -4945.32477 eV
Two Electron Energy:           59.73043207 Eh            1625.34769 eV

Virial components:
Potential Energy   :         -187.58670840 Eh           -5104.49384 eV
Kinetic Energy     :           93.68032937 Eh            2549.17136 eV
Virial Ratio       :            2.00241299


DFT components:
N(Alpha)           :        7.999999882365 electrons
N(Beta)            :        6.999999883098 electrons
N(Total)           :       14.999999765463 electrons
E(X)               :      -12.418029743212 Eh       
E(C)               :       -0.466862561290 Eh       
E(XC)              :      -12.884892304502 Eh       
DFET-embed. en.    :        0.000000000000 Eh       

---------------
SCF CONVERGENCE
---------------

  Last Energy change         ...   -5.2864e-12  Tolerance :   1.0000e-09
  Last MAX-Density change    ...    1.9755e-04  Tolerance :   1.0000e-08
  Last RMS-Density change    ...    1.3592e-06  Tolerance :   1.0000e-09
  Last DIIS Error            ...    6.6174e-08  Tolerance :   1.0000e-08

             **** THE GBW FILE WAS UPDATED (h2cn_pbe.gbw) ****
             **** DENSITY FILE WAS UPDATED (h2cn_pbe.scfp.tmp) ****
             **** ENERGY FILE WAS UPDATED (h2cn_pbe.en.tmp) ****
----------------------
UHF SPIN CONTAMINATION
----------------------

Warning: in a DFT calculation there is little theoretical justification to 
         calculate <S**2> as in Hartree-Fock theory. We will do it anyways
         but you should keep in mind that the values have only limited relevance

Expectation value of <S**2>     :     0.756116
Ideal value S*(S+1) for S=0.5   :     0.750000
Deviation                       :     0.006116

----------------
ORBITAL ENERGIES
----------------
                 SPIN UP ORBITALS
  NO   OCC          E(Eh)            E(eV) 
   0   1.0000     -14.016822      -381.4171 
   1   1.0000      -9.930550      -270.2240 
   2   1.0000      -0.851660       -23.1749 
   3   1.0000      -0.552480       -15.0338 
   4   1.0000      -0.455345       -12.3906 
   5   1.0000      -0.335440        -9.1278 
   6   1.0000      -0.328048        -8.9266 
   7   1.0000      -0.222923        -6.0660 
   8   0.0000      -0.060235        -1.6391 
   9   0.0000      -0.018424        -0.5013 
  10   0.0000       0.006980         0.1899 
  11   0.0000       0.012315         0.3351 
  12   0.0000       0.017635         0.4799 
  13   0.0000       0.035248         0.9591 
  14   0.0000       0.036069         0.9815 
  15   0.0000       0.043721         1.1897 
  16   0.0000       0.050822         1.3829 
  17   0.0000       0.054215         1.4753 
  18   0.0000       0.056535         1.5384 
  19   0.0000       0.061899         1.6843 
  20   0.0000       0.070039         1.9059 
  21   0.0000       0.080232         2.1832 
  22   0.0000       0.089770         2.4428 
  23   0.0000       0.103992         2.8298 
  24   0.0000       0.106641         2.9018 
  25   0.0000       0.119006         3.2383 
  26   0.0000       0.122271         3.3272 
  27   0.0000       0.126510         3.4425 
  28   0.0000       0.127222         3.4619 
  29   0.0000       0.129785         3.5316 
  30   0.0000       0.130060         3.5391 
  31   0.0000       0.130689         3.5562 
  32   0.0000       0.138614         3.7719 
  33   0.0000       0.145488         3.9589 
  34   0.0000       0.169962         4.6249 
  35   0.0000       0.177309         4.8248 
  36   0.0000       0.186532         5.0758 
  37   0.0000       0.188958         5.1418 
  38   0.0000       0.192023         5.2252 
  39   0.0000       0.212535         5.7834 
  40   0.0000       0.222082         6.0431 
  41   0.0000       0.225083         6.1248 
  42   0.0000       0.227876         6.2008 
  43   0.0000       0.229992         6.2584 
  44   0.0000       0.237140         6.4529 
  45   0.0000       0.238602         6.4927 
  46   0.0000       0.242521         6.5993 
  47   0.0000       0.249505         6.7894 
  48   0.0000       0.253088         6.8869 
  49   0.0000       0.258519         7.0347 
  50   0.0000       0.260554         7.0900 
  51   0.0000       0.265470         7.2238 
  52   0.0000       0.279943         7.6176 
  53   0.0000       0.280921         7.6443 
  54   0.0000       0.281338         7.6556 
  55   0.0000       0.285819         7.7775 
  56   0.0000       0.292680         7.9642 
  57   0.0000       0.295143         8.0313 
  58   0.0000       0.295435         8.0392 
  59   0.0000       0.301008         8.1909 
  60   0.0000       0.320370         8.7177 
  61   0.0000       0.336038         9.1441 
  62   0.0000       0.348156         9.4738 
  63   0.0000       0.360108         9.7990 
  64   0.0000       0.366963         9.9856 
  65   0.0000       0.370526        10.0825 
  66   0.0000       0.385198        10.4818 
  67   0.0000       0.393616        10.7108 
  68   0.0000       0.395708        10.7678 
  69   0.0000       0.397678        10.8214 
  70   0.0000       0.398118        10.8333 
  71   0.0000       0.404192        10.9986 
  72   0.0000       0.409065        11.1312 
  73   0.0000       0.415707        11.3120 
  74   0.0000       0.428869        11.6701 
  75   0.0000       0.434303        11.8180 
  76   0.0000       0.442583        12.0433 
  77   0.0000       0.445775        12.1302 
  78   0.0000       0.458618        12.4796 
  79   0.0000       0.464275        12.6336 
  80   0.0000       0.466785        12.7019 
  81   0.0000       0.468167        12.7395 
  82   0.0000       0.476188        12.9577 
  83   0.0000       0.482914        13.1408 
  84   0.0000       0.485776        13.2186 
  85   0.0000       0.485972        13.2240 
  86   0.0000       0.496695        13.5158 
  87   0.0000       0.497851        13.5472 
  88   0.0000       0.508019        13.8239 
  89   0.0000       0.509828        13.8731 
  90   0.0000       0.513703        13.9786 
  91   0.0000       0.513821        13.9818 
  92   0.0000       0.530218        14.4280 
  93   0.0000       0.536129        14.5888 
  94   0.0000       0.538241        14.6463 
  95   0.0000       0.539569        14.6824 
  96   0.0000       0.549425        14.9506 
  97   0.0000       0.560102        15.2411 
  98   0.0000       0.562103        15.2956 
  99   0.0000       0.572446        15.5770 
 100   0.0000       0.585887        15.9428 
 101   0.0000       0.597998        16.2724 
 102   0.0000       0.601939        16.3796 
 103   0.0000       0.607924        16.5425 
 104   0.0000       0.610229        16.6052 
 105   0.0000       0.628818        17.1110 
 106   0.0000       0.640262        17.4224 
 107   0.0000       0.640380        17.4256 
 108   0.0000       0.645361        17.5612 
 109   0.0000       0.648926        17.6582 
 110   0.0000       0.658207        17.9107 
 111   0.0000       0.684461        18.6251 
 112   0.0000       0.697994        18.9934 
 113   0.0000       0.703915        19.1545 
 114   0.0000       0.705518        19.1981 
 115   0.0000       0.719893        19.5893 
 116   0.0000       0.732618        19.9355 
 117   0.0000       0.751747        20.4561 
 118   0.0000       0.763326        20.7712 
 119   0.0000       0.766722        20.8636 
 120   0.0000       0.768145        20.9023 
 121   0.0000       0.768348        20.9078 
 122   0.0000       0.772746        21.0275 
 123   0.0000       0.773489        21.0477 
 124   0.0000       0.794283        21.6135 
 125   0.0000       0.802528        21.8379 
 126   0.0000       0.806721        21.9520 
 127   0.0000       0.809055        22.0155 
 128   0.0000       0.809386        22.0245 
 129   0.0000       0.811444        22.0805 
 130   0.0000       0.816109        22.2075 
 131   0.0000       0.835932        22.7469 
 132   0.0000       0.839426        22.8419 
 133   0.0000       0.844702        22.9855 
 134   0.0000       0.846063        23.0225 
 135   0.0000       0.846286        23.0286 
 136   0.0000       0.849879        23.1264 
 137   0.0000       0.853401        23.2222 
 138   0.0000       0.858235        23.3537 
 139   0.0000       0.861935        23.4544 
 140   0.0000       0.867309        23.6007 
 141   0.0000       0.871675        23.7195 
 142   0.0000       0.874379        23.7931 
 143   0.0000       0.894501        24.3406 
 144   0.0000       0.899764        24.4838 
 145   0.0000       0.904958        24.6251 
 146   0.0000       0.914447        24.8834 
 147   0.0000       0.925611        25.1871 
 148   0.0000       0.928531        25.2666 
 149   0.0000       0.938767        25.5451 
 150   0.0000       0.953163        25.9369 
 151   0.0000       0.956783        26.0354 
 152   0.0000       0.969881        26.3918 
 153   0.0000       0.970208        26.4007 
 154   0.0000       0.984392        26.7867 
 155   0.0000       1.013433        27.5769 
 156   0.0000       1.013908        27.5898 
 157   0.0000       1.020311        27.7641 
 158   0.0000       1.020563        27.7709 
 159   0.0000       1.030458        28.0402 
 160   0.0000       1.045525        28.4502 
 161   0.0000       1.049169        28.5493 
 162   0.0000       1.082364        29.4526 
 163   0.0000       1.092422        29.7263 
 164   0.0000       1.108820        30.1725 
 165   0.0000       1.121864        30.5275 
 166   0.0000       1.146407        31.1953 
 167   0.0000       1.159639        31.5554 
 168   0.0000       1.187410        32.3111 
 169   0.0000       1.210477        32.9388 
 170   0.0000       1.215885        33.0859 
 171   0.0000       1.242043        33.7977 
 172   0.0000       1.264841        34.4181 
 173   0.0000       1.273144        34.6440 
 174   0.0000       1.282020        34.8855 
 175   0.0000       1.383586        37.6493 
 176   0.0000       1.432696        38.9856 
 177   0.0000       1.460459        39.7411 
 178   0.0000       1.464510        39.8513 
 179   0.0000       1.473775        40.1034 
 180   0.0000       1.500160        40.8214 
 181   0.0000       1.504376        40.9362 
 182   0.0000       1.523886        41.4671 
 183   0.0000       1.561571        42.4925 
 184   0.0000       1.563462        42.5440 
 185   0.0000       1.571350        42.7586 
 186   0.0000       1.608462        43.7685 
 187   0.0000       1.611855        43.8608 
 188   0.0000       1.626193        44.2510 
 189   0.0000       1.654232        45.0139 
 190   0.0000       1.673486        45.5379 
 191   0.0000       1.729591        47.0646 
 192   0.0000       1.730781        47.0969 
 193   0.0000       1.757190        47.8156 
 194   0.0000       1.758529        47.8520 
 195   0.0000       1.760187        47.8971 
 196   0.0000       1.797744        48.9191 
 197   0.0000       1.823507        49.6201 
 198   0.0000       1.844036        50.1788 
 199   0.0000       1.855766        50.4980 
 200   0.0000       1.876201        51.0540 
 201   0.0000       2.049673        55.7744 
 202   0.0000       2.078666        56.5634 
 203   0.0000       2.110203        57.4215 
 204   0.0000       2.116591        57.5954 
 205   0.0000       2.122764        57.7633 
 206   0.0000       2.148686        58.4687 
 207   0.0000       2.154839        58.6361 
 208   0.0000       2.255120        61.3649 
 209   0.0000       2.260807        61.5197 
 210   0.0000       2.275511        61.9198 
 211   0.0000       2.304354        62.7047 
 212   0.0000       2.308336        62.8130 
 213   0.0000       2.338500        63.6338 
 214   0.0000       2.408058        65.5266 
 215   0.0000       2.451702        66.7142 
 216   0.0000       2.486344        67.6569 
 217   0.0000       2.530863        68.8683 
 218   0.0000       2.634343        71.6841 
 219   0.0000       2.648376        72.0660 
 220   0.0000       2.714103        73.8545 
 221   0.0000       2.798664        76.1555 
 222   0.0000       2.944116        80.1135 
 223   0.0000       2.973689        80.9182 
 224   0.0000       3.010788        81.9277 
 225   0.0000       3.074658        83.6657 
 226   0.0000       3.092752        84.1581 
 227   0.0000       3.127333        85.0991 
 228   0.0000       3.131179        85.2037 
 229   0.0000       3.161686        86.0338 
 230   0.0000       3.230804        87.9146 
 231   0.0000       3.296681        89.7072 
 232   0.0000       3.336738        90.7973 
 233   0.0000       3.355465        91.3068 
 234   0.0000       3.392025        92.3017 
 235   0.0000       3.474301        94.5405 
 236   0.0000       3.488127        94.9168 
 237   0.0000       3.511731        95.5591 
 238   0.0000       3.587372        97.6173 
 239   0.0000       3.608159        98.1830 
 240   0.0000       3.639705        99.0414 
 241   0.0000       3.645167        99.1900 
 242   0.0000       3.732284       101.5606 
 243   0.0000       3.779665       102.8499 
 244   0.0000       3.794872       103.2637 
 245   0.0000       3.834104       104.3313 
 246   0.0000       3.897191       106.0480 
 247   0.0000       3.926161       106.8363 
 248   0.0000       3.946581       107.3919 
 249   0.0000       4.000052       108.8469 
 250   0.0000       4.077020       110.9414 
 251   0.0000       4.110408       111.8499 
 252   0.0000       4.157024       113.1184 
 253   0.0000       4.183042       113.8263 
 254   0.0000       4.256284       115.8194 
 255   0.0000       4.367189       118.8373 
 256   0.0000       4.388048       119.4049 
 257   0.0000       4.411356       120.0391 
 258   0.0000       4.411810       120.0515 
 259   0.0000       4.426194       120.4429 
 260   0.0000       4.481044       121.9354 
 261   0.0000       4.524564       123.1197 
 262   0.0000       4.579255       124.6079 
 263   0.0000       4.582627       124.6996 
 264   0.0000       4.582824       124.7050 
 265   0.0000       4.635119       126.1280 
 266   0.0000       4.656664       126.7143 
 267   0.0000       4.716047       128.3302 
 268   0.0000       4.784260       130.1863 
 269   0.0000       4.808519       130.8465 
 270   0.0000       4.825468       131.3077 
 271   0.0000       4.925228       134.0223 
 272   0.0000       4.960852       134.9917 
 273   0.0000       4.996482       135.9612 
 274   0.0000       5.032877       136.9515 
 275   0.0000       5.078298       138.1875 
 276   0.0000       5.237074       142.5080 
 277   0.0000       5.239178       142.5653 
 278   0.0000       5.298133       144.1695 
 279   0.0000       5.305375       144.3666 
 280   0.0000       5.348943       145.5521 
 281   0.0000       5.440458       148.0424 
 282   0.0000       5.509038       149.9086 
 283   0.0000       5.598777       152.3505 
 284   0.0000       5.643606       153.5703 
 285   0.0000       5.812695       158.1715 
 286   0.0000       5.833972       158.7504 
 287   0.0000       5.950161       161.9121 
 288   0.0000       5.956965       162.0972 
 289   0.0000       6.069485       165.1591 
 290   0.0000       6.082066       165.5014 
 291   0.0000       6.175578       168.0460 
 292   0.0000       6.256922       170.2595 
 293   0.0000       6.295520       171.3098 
 294   0.0000       6.384233       173.7238 
 295   0.0000       6.420297       174.7052 
 296   0.0000       6.443801       175.3447 
 297   0.0000       6.630126       180.4149 
 298   0.0000       6.743240       183.4929 
 299   0.0000       6.771248       184.2550 
 300   0.0000       6.802691       185.1106 
 301   0.0000       6.884627       187.3402 
 302   0.0000       6.897079       187.6791 
 303   0.0000       6.949156       189.0961 
 304   0.0000       6.998102       190.4280 
 305   0.0000       7.204165       196.0353 
 306   0.0000       7.264530       197.6779 
 307   0.0000       7.339200       199.7098 
 308   0.0000       7.540698       205.1928 
 309   0.0000       7.725611       210.2246 
 310   0.0000       7.784774       211.8345 
 311   0.0000       8.168395       222.2733 
 312   0.0000       8.292999       225.6640 
 313   0.0000       8.319114       226.3746 
 314   0.0000       8.522415       231.9067 
 315   0.0000       8.532643       232.1850 
 316   0.0000       8.853567       240.9178 
 317   0.0000       8.954858       243.6741 
 318   0.0000       8.959670       243.8050 
 319   0.0000       8.984335       244.4762 
 320   0.0000       8.984385       244.4775 
 321   0.0000       9.036003       245.8821 
 322   0.0000       9.086653       247.2604 
 323   0.0000       9.221122       250.9195 
 324   0.0000       9.235955       251.3231 
 325   0.0000       9.346714       254.3370 
 326   0.0000       9.402010       255.8417 
 327   0.0000       9.607603       261.4362 
 328   0.0000       9.634837       262.1772 
 329   0.0000       9.933340       270.2999 
 330   0.0000       9.985422       271.7172 
 331   0.0000      10.172600       276.8105 
 332   0.0000      10.443337       284.1776 
 333   0.0000      10.495866       285.6070 
 334   0.0000      10.539534       286.7953 
 335   0.0000      10.571801       287.6733 
 336   0.0000      10.621107       289.0150 
 337   0.0000      10.700167       291.1663 
 338   0.0000      10.796456       293.7865 
 339   0.0000      10.831602       294.7429 
 340   0.0000      10.934341       297.5385 
 341   0.0000      10.964469       298.3584 
 342   0.0000      10.971921       298.5611 
 343   0.0000      11.164399       303.7987 
 344   0.0000      11.187090       304.4162 
 345   0.0000      11.334404       308.4248 
 346   0.0000      11.347692       308.7864 
 347   0.0000      11.381488       309.7060 
 348   0.0000      11.402101       310.2669 
 349   0.0000      11.437756       311.2372 
 350   0.0000      11.455587       311.7224 
 351   0.0000      11.501769       312.9790 
 352   0.0000      11.504558       313.0549 
 353   0.0000      11.506508       313.1080 
 354   0.0000      11.577475       315.0391 
 355   0.0000      11.652356       317.0767 
 356   0.0000      11.670590       317.5729 
 357   0.0000      11.753119       319.8186 
 358   0.0000      11.840573       322.1984 
 359   0.0000      11.864014       322.8362 
 360   0.0000      11.977493       325.9242 
 361   0.0000      12.129949       330.0727 
 362   0.0000      12.165794       331.0481 
 363   0.0000      12.308987       334.9446 
 364   0.0000      12.312734       335.0465 
 365   0.0000      12.346843       335.9747 
 366   0.0000      12.358026       336.2790 
 367   0.0000      12.372779       336.6804 
 368   0.0000      12.472746       339.4007 
 369   0.0000      12.472780       339.4016 
 370   0.0000      12.485438       339.7461 
 371   0.0000      12.674264       344.8843 
 372   0.0000      12.703375       345.6764 
 373   0.0000      12.737649       346.6090 
 374   0.0000      12.769029       347.4629 
 375   0.0000      12.940791       352.1368 
 376   0.0000      13.162821       358.1786 
 377   0.0000      13.229054       359.9809 
 378   0.0000      13.253157       360.6367 
 379   0.0000      13.257797       360.7630 
 380   0.0000      13.329529       362.7149 
 381   0.0000      13.342054       363.0557 
 382   0.0000      13.455183       366.1342 
 383   0.0000      13.502150       367.4122 
 384   0.0000      13.664873       371.8401 
 385   0.0000      13.739636       373.8745 
 386   0.0000      14.121401       384.2629 
 387   0.0000      14.247333       387.6897 
 388   0.0000      14.252855       387.8399 
 389   0.0000      14.253254       387.8508 
 390   0.0000      14.373310       391.1177 
 391   0.0000      14.628184       398.0531 
 392   0.0000      14.644159       398.4878 
 393   0.0000      14.686965       399.6526 
 394   0.0000      14.707794       400.2194 
 395   0.0000      14.936727       406.4490 
 396   0.0000      15.010827       408.4654 
 397   0.0000      15.253368       415.0653 
 398   0.0000      15.341173       417.4545 
 399   0.0000      15.424593       419.7245 
 400   0.0000      15.687001       426.8650 
 401   0.0000      15.746296       428.4785 
 402   0.0000      15.783942       429.5029 
 403   0.0000      15.794852       429.7998 
 404   0.0000      16.161431       439.7749 
 405   0.0000      16.404147       446.3795 
 406   0.0000      16.642927       452.8771 
 407   0.0000      16.702082       454.4868 
 408   0.0000      16.709233       454.6813 
 409   0.0000      16.717143       454.8966 
 410   0.0000      16.727812       455.1869 
 411   0.0000      16.940697       460.9798 
 412   0.0000      16.984010       462.1584 
 413   0.0000      17.069930       464.4964 
 414   0.0000      17.081183       464.8026 
 415   0.0000      17.093301       465.1324 
 416   0.0000      17.160773       466.9684 
 417   0.0000      17.485331       475.8000 
 418   0.0000      17.578742       478.3419 
 419   0.0000      17.639853       480.0048 
 420   0.0000      17.977368       489.1891 
 421   0.0000      18.030358       490.6310 
 422   0.0000      18.465862       502.4817 
 423   0.0000      18.472020       502.6492 
 424   0.0000      18.657117       507.6860 
 425   0.0000      18.960296       515.9359 
 426   0.0000      18.960558       515.9430 
 427   0.0000      19.115860       520.1690 
 428   0.0000      19.873279       540.7794 
 429   0.0000      20.105059       547.0865 
 430   0.0000      20.276074       551.7400 
 431   0.0000      20.332762       553.2826 
 432   0.0000      20.645279       561.7866 
 433   0.0000      21.216017       577.3172 
 434   0.0000      21.533867       585.9663 
 435   0.0000      21.619346       588.2923 
 436   0.0000      23.453319       638.1973 
 437   0.0000      23.500941       639.4931 
 438   0.0000      23.673267       644.1823 
 439   0.0000      23.895388       650.2266 
 440   0.0000      24.388720       663.6508 
 441   0.0000      25.395716       691.0526 
 442   0.0000      25.754375       700.8122 
 443   0.0000      26.177153       712.3166 
 444   0.0000      26.370247       717.5709 
 445   0.0000      28.009028       762.1644 
 446   0.0000      32.299755       878.9210 
 447   0.0000      32.881747       894.7578 
 448   0.0000      33.442415       910.0144 
 449   0.0000      34.441281       937.1949 
 450   0.0000      34.747026       945.5146 
 451   0.0000      40.999483      1115.6526 
 452   0.0000      41.210847      1121.4042 
 453   0.0000      47.703757      1298.0852 
 454   0.0000      47.740685      1299.0901 
 455   0.0000      47.985551      1305.7532 
 456   0.0000      48.140919      1309.9810 
 457   0.0000      48.909251      1330.8884 
 458   0.0000      76.649813      2085.7474 
 459   0.0000      90.999988      2476.2356 
 460   0.0000      91.031284      2477.0872 
 461   0.0000      91.138953      2480.0170 
 462   0.0000      91.322074      2485.0000 
 463   0.0000      92.316664      2512.0641 
 464   0.0000      92.504677      2517.1802 
 465   0.0000     104.179868      2834.8783 

                 SPIN DOWN ORBITALS
  NO   OCC          E(Eh)            E(eV) 
   0   1.0000     -13.999636      -380.9495 
   1   1.0000      -9.932479      -270.2765 
   2   1.0000      -0.824719       -22.4417 
   3   1.0000      -0.537364       -14.6224 
   4   1.0000      -0.433565       -11.7979 
   5   1.0000      -0.318882        -8.6772 
   6   1.0000      -0.314379        -8.5547 
   7   0.0000      -0.141759        -3.8575 
   8   0.0000      -0.052124        -1.4184 
   9   0.0000      -0.012803        -0.3484 
  10   0.0000       0.011828         0.3219 
  11   0.0000       0.015618         0.4250 
  12   0.0000       0.018355         0.4995 
  13   0.0000       0.037853         1.0300 
  14   0.0000       0.038943         1.0597 
  15   0.0000       0.045044         1.2257 
  16   0.0000       0.054158         1.4737 
  17   0.0000       0.055302         1.5048 
  18   0.0000       0.059116         1.6086 
  19   0.0000       0.065551         1.7837 
  20   0.0000       0.073700         2.0055 
  21   0.0000       0.080998         2.2041 
  22   0.0000       0.096686         2.6310 
  23   0.0000       0.108563         2.9542 
  24   0.0000       0.109526         2.9804 
  25   0.0000       0.122156         3.3240 
  26   0.0000       0.124887         3.3983 
  27   0.0000       0.128209         3.4887 
  28   0.0000       0.130922         3.5626 
  29   0.0000       0.131872         3.5884 
  30   0.0000       0.132750         3.6123 
  31   0.0000       0.133955         3.6451 
  32   0.0000       0.141811         3.8589 
  33   0.0000       0.150031         4.0826 
  34   0.0000       0.171644         4.6707 
  35   0.0000       0.181762         4.9460 
  36   0.0000       0.192733         5.2445 
  37   0.0000       0.194630         5.2962 
  38   0.0000       0.194914         5.3039 
  39   0.0000       0.221244         6.0204 
  40   0.0000       0.222942         6.0666 
  41   0.0000       0.228040         6.2053 
  42   0.0000       0.233301         6.3485 
  43   0.0000       0.233878         6.3642 
  44   0.0000       0.241401         6.5689 
  45   0.0000       0.243128         6.6159 
  46   0.0000       0.244868         6.6632 
  47   0.0000       0.251104         6.8329 
  48   0.0000       0.255745         6.9592 
  49   0.0000       0.263371         7.1667 
  50   0.0000       0.266441         7.2502 
  51   0.0000       0.269437         7.3318 
  52   0.0000       0.283277         7.7084 
  53   0.0000       0.285473         7.7681 
  54   0.0000       0.286087         7.7848 
  55   0.0000       0.288136         7.8406 
  56   0.0000       0.298302         8.1172 
  57   0.0000       0.298715         8.1285 
  58   0.0000       0.301919         8.2156 
  59   0.0000       0.303004         8.2452 
  60   0.0000       0.324923         8.8416 
  61   0.0000       0.343080         9.3357 
  62   0.0000       0.353227         9.6118 
  63   0.0000       0.369885        10.0651 
  64   0.0000       0.371046        10.0967 
  65   0.0000       0.375580        10.2201 
  66   0.0000       0.390228        10.6187 
  67   0.0000       0.395273        10.7559 
  68   0.0000       0.398321        10.8389 
  69   0.0000       0.401352        10.9214 
  70   0.0000       0.402612        10.9556 
  71   0.0000       0.408511        11.1162 
  72   0.0000       0.412091        11.2136 
  73   0.0000       0.419169        11.4062 
  74   0.0000       0.432591        11.7714 
  75   0.0000       0.439613        11.9625 
  76   0.0000       0.447383        12.1739 
  77   0.0000       0.453993        12.3538 
  78   0.0000       0.466315        12.6891 
  79   0.0000       0.472122        12.8471 
  80   0.0000       0.472779        12.8650 
  81   0.0000       0.474731        12.9181 
  82   0.0000       0.481999        13.1159 
  83   0.0000       0.486023        13.2254 
  84   0.0000       0.490500        13.3472 
  85   0.0000       0.491699        13.3798 
  86   0.0000       0.501143        13.6368 
  87   0.0000       0.502056        13.6616 
  88   0.0000       0.512222        13.9383 
  89   0.0000       0.513054        13.9609 
  90   0.0000       0.517112        14.0713 
  91   0.0000       0.521438        14.1890 
  92   0.0000       0.533588        14.5197 
  93   0.0000       0.542105        14.7514 
  94   0.0000       0.542849        14.7717 
  95   0.0000       0.543405        14.7868 
  96   0.0000       0.553695        15.0668 
  97   0.0000       0.563664        15.3381 
  98   0.0000       0.567413        15.4401 
  99   0.0000       0.579750        15.7758 
 100   0.0000       0.588287        16.0081 
 101   0.0000       0.605058        16.4645 
 102   0.0000       0.607724        16.5370 
 103   0.0000       0.613606        16.6971 
 104   0.0000       0.619838        16.8666 
 105   0.0000       0.632467        17.2103 
 106   0.0000       0.645158        17.5557 
 107   0.0000       0.646356        17.5882 
 108   0.0000       0.647600        17.6221 
 109   0.0000       0.654025        17.7969 
 110   0.0000       0.661467        17.9994 
 111   0.0000       0.695212        18.9177 
 112   0.0000       0.705620        19.2009 
 113   0.0000       0.710768        19.3410 
 114   0.0000       0.711585        19.3632 
 115   0.0000       0.725363        19.7381 
 116   0.0000       0.736050        20.0289 
 117   0.0000       0.756295        20.5798 
 118   0.0000       0.770235        20.9591 
 119   0.0000       0.773054        21.0359 
 120   0.0000       0.773358        21.0441 
 121   0.0000       0.773552        21.0494 
 122   0.0000       0.778067        21.1723 
 123   0.0000       0.780252        21.2317 
 124   0.0000       0.802592        21.8396 
 125   0.0000       0.808105        21.9897 
 126   0.0000       0.812796        22.1173 
 127   0.0000       0.813137        22.1266 
 128   0.0000       0.814178        22.1549 
 129   0.0000       0.818950        22.2848 
 130   0.0000       0.820728        22.3331 
 131   0.0000       0.843054        22.9407 
 132   0.0000       0.847882        23.0720 
 133   0.0000       0.850178        23.1345 
 134   0.0000       0.852237        23.1906 
 135   0.0000       0.852856        23.2074 
 136   0.0000       0.856243        23.2996 
 137   0.0000       0.861468        23.4417 
 138   0.0000       0.870457        23.6863 
 139   0.0000       0.870877        23.6978 
 140   0.0000       0.876179        23.8421 
 141   0.0000       0.877315        23.8729 
 142   0.0000       0.885748        24.1024 
 143   0.0000       0.900672        24.5085 
 144   0.0000       0.909694        24.7540 
 145   0.0000       0.913089        24.8464 
 146   0.0000       0.923412        25.1273 
 147   0.0000       0.929809        25.3014 
 148   0.0000       0.938230        25.5305 
 149   0.0000       0.944755        25.7081 
 150   0.0000       0.958524        26.0828 
 151   0.0000       0.965518        26.2731 
 152   0.0000       0.974479        26.5169 
 153   0.0000       0.976256        26.5653 
 154   0.0000       0.992422        27.0052 
 155   0.0000       1.018927        27.7264 
 156   0.0000       1.023387        27.8478 
 157   0.0000       1.024072        27.8664 
 158   0.0000       1.025692        27.9105 
 159   0.0000       1.039980        28.2993 
 160   0.0000       1.049338        28.5539 
 161   0.0000       1.054225        28.6869 
 162   0.0000       1.083970        29.4963 
 163   0.0000       1.094548        29.7842 
 164   0.0000       1.112583        30.2749 
 165   0.0000       1.124069        30.5875 
 166   0.0000       1.152277        31.3551 
 167   0.0000       1.167445        31.7678 
 168   0.0000       1.190505        32.3953 
 169   0.0000       1.214829        33.0572 
 170   0.0000       1.223854        33.3028 
 171   0.0000       1.249815        34.0092 
 172   0.0000       1.263768        34.3889 
 173   0.0000       1.286238        35.0003 
 174   0.0000       1.289140        35.0793 
 175   0.0000       1.390810        37.8459 
 176   0.0000       1.439726        39.1769 
 177   0.0000       1.469761        39.9942 
 178   0.0000       1.483478        40.3675 
 179   0.0000       1.484765        40.4025 
 180   0.0000       1.513989        41.1977 
 181   0.0000       1.523406        41.4540 
 182   0.0000       1.532844        41.7108 
 183   0.0000       1.571053        42.7505 
 184   0.0000       1.575442        42.8700 
 185   0.0000       1.589102        43.2417 
 186   0.0000       1.617988        44.0277 
 187   0.0000       1.624890        44.2155 
 188   0.0000       1.642061        44.6827 
 189   0.0000       1.665834        45.3296 
 190   0.0000       1.692651        46.0594 
 191   0.0000       1.739997        47.3477 
 192   0.0000       1.747095        47.5409 
 193   0.0000       1.768872        48.1334 
 194   0.0000       1.769488        48.1502 
 195   0.0000       1.772542        48.2333 
 196   0.0000       1.805119        49.1198 
 197   0.0000       1.847309        50.2678 
 198   0.0000       1.872494        50.9531 
 199   0.0000       1.882169        51.2164 
 200   0.0000       1.886203        51.3262 
 201   0.0000       2.052222        55.8438 
 202   0.0000       2.090673        56.8901 
 203   0.0000       2.113341        57.5069 
 204   0.0000       2.127504        57.8923 
 205   0.0000       2.127560        57.8939 
 206   0.0000       2.151689        58.5504 
 207   0.0000       2.153699        58.6051 
 208   0.0000       2.268426        61.7270 
 209   0.0000       2.281674        62.0875 
 210   0.0000       2.285744        62.1983 
 211   0.0000       2.314121        62.9704 
 212   0.0000       2.314854        62.9904 
 213   0.0000       2.342263        63.7362 
 214   0.0000       2.414761        65.7090 
 215   0.0000       2.459317        66.9214 
 216   0.0000       2.497887        67.9710 
 217   0.0000       2.536933        69.0335 
 218   0.0000       2.634555        71.6899 
 219   0.0000       2.666004        72.5457 
 220   0.0000       2.735161        74.4275 
 221   0.0000       2.814150        76.5769 
 222   0.0000       2.958787        80.5127 
 223   0.0000       2.974941        80.9523 
 224   0.0000       3.018669        82.1422 
 225   0.0000       3.091155        84.1146 
 226   0.0000       3.133104        85.2561 
 227   0.0000       3.134710        85.2998 
 228   0.0000       3.159182        85.9657 
 229   0.0000       3.181001        86.5594 
 230   0.0000       3.262206        88.7691 
 231   0.0000       3.307871        90.0117 
 232   0.0000       3.350690        91.1769 
 233   0.0000       3.378042        91.9212 
 234   0.0000       3.419388        93.0463 
 235   0.0000       3.491179        94.9998 
 236   0.0000       3.497658        95.1761 
 237   0.0000       3.527347        95.9840 
 238   0.0000       3.605440        98.1090 
 239   0.0000       3.621314        98.5410 
 240   0.0000       3.659250        99.5733 
 241   0.0000       3.668180        99.8163 
 242   0.0000       3.749355       102.0251 
 243   0.0000       3.795315       103.2758 
 244   0.0000       3.814035       103.7852 
 245   0.0000       3.851690       104.8098 
 246   0.0000       3.913107       106.4811 
 247   0.0000       3.960168       107.7617 
 248   0.0000       3.966340       107.9296 
 249   0.0000       4.016492       109.2943 
 250   0.0000       4.088937       111.2656 
 251   0.0000       4.130648       112.4006 
 252   0.0000       4.187171       113.9387 
 253   0.0000       4.196209       114.1847 
 254   0.0000       4.274746       116.3217 
 255   0.0000       4.378142       119.1353 
 256   0.0000       4.414789       120.1325 
 257   0.0000       4.422758       120.3494 
 258   0.0000       4.434393       120.6660 
 259   0.0000       4.435227       120.6887 
 260   0.0000       4.489919       122.1769 
 261   0.0000       4.546856       123.7262 
 262   0.0000       4.589350       124.8826 
 263   0.0000       4.605722       125.3281 
 264   0.0000       4.605785       125.3298 
 265   0.0000       4.636746       126.1723 
 266   0.0000       4.662122       126.8628 
 267   0.0000       4.750762       129.2748 
 268   0.0000       4.807271       130.8125 
 269   0.0000       4.831546       131.4730 
 270   0.0000       4.842445       131.7696 
 271   0.0000       4.970358       135.2503 
 272   0.0000       4.983005       135.5945 
 273   0.0000       5.029005       136.8462 
 274   0.0000       5.055951       137.5794 
 275   0.0000       5.096377       138.6795 
 276   0.0000       5.258256       143.0844 
 277   0.0000       5.261370       143.1691 
 278   0.0000       5.305351       144.3659 
 279   0.0000       5.316200       144.6611 
 280   0.0000       5.355498       145.7305 
 281   0.0000       5.457096       148.4951 
 282   0.0000       5.514035       150.0445 
 283   0.0000       5.621400       152.9661 
 284   0.0000       5.668772       154.2551 
 285   0.0000       5.825711       158.5256 
 286   0.0000       5.845612       159.0672 
 287   0.0000       5.966172       162.3478 
 288   0.0000       5.988975       162.9683 
 289   0.0000       6.081620       165.4893 
 290   0.0000       6.097140       165.9116 
 291   0.0000       6.183796       168.2697 
 292   0.0000       6.264757       170.4727 
 293   0.0000       6.294181       171.2734 
 294   0.0000       6.393873       173.9861 
 295   0.0000       6.429068       174.9438 
 296   0.0000       6.460938       175.8110 
 297   0.0000       6.636788       180.5962 
 298   0.0000       6.770260       184.2281 
 299   0.0000       6.820534       185.5962 
 300   0.0000       6.825325       185.7265 
 301   0.0000       6.902825       187.8354 
 302   0.0000       6.907198       187.9544 
 303   0.0000       6.963655       189.4907 
 304   0.0000       7.062117       192.1700 
 305   0.0000       7.250449       197.2947 
 306   0.0000       7.314215       199.0299 
 307   0.0000       7.384522       200.9431 
 308   0.0000       7.552565       205.5157 
 309   0.0000       7.742319       210.6792 
 310   0.0000       7.800927       212.2740 
 311   0.0000       8.173456       222.4110 
 312   0.0000       8.330507       226.6846 
 313   0.0000       8.352610       227.2861 
 314   0.0000       8.543717       232.4864 
 315   0.0000       8.553523       232.7532 
 316   0.0000       8.877945       241.5812 
 317   0.0000       8.981636       244.4028 
 318   0.0000       8.988236       244.5823 
 319   0.0000       9.009398       245.1582 
 320   0.0000       9.010582       245.1904 
 321   0.0000       9.056094       246.4289 
 322   0.0000       9.110615       247.9124 
 323   0.0000       9.246025       251.5971 
 324   0.0000       9.257293       251.9037 
 325   0.0000       9.368479       254.9293 
 326   0.0000       9.460345       257.4291 
 327   0.0000       9.654047       262.7000 
 328   0.0000       9.666673       263.0436 
 329   0.0000       9.954659       270.8800 
 330   0.0000      10.011311       272.4216 
 331   0.0000      10.169541       276.7273 
 332   0.0000      10.457075       284.5515 
 333   0.0000      10.510845       286.0146 
 334   0.0000      10.550346       287.0895 
 335   0.0000      10.576652       287.8053 
 336   0.0000      10.635542       289.4078 
 337   0.0000      10.697342       291.0895 
 338   0.0000      10.808641       294.1181 
 339   0.0000      10.846580       295.1504 
 340   0.0000      10.954121       298.0768 
 341   0.0000      10.973386       298.6010 
 342   0.0000      10.988015       298.9991 
 343   0.0000      11.258790       306.3673 
 344   0.0000      11.280466       306.9571 
 345   0.0000      11.388531       309.8977 
 346   0.0000      11.431376       311.0636 
 347   0.0000      11.437536       311.2312 
 348   0.0000      11.441269       311.3328 
 349   0.0000      11.460735       311.8625 
 350   0.0000      11.497068       312.8511 
 351   0.0000      11.504022       313.0403 
 352   0.0000      11.507792       313.1429 
 353   0.0000      11.545293       314.1634 
 354   0.0000      11.621519       316.2376 
 355   0.0000      11.667712       317.4946 
 356   0.0000      11.676601       317.7365 
 357   0.0000      11.755225       319.8759 
 358   0.0000      11.859805       322.7217 
 359   0.0000      11.878323       323.2256 
 360   0.0000      11.975223       325.8624 
 361   0.0000      12.150589       330.6343 
 362   0.0000      12.194019       331.8161 
 363   0.0000      12.320113       335.2473 
 364   0.0000      12.335585       335.6683 
 365   0.0000      12.380936       336.9024 
 366   0.0000      12.384402       336.9967 
 367   0.0000      12.390001       337.1491 
 368   0.0000      12.492901       339.9491 
 369   0.0000      12.499114       340.1182 
 370   0.0000      12.508106       340.3629 
 371   0.0000      12.695388       345.4591 
 372   0.0000      12.716510       346.0338 
 373   0.0000      12.744929       346.8072 
 374   0.0000      12.771221       347.5226 
 375   0.0000      12.962110       352.7169 
 376   0.0000      13.161868       358.1526 
 377   0.0000      13.253367       360.6424 
 378   0.0000      13.254279       360.6673 
 379   0.0000      13.257923       360.7664 
 380   0.0000      13.340509       363.0137 
 381   0.0000      13.352131       363.3299 
 382   0.0000      13.475200       366.6788 
 383   0.0000      13.498144       367.3032 
 384   0.0000      13.685855       372.4110 
 385   0.0000      13.766896       374.6163 
 386   0.0000      14.140233       384.7753 
 387   0.0000      14.273283       388.3958 
 388   0.0000      14.338052       390.1582 
 389   0.0000      14.346366       390.3845 
 390   0.0000      14.394323       391.6894 
 391   0.0000      14.674060       399.3015 
 392   0.0000      14.692525       399.8039 
 393   0.0000      14.714952       400.4142 
 394   0.0000      14.768450       401.8699 
 395   0.0000      14.963346       407.1733 
 396   0.0000      15.026627       408.8953 
 397   0.0000      15.291306       416.0976 
 398   0.0000      15.366669       418.1483 
 399   0.0000      15.455442       420.5640 
 400   0.0000      15.718342       427.7178 
 401   0.0000      15.755390       428.7260 
 402   0.0000      15.817205       430.4080 
 403   0.0000      15.844127       431.1406 
 404   0.0000      16.196898       440.7400 
 405   0.0000      16.426178       446.9790 
 406   0.0000      16.650690       453.0883 
 407   0.0000      16.732521       455.3151 
 408   0.0000      16.737858       455.4603 
 409   0.0000      16.747812       455.7311 
 410   0.0000      16.751579       455.8337 
 411   0.0000      17.017751       463.0766 
 412   0.0000      17.058032       464.1726 
 413   0.0000      17.102298       465.3772 
 414   0.0000      17.110166       465.5913 
 415   0.0000      17.122491       465.9267 
 416   0.0000      17.187870       467.7057 
 417   0.0000      17.504810       476.3301 
 418   0.0000      17.588097       478.5964 
 419   0.0000      17.670081       480.8273 
 420   0.0000      18.038222       490.8450 
 421   0.0000      18.042049       490.9491 
 422   0.0000      18.493186       503.2252 
 423   0.0000      18.497408       503.3401 
 424   0.0000      18.680486       508.3219 
 425   0.0000      18.961786       515.9764 
 426   0.0000      18.986564       516.6507 
 427   0.0000      19.144177       520.9396 
 428   0.0000      19.895995       541.3975 
 429   0.0000      20.127703       547.7026 
 430   0.0000      20.294567       552.2433 
 431   0.0000      20.351366       553.7888 
 432   0.0000      20.667455       562.3900 
 433   0.0000      21.234941       577.8321 
 434   0.0000      21.544499       586.2556 
 435   0.0000      21.624243       588.4256 
 436   0.0000      23.489314       639.1767 
 437   0.0000      23.536943       640.4728 
 438   0.0000      23.708343       645.1368 
 439   0.0000      23.928712       651.1334 
 440   0.0000      24.411457       664.2695 
 441   0.0000      25.427723       691.9235 
 442   0.0000      25.785195       701.6508 
 443   0.0000      26.199996       712.9381 
 444   0.0000      26.460174       720.0180 
 445   0.0000      28.030745       762.7553 
 446   0.0000      32.294458       878.7769 
 447   0.0000      32.876582       894.6173 
 448   0.0000      33.437764       909.8878 
 449   0.0000      34.440354       937.1697 
 450   0.0000      34.744939       945.4578 
 451   0.0000      41.030916      1116.5080 
 452   0.0000      41.242357      1122.2616 
 453   0.0000      47.764129      1299.7280 
 454   0.0000      47.803533      1300.8003 
 455   0.0000      47.995629      1306.0275 
 456   0.0000      48.195699      1311.4717 
 457   0.0000      48.934717      1331.5814 
 458   0.0000      76.647601      2085.6872 
 459   0.0000      91.038170      2477.2745 
 460   0.0000      91.069468      2478.1262 
 461   0.0000      91.176855      2481.0484 
 462   0.0000      91.359979      2486.0314 
 463   0.0000      92.353645      2513.0704 
 464   0.0000      92.541609      2518.1852 
 465   0.0000     104.198563      2835.3871 

                    ********************************
                    * MULLIKEN POPULATION ANALYSIS *
                    ********************************

--------------------------------------------
MULLIKEN ATOMIC CHARGES AND SPIN POPULATIONS
--------------------------------------------
   0 C :   -0.004388   -0.108650
   1 N :   -0.131515    0.922030
   2 H :    0.067942    0.093357
   3 H :    0.067960    0.093263
Sum of atomic charges         :    0.0000000
Sum of atomic spin populations:    1.0000000

-----------------------------------------------------
MULLIKEN REDUCED ORBITAL CHARGES AND SPIN POPULATIONS
-----------------------------------------------------
CHARGE
  0 C s       :     3.071053  s :     3.071053
      pz      :     0.944057  p :     2.784664
      px      :     0.875491
      py      :     0.965117
      dz2     :     0.019044  d :     0.133663
      dxz     :     0.019094
      dyz     :     0.091201
      dx2y2   :     0.004324
      dxy     :    -0.000000
      f0      :     0.004784  f :     0.013296
      f+1     :     0.002854
      f-1     :     0.004557
      f+2     :     0.000754
      f-2     :     0.000000
      f+3     :    -0.000030
      f-3     :     0.000376
      g0      :     0.000492  g :     0.001601
      g+1     :     0.000594
      g-1     :     0.000344
      g+2     :     0.000043
      g-2     :    -0.000000
      g+3     :    -0.000008
      g-3     :     0.000102
      g+4     :     0.000034
      g-4     :     0.000000
      h0      :     0.000064  h :     0.000111
      h+1     :     0.000017
      h-1     :     0.000025
      h+2     :     0.000001
      h-2     :     0.000000
      h+3     :     0.000001
      h-3     :    -0.000006
      h+4     :     0.000009
      h-4     :     0.000000
      h+5     :     0.000000
      h-5     :     0.000001
  1 N s       :     3.784890  s :     3.784890
      pz      :     1.244434  p :     3.281589
      px      :     1.048903
      py      :     0.988252
      dz2     :     0.013662  d :     0.057824
      dxz     :     0.025592
      dyz     :     0.018302
      dx2y2   :     0.000267
      dxy     :    -0.000000
      f0      :     0.001063  f :     0.006810
      f+1     :     0.003020
      f-1     :     0.002682
      f+2     :     0.000009
      f-2     :    -0.000000
      f+3     :     0.000002
      f-3     :     0.000035
      g0      :     0.000146  g :     0.000423
      g+1     :     0.000453
      g-1     :    -0.000089
      g+2     :    -0.000070
      g-2     :     0.000000
      g+3     :    -0.000012
      g-3     :    -0.000009
      g+4     :     0.000003
      g-4     :    -0.000000
      h0      :     0.000018  h :    -0.000021
      h+1     :     0.000040
      h-1     :    -0.000031
      h+2     :    -0.000028
      h-2     :     0.000000
      h+3     :     0.000000
      h-3     :    -0.000019
      h+4     :     0.000001
      h-4     :     0.000000
      h+5     :    -0.000000
      h-5     :    -0.000000
  2 H s       :     0.875690  s :     0.875690
      pz      :     0.016627  p :     0.060497
      px      :     0.014783
      py      :     0.029087
      dz2     :    -0.000284  d :    -0.002783
      dxz     :     0.000548
      dyz     :    -0.000569
      dx2y2   :     0.000707
      dxy     :    -0.003184
      f0      :     0.000090  f :    -0.001378
      f+1     :     0.001061
      f-1     :    -0.000617
      f+2     :    -0.000725
      f-2     :    -0.000639
      f+3     :    -0.000724
      f-3     :     0.000176
      g0      :    -0.000037  g :     0.000032
      g+1     :     0.000125
      g-1     :     0.000061
      g+2     :    -0.000066
      g-2     :     0.000169
      g+3     :    -0.000095
      g-3     :    -0.000127
      g+4     :     0.000051
      g-4     :    -0.000049
  3 H s       :     0.875683  s :     0.875683
      pz      :     0.016621  p :     0.060490
      px      :     0.014783
      py      :     0.029086
      dz2     :    -0.000285  d :    -0.002786
      dxz     :     0.000548
      dyz     :    -0.000572
      dx2y2   :     0.000707
      dxy     :    -0.003184
      f0      :     0.000090  f :    -0.001378
      f+1     :     0.001061
      f-1     :    -0.000618
      f+2     :    -0.000725
      f-2     :    -0.000639
      f+3     :    -0.000724
      f-3     :     0.000176
      g0      :    -0.000037  g :     0.000032
      g+1     :     0.000125
      g-1     :     0.000061
      g+2     :    -0.000066
      g-2     :     0.000169
      g+3     :    -0.000095
      g-3     :    -0.000127
      g+4     :     0.000051
      g-4     :    -0.000049

SPIN
  0 C s       :    -0.057462  s :    -0.057462
      pz      :    -0.045154  p :    -0.148872
      px      :    -0.058051
      py      :    -0.045668
      dz2     :     0.000951  d :     0.094306
      dxz     :     0.001656
      dyz     :     0.091354
      dx2y2   :     0.000345
      dxy     :    -0.000000
      f0      :     0.000050  f :     0.002804
      f+1     :    -0.000005
      f-1     :     0.002580
      f+2     :     0.000013
      f-2     :     0.000000
      f+3     :    -0.000040
      f-3     :     0.000206
      g0      :     0.000413  g :     0.000573
      g+1     :     0.000002
      g-1     :     0.000087
      g+2     :    -0.000007
      g-2     :     0.000000
      g+3     :     0.000007
      g-3     :     0.000065
      g+4     :     0.000006
      g-4     :    -0.000000
      h0      :     0.000007  h :     0.000001
      h+1     :    -0.000021
      h-1     :     0.000016
      h+2     :    -0.000001
      h-2     :     0.000000
      h+3     :     0.000001
      h-3     :    -0.000000
      h+4     :     0.000001
      h-4     :    -0.000000
      h+5     :     0.000000
      h-5     :    -0.000003
  1 N s       :     0.026163  s :     0.026163
      pz      :     0.045093  p :     0.887847
      px      :     0.061241
      py      :     0.781514
      dz2     :     0.002078  d :     0.008562
      dxz     :     0.001723
      dyz     :     0.004773
      dx2y2   :    -0.000012
      dxy     :    -0.000000
      f0      :     0.000099  f :     0.000071
      f+1     :     0.000072
      f-1     :    -0.000155
      f+2     :    -0.000033
      f-2     :     0.000000
      f+3     :     0.000008
      f-3     :     0.000080
      g0      :     0.000091  g :    -0.000522
      g+1     :     0.000059
      g-1     :    -0.000701
      g+2     :    -0.000014
      g-2     :    -0.000000
      g+3     :    -0.000002
      g-3     :     0.000043
      g+4     :     0.000001
      g-4     :     0.000000
      h0      :     0.000009  h :    -0.000090
      h+1     :     0.000009
      h-1     :    -0.000090
      h+2     :    -0.000008
      h-2     :     0.000000
      h+3     :    -0.000003
      h-3     :    -0.000008
      h+4     :     0.000001
      h-4     :    -0.000000
      h+5     :    -0.000000
      h-5     :     0.000000
  2 H s       :     0.087045  s :     0.087045
      pz      :     0.003452  p :     0.011603
      px      :    -0.000368
      py      :     0.008518
      dz2     :    -0.001877  d :    -0.003219
      dxz     :    -0.000439
      dyz     :    -0.000968
      dx2y2   :     0.001583
      dxy     :    -0.001518
      f0      :    -0.000024  f :    -0.001953
      f+1     :    -0.000011
      f-1     :    -0.000618
      f+2     :    -0.000888
      f-2     :    -0.000617
      f+3     :    -0.000297
      f-3     :     0.000503
      g0      :     0.000055  g :    -0.000119
      g+1     :     0.000008
      g-1     :    -0.000017
      g+2     :     0.000001
      g-2     :     0.000005
      g+3     :    -0.000067
      g-3     :    -0.000142
      g+4     :     0.000063
      g-4     :    -0.000025
  3 H s       :     0.086958  s :     0.086958
      pz      :     0.003452  p :     0.011597
      px      :    -0.000368
      py      :     0.008512
      dz2     :    -0.001878  d :    -0.003220
      dxz     :    -0.000439
      dyz     :    -0.000967
      dx2y2   :     0.001582
      dxy     :    -0.001518
      f0      :    -0.000024  f :    -0.001953
      f+1     :    -0.000011
      f-1     :    -0.000618
      f+2     :    -0.000888
      f-2     :    -0.000617
      f+3     :    -0.000297
      f-3     :     0.000502
      g0      :     0.000055  g :    -0.000119
      g+1     :     0.000008
      g-1     :    -0.000017
      g+2     :     0.000001
      g-2     :     0.000005
      g+3     :    -0.000067
      g-3     :    -0.000142
      g+4     :     0.000063
      g-4     :    -0.000025


                     *******************************
                     * LOEWDIN POPULATION ANALYSIS *
                     *******************************

-------------------------------------------
LOEWDIN ATOMIC CHARGES AND SPIN POPULATIONS
-------------------------------------------
   0 C :    0.426272    0.207015
   1 N :    0.500432    0.637794
   2 H :   -0.463352    0.077595
   3 H :   -0.463352    0.077595

----------------------------------------------------
LOEWDIN REDUCED ORBITAL CHARGES AND SPIN POPULATIONS
----------------------------------------------------
CHARGE
  0 C s       :     2.569799  s :     2.569799
      pz      :     0.933940  p :     2.322973
      px      :     0.590020
      py      :     0.799013
      dz2     :     0.203777  d :     0.505363
      dxz     :     0.074620
      dyz     :     0.207535
      dx2y2   :     0.019430
      dxy     :     0.000000
      f0      :     0.048402  f :     0.140345
      f+1     :     0.034111
      f-1     :     0.047044
      f+2     :     0.006145
      f-2     :     0.000000
      f+3     :     0.000538
      f-3     :     0.004105
      g0      :     0.009208  g :     0.029475
      g+1     :     0.008415
      g-1     :     0.010429
      g+2     :     0.000129
      g-2     :     0.000000
      g+3     :     0.000041
      g-3     :     0.000975
      g+4     :     0.000277
      g-4     :     0.000000
      h0      :     0.002409  h :     0.005774
      h+1     :     0.001509
      h-1     :     0.001111
      h+2     :     0.000376
      h-2     :     0.000000
      h+3     :     0.000153
      h-3     :     0.000029
      h+4     :     0.000058
      h-4     :     0.000000
      h+5     :     0.000029
      h-5     :     0.000099
  1 N s       :     3.022006  s :     3.022006
      pz      :     1.361169  p :     2.988598
      px      :     0.836358
      py      :     0.791072
      dz2     :     0.116994  d :     0.300836
      dxz     :     0.053568
      dyz     :     0.129330
      dx2y2   :     0.000945
      dxy     :     0.000000
      f0      :     0.032640  f :     0.127038
      f+1     :     0.022113
      f-1     :     0.070390
      f+2     :     0.001767
      f-2     :     0.000000
      f+3     :     0.000037
      f-3     :     0.000092
      g0      :     0.008170  g :     0.046384
      g+1     :     0.005613
      g-1     :     0.029468
      g+2     :     0.002542
      g-2     :     0.000000
      g+3     :     0.000001
      g-3     :     0.000537
      g+4     :     0.000053
      g-4     :     0.000000
      h0      :     0.001072  h :     0.014705
      h+1     :     0.001129
      h-1     :     0.009030
      h+2     :     0.002314
      h-2     :     0.000000
      h+3     :     0.000003
      h-3     :     0.001114
      h+4     :     0.000038
      h-4     :     0.000000
      h+5     :     0.000003
      h-5     :     0.000003
  2 H s       :     0.676888  s :     0.676888
      pz      :     0.102418  p :     0.318773
      px      :     0.068735
      py      :     0.147620
      dz2     :     0.072538  d :     0.260902
      dxz     :     0.030570
      dyz     :     0.067012
      dx2y2   :     0.050489
      dxy     :     0.040292
      f0      :     0.026594  f :     0.133607
      f+1     :     0.006233
      f-1     :     0.047154
      f+2     :     0.016003
      f-2     :     0.017131
      f+3     :     0.007543
      f-3     :     0.012949
      g0      :     0.014075  g :     0.073182
      g+1     :     0.002647
      g-1     :     0.021883
      g+2     :     0.014687
      g-2     :     0.006788
      g+3     :     0.004912
      g-3     :     0.003630
      g+4     :     0.003542
      g-4     :     0.001019
  3 H s       :     0.676888  s :     0.676888
      pz      :     0.102418  p :     0.318773
      px      :     0.068735
      py      :     0.147620
      dz2     :     0.072538  d :     0.260902
      dxz     :     0.030570
      dyz     :     0.067012
      dx2y2   :     0.050489
      dxy     :     0.040292
      f0      :     0.026594  f :     0.133607
      f+1     :     0.006233
      f-1     :     0.047154
      f+2     :     0.016003
      f-2     :     0.017131
      f+3     :     0.007543
      f-3     :     0.012949
      g0      :     0.014075  g :     0.073182
      g+1     :     0.002647
      g-1     :     0.021883
      g+2     :     0.014687
      g-2     :     0.006788
      g+3     :     0.004912
      g-3     :     0.003630
      g+4     :     0.003542
      g-4     :     0.001019

SPIN
  0 C s       :    -0.004910  s :    -0.004910
      pz      :    -0.009639  p :    -0.046854
      px      :    -0.028499
      py      :    -0.008715
      dz2     :     0.002543  d :     0.204343
      dxz     :     0.005307
      dyz     :     0.195368
      dx2y2   :     0.001125
      dxy     :     0.000000
      f0      :     0.001224  f :     0.044287
      f+1     :     0.003198
      f-1     :     0.037620
      f+2     :     0.000562
      f-2     :    -0.000000
      f+3     :    -0.000073
      f-3     :     0.001755
      g0      :    -0.000046  g :     0.009240
      g+1     :     0.000724
      g-1     :     0.008123
      g+2     :     0.000038
      g-2     :     0.000000
      g+3     :    -0.000004
      g-3     :     0.000391
      g+4     :     0.000014
      g-4     :     0.000000
      h0      :    -0.000069  h :     0.000909
      h+1     :     0.000092
      h-1     :     0.000788
      h+2     :     0.000041
      h-2     :    -0.000000
      h+3     :     0.000020
      h-3     :     0.000009
      h+4     :     0.000003
      h-4     :     0.000000
      h+5     :    -0.000002
      h-5     :     0.000025
  1 N s       :     0.007698  s :     0.007698
      pz      :     0.003934  p :     0.601966
      px      :     0.039286
      py      :     0.558746
      dz2     :    -0.000265  d :     0.013763
      dxz     :    -0.004698
      dyz     :     0.018785
      dx2y2   :    -0.000059
      dxy     :     0.000000
      f0      :    -0.000409  f :     0.007823
      f+1     :    -0.002402
      f-1     :     0.010568
      f+2     :     0.000052
      f-2     :     0.000000
      f+3     :    -0.000018
      f-3     :     0.000032
      g0      :    -0.000107  g :     0.004572
      g+1     :    -0.000429
      g-1     :     0.004708
      g+2     :     0.000174
      g-2     :     0.000000
      g+3     :    -0.000000
      g-3     :     0.000224
      g+4     :     0.000002
      g-4     :    -0.000000
      h0      :    -0.000046  h :     0.001972
      h+1     :    -0.000079
      h-1     :     0.001513
      h+2     :     0.000170
      h-2     :     0.000000
      h+3     :    -0.000001
      h-3     :     0.000410
      h+4     :     0.000002
      h-4     :     0.000000
      h+5     :     0.000000
      h-5     :     0.000002
  2 H s       :     0.047787  s :     0.047787
      pz      :     0.002948  p :    -0.000235
      px      :    -0.003609
      py      :     0.000426
      dz2     :     0.001203  d :     0.000609
      dxz     :    -0.000627
      dyz     :     0.002083
      dx2y2   :     0.000414
      dxy     :    -0.002465
      f0      :     0.006464  f :     0.014096
      f+1     :     0.000392
      f-1     :     0.003923
      f+2     :     0.003452
      f-2     :    -0.000206
      f+3     :    -0.000381
      f-3     :     0.000453
      g0      :     0.007812  g :     0.015338
      g+1     :     0.000276
      g-1     :    -0.000115
      g+2     :     0.005268
      g-2     :     0.000360
      g+3     :     0.000067
      g-3     :     0.001373
      g+4     :     0.000316
      g-4     :    -0.000020
  3 H s       :     0.047787  s :     0.047787
      pz      :     0.002948  p :    -0.000235
      px      :    -0.003609
      py      :     0.000426
      dz2     :     0.001203  d :     0.000609
      dxz     :    -0.000627
      dyz     :     0.002083
      dx2y2   :     0.000414
      dxy     :    -0.002465
      f0      :     0.006464  f :     0.014096
      f+1     :     0.000392
      f-1     :     0.003923
      f+2     :     0.003452
      f-2     :    -0.000206
      f+3     :    -0.000381
      f-3     :     0.000453
      g0      :     0.007812  g :     0.015338
      g+1     :     0.000276
      g-1     :    -0.000115
      g+2     :     0.005268
      g-2     :     0.000360
      g+3     :     0.000067
      g-3     :     0.001373
      g+4     :     0.000316
      g-4     :    -0.000020


                      *****************************
                      * MAYER POPULATION ANALYSIS *
                      *****************************

  NA   - Mulliken gross atomic population
  ZA   - Total nuclear charge
  QA   - Mulliken gross atomic charge
  VA   - Mayer's total valence
  BVA  - Mayer's bonded valence
  FA   - Mayer's free valence

  ATOM       NA         ZA         QA         VA         BVA        FA
  0 C      6.0044     6.0000    -0.0044     4.0854     4.0607     0.0247
  1 N      7.1315     7.0000    -0.1315     2.9900     2.3724     0.6176
  2 H      0.9321     1.0000     0.0679     1.1231     1.1149     0.0082
  3 H      0.9320     1.0000     0.0680     1.1231     1.1148     0.0082

  Mayer bond orders larger than 0.1
B(  0-C ,  1-N ) :   2.1782 B(  0-C ,  2-H ) :   0.9413 B(  0-C ,  3-H ) :   0.9413 


-------
TIMINGS
-------

Total SCF time: 0 days 2 hours 1 min 3 sec 

Total time                  ....    7263.359 sec
Sum of individual times     ....    7262.216 sec  (100.0%)

Fock matrix formation       ....    7246.293 sec  ( 99.8%)
  XC integration            ....     263.852 sec  (  3.6% of F)
    Basis function eval.    ....      15.298 sec  (  5.8% of XC)
    Density eval.           ....      64.715 sec  ( 24.5% of XC)
    XC-Functional eval.     ....       1.651 sec  (  0.6% of XC)
    XC-Potential eval.      ....     180.322 sec  ( 68.3% of XC)
Diagonalization             ....       2.597 sec  (  0.0%)
Density matrix formation    ....       0.042 sec  (  0.0%)
Population analysis         ....       0.197 sec  (  0.0%)
Initial guess               ....       8.939 sec  (  0.1%)
Orbital Transformation      ....       0.000 sec  (  0.0%)
Orbital Orthonormalization  ....       0.000 sec  (  0.0%)
DIIS solution               ....       1.173 sec  (  0.0%)
Grid generation             ....       2.976 sec  (  0.0%)

-------------------------   --------------------
FINAL SINGLE POINT ENERGY       -93.906379027318
-------------------------   --------------------


                            ***************************************
                            *     ORCA property calculations      *
                            ***************************************

                                    ---------------------
                                    Active property flags
                                    ---------------------
   (+) Dipole Moment
   (+) Polarizability


------------------------------------------------------------------------------
                       ORCA ELECTRIC PROPERTIES CALCULATION
------------------------------------------------------------------------------

Dipole Moment Calculation                       ... on
Quadrupole Moment Calculation                   ... off
Polarizability Calculation                      ... Analytic (CP-SCF)
GBWName                                         ... h2cn_pbe.gbw
Electron density file                           ... h2cn_pbe.scfp.tmp
The origin for moment calculation is the CENTER OF MASS  = ( 0.000000,  0.000000  0.141392)

-------------
DIPOLE MOMENT
-------------
                                X             Y             Z
Electronic contribution:     -0.00000       0.00000       1.15012
Nuclear contribution   :      0.00000       0.00000      -2.12050
                        -----------------------------------------
Total Dipole Moment    :     -0.00000       0.00000      -0.97038
                        -----------------------------------------
Magnitude (a.u.)       :      0.97038
Magnitude (Debye)      :      2.46652



--------------------
Rotational spectrum 
--------------------
 
Rotational constants in cm-1:     9.581349     1.370433     1.198946 
Rotational constants in MHz : 287241.608660 41084.561275 35943.511521 

 Dipole components along the rotational axes: 
x,y,z [a.u.] :    -0.970385     0.000000    -0.000000 
x,y,z [Debye]:    -2.466522     0.000000    -0.000000 

 
Transforming and storing MO dipole integrals   ... done

                ... starting polarizability calculation

Opening the Dipole integral file               ... (h2cn_pbe.dmo.tmp) done
Reading Dipole-MO integrals                    ... done
Solving CP-SCF equations                       ... 
------------------------------------------------------------------------------
                           ORCA CP-SCF CALCULATION
------------------------------------------------------------------------------

Input orbitals are from        ... h2cn_pbe.gbw
Input Perturbation             ... h2cn_pbe.cpv.tmp
Wavefunction output            ... h2cn_pbe.cpu.tmp
Perturbation mode              ... Real perturbation (singlet)
Solver                         ... POPLE
Max. number of iterations      ... 200
Convergence tolerance          ... 1.000e-06
Integral handling              ... Direct
Number of perturbations        ... 3
Number of operators            ... 2
Orbital ranges used for CP-SCF:
 Operator 0:  Orbitals   0...  7  to   8...465
 Operator 1:  Orbitals   0...  6  to   7...465
DFT calculation                         ... on
Exchange functional (SCF)               ... PBE
Exchange functional (CP-SCF)            ... PBE
   PBE kappa parameter  XKappa (SCF)    ...  0.804000
   PBE kappa parameter  XKappa (CP-SCF) ...  0.804000
   PBE mue parameter   XMuePBE (SCF)    ...  0.219520
   PBE mue parameter   XMuePBE (CP-SCF) ...  0.219520
Correlation functional (SCF)            ... PBE
Correlation functional (CP-SCF)         ... PBE
   PBE beta parameter CBetaPBE (SCF)    ...  0.066725
   PBE beta parameter CBetaPBE (CP-SCF) ...  0.066725
 LDA part of GGA corr.  LDAOpt (SCF)    ... PW91-LDA
 LDA part of GGA corr.  LDAOpt (CP-SCF) ... PW91-LDA
Variables per vector in CP-SCF ... 6877
Number of vectors sought       ... 3
Recalculating density on grid  ... done
Calculating the xc-kernel      ... done
     CP-SCF ITERATION   0: 
     CP-SCF ITERATION   1:      0.228360571835
     CP-SCF ITERATION   2:      0.023317694634
     CP-SCF ITERATION   3:      0.000845589784
     CP-SCF ITERATION   4:      0.000052780369
     CP-SCF ITERATION   5:      0.000007298933
     CP-SCF ITERATION   6:      0.000000928697
done
Reading CP-SCF coefficients                    ... done
Doing the polarizability tensor   ... done
Cleaning up                                    ... done

-------------------------
THE POLARIZABILITY TENSOR
-------------------------

The raw cartesian tensor (atomic units):
   16.09835      0.00000     -0.00000  
    0.00000     20.12443     -0.00000  
   -0.00000     -0.00000     26.58544  
diagonalized tensor: 
   16.09835     20.12443     26.58544  

    1.00000      0.00000     -0.00000  
   -0.00000      1.00000     -0.00000  
    0.00000      0.00000      1.00000  

Isotropic polarizability :  20.93607


Timings for individual modules:

Sum of individual times         ...    12929.193 sec (= 215.487 min)
GTO integral calculation        ...        6.482 sec (=   0.108 min)   0.1 %
SCF iterations                  ...     7266.669 sec (= 121.111 min)  56.2 %
Solution of CP-SCF eqns.        ...     5656.041 sec (=  94.267 min)  43.7 %
                             ****ORCA TERMINATED NORMALLY****
TOTAL RUN TIME: 0 days 3 hours 35 minutes 29 seconds 791 msec
