
                                 *****************
                                 * O   R   C   A *
                                 *****************

           --- An Ab Initio, DFT and Semiempirical electronic structure package ---

                  #######################################################
                  #                        -***-                        #
                  #          Department of theory and spectroscopy      #
                  #               Directorship: Frank Neese             #
                  #        Max Planck Institute fuer Kohlenforschung    #
                  #                Kaiser Wilhelm Platz 1               #
                  #                 D-45470 Muelheim/Ruhr               #
                  #                      Germany                        #
                  #                                                     #
                  #                  All rights reserved                #
                  #                        -***-                        #
                  #######################################################


                         Program Version 4.1.2  - RELEASE  -


 With contributions from (in alphabetic order):
   Daniel Aravena         : Magnetic Properties
   Michael Atanasov       : Ab Initio Ligand Field Theory
   Alexander A. Auer      : GIAO ZORA
   Ute Becker             : Parallelization
   Giovanni Bistoni       : ED, Open-shell LED
   Martin Brehm           : Molecular dynamics
   Dmytro Bykov           : SCF Hessian
   Vijay G. Chilkuri      : MRCI spin determinant printing
   Dipayan Datta          : RHF DLPNO-CCSD density
   Achintya Kumar Dutta   : EOM-CC, STEOM-CC
   Dmitry Ganyushin       : Spin-Orbit,Spin-Spin,Magnetic field MRCI
   Miquel Garcia          : C-PCM Hessian
   Yang Guo               : DLPNO-NEVPT2, CIM, IAO-localization
   Andreas Hansen         : Spin unrestricted coupled pair/coupled cluster methods
   Benjamin Helmich-Paris : CASSCF linear response (MC-RPA)
   Lee Huntington         : MR-EOM, pCC
   Robert Izsak           : Overlap fitted RIJCOSX, COSX-SCS-MP3, EOM
   Christian Kollmar      : KDIIS, OOCD, Brueckner-CCSD(T), CCSD density
   Simone Kossmann        : Meta GGA functionals, TD-DFT gradient, OOMP2, MP2 Hessian
   Martin Krupicka        : AUTO-CI
   Lucas Lang             : DCDCAS
   Dagmar Lenk            : GEPOL surface, SMD
   Dimitrios Liakos       : Extrapolation schemes; parallel MDCI
   Dimitrios Manganas     : ROCIS; embedding schemes
   Dimitrios Pantazis     : SARC Basis sets
   Taras Petrenko         : DFT Hessian,TD-DFT gradient, ASA, ECA, R-Raman, ABS, FL, XAS/XES, NRVS
   Peter Pinski           : DLPNO-MP2, DLPNO-MP2 Gradient
   Christoph Reimann      : Effective Core Potentials
   Marius Retegan         : Local ZFS, SOC
   Christoph Riplinger    : Optimizer, TS searches, QM/MM, DLPNO-CCSD(T), (RO)-DLPNO pert. Triples
   Tobias Risthaus        : Range-separated hybrids, TD-DFT gradient, RPA, STAB
   Michael Roemelt        : Restricted open shell CIS
   Masaaki Saitow         : Open-shell DLPNO
   Barbara Sandhoefer     : DKH picture change effects
   Avijit Sen             : IP-ROCIS
   Kantharuban Sivalingam : CASSCF convergence, NEVPT2, FIC-MRCI
   Bernardo de Souza      : ESD, SOC TD-DFT
   Georgi Stoychev        : AutoAux, RI-MP2 NMR
   Willem Van den Heuvel  : Paramagnetic NMR
   Boris Wezisla          : Elementary symmetry handling
   Frank Wennmohs         : Technical directorship


 We gratefully acknowledge several colleagues who have allowed us to
 interface, adapt or use parts of their codes:
   Stefan Grimme, W. Hujo, H. Kruse,             : VdW corrections, initial TS optimization,
                  C. Bannwarth                     DFT functionals, gCP, sTDA/sTD-DF
   Ed Valeev                                     : LibInt (2-el integral package), F12 methods
   Garnet Chan, S. Sharma, J. Yang, R. Olivares  : DMRG
   Ulf Ekstrom                                   : XCFun DFT Library
   Mihaly Kallay                                 : mrcc  (arbitrary order and MRCC methods)
   Andreas Klamt, Michael Diedenhofen            : otool_cosmo (COSMO solvation model)
   Jiri Pittner, Ondrej Demel                    : Mk-CCSD
   Frank Weinhold                                : gennbo (NPA and NBO analysis)
   Christopher J. Cramer and Donald G. Truhlar   : smd solvation model
   Lars Goerigk                                  : TD-DFT with DH, B97 family of functionals
   V. Asgeirsson, H. Jonsson                     : NEB implementation
   FAccTs GmbH                                   : IRC, NEB, NEB-TS, Multilevel


 Your calculation uses the libint2 library for the computation of 2-el integrals
 For citations please refer to: http://libint.valeyev.net

 This ORCA versions uses:
   CBLAS   interface :  Fast vector & matrix operations
   LAPACKE interface :  Fast linear algebra routines
   SCALAPACK package :  Parallel linear algebra routines


----- Orbital basis set information -----
Your calculation utilizes the basis: aug-pc-4
   H, C-F              : F. Jensen, J. Chem. Phys. 115, 9113 (2001).
                         F. Jensen, J. Chem. Phys. 116, 7372 (2002).
                         F. Jensen, J. Chem. Phys. 117, 9234 (2002).
   Si-Cl               : F. Jensen, T. Helgaker, J. Chem. Phys. 121, 3463 (2004).
   He-B, Ne-Mg, Al, Ar : F. Jensen, J. Phys. Chem. A 111, 11198 (2007).
   K, Ca, Ga-Kr        : F. Jensen, J. Chem. Phys. 136, 094110 (2012).
   Sc-Zn               : F. Jensen, J. Chem. Phys. 138, 014107 (2013).

================================================================================
                                        WARNINGS
                       Please study these warnings very carefully!
================================================================================


INFO   : the flag for use of LIBINT has been found!

================================================================================
                                       INPUT FILE
================================================================================
NAME = h2o-li_pbe.inp
|  1> !uks pbe nori aug-pc-4 grid7 nofinalgrid verytightscf
|  2> 
|  3> %maxcore 1500
|  4> 
|  5> %pal nprocs 1 end
|  6> 
|  7> %scf
|  8> 	maxiter 200
|  9> end
| 10> %elprop
| 11> 	dipole true
| 12> 	 polar 1
| 13> 	 maxiter 200
| 14> end
| 15> 
| 16> * xyz 0 2
| 17> Li 0.000000 0.000000 0.000000
| 18> O 0.000000 0.000000 1.876166
| 19> H 0.835500 0.000000 2.357191
| 20> H -0.587326 0.594229 2.357191
| 21> *
| 22> 
| 23>                          ****END OF INPUT****
================================================================================

                       ****************************
                       * Single Point Calculation *
                       ****************************

---------------------------------
CARTESIAN COORDINATES (ANGSTROEM)
---------------------------------
  Li     0.000000    0.000000    0.000000
  O      0.000000    0.000000    1.876166
  H      0.835500    0.000000    2.357191
  H     -0.587326    0.594229    2.357191

----------------------------
CARTESIAN COORDINATES (A.U.)
----------------------------
  NO LB      ZA    FRAG     MASS         X           Y           Z
   0 Li    3.0000    0     6.941    0.000000    0.000000    0.000000
   1 O     8.0000    0    15.999    0.000000    0.000000    3.545440
   2 H     1.0000    0     1.008    1.578866    0.000000    4.454445
   3 H     1.0000    0     1.008   -1.109885    1.122930    4.454445

--------------------------------
INTERNAL COORDINATES (ANGSTROEM)
--------------------------------
 Li     0   0   0     0.000000000000     0.00000000     0.00000000
 O      1   0   0     1.876166000000     0.00000000     0.00000000
 H      2   1   0     0.964077434973   119.93045835     0.00000000
 H      2   1   3     0.964077271458   119.93046395   134.66526462

---------------------------
INTERNAL COORDINATES (A.U.)
---------------------------
 Li     0   0   0     0.000000000000     0.00000000     0.00000000
 O      1   0   0     3.545439921774     0.00000000     0.00000000
 H      2   1   0     1.821842323993   119.93045835     0.00000000
 H      2   1   3     1.821842014994   119.93046395   134.66526462

---------------------
BASIS SET INFORMATION
---------------------
There are 3 groups of distinct atoms

 Group   1 Type Li  : 31s9p4d3f2g contracted to 9s5p4d3f2g pattern {12121111111/51111/1111/111/11}
 Group   2 Type O   : 27s12p7d4f3g2h contracted to 9s8p7d4f3g2h pattern {1191111111/51111111/1111111/1111/111/11}
 Group   3 Type H   : 12s7p4d3f2g contracted to 8s7p4d3f2g pattern {51111111/1111111/1111/111/11}

Atom   0Li   basis set group =>   1
Atom   1O    basis set group =>   2
Atom   2H    basis set group =>   3
Atom   3H    basis set group =>   3
------------------------------------------------------------------------------
                           ORCA GTO INTEGRAL CALCULATION
------------------------------------------------------------------------------

                         BASIS SET STATISTICS AND STARTUP INFO

 # of primitive gaussian shells          ...  160
 # of primitive gaussian functions       ...  476
 # of contracted shells                  ...  104
 # of contracted basis functions         ...  404
 Highest angular momentum                ...    5
 Maximum contraction depth               ...   12
 Integral package used                   ... LIBINT
 Integral threshhold            Thresh   ...  1.000e-12
 Primitive cut-off              TCut     ...  1.000e-14


------------------------------ INTEGRAL EVALUATION ----------------------------


 * One electron integrals 
 Pre-screening matrix                    ... done
 Shell pair data                         ... done (   0.002 sec)

-------------------------------------------------------------------------------
                                 ORCA SCF
-------------------------------------------------------------------------------

------------
SCF SETTINGS
------------
Hamiltonian:
 Density Functional     Method          .... DFT(GTOs)
 Exchange Functional    Exchange        .... PBE
   PBE kappa parameter   XKappa         ....  0.804000
   PBE mue parameter    XMuePBE         ....  0.219520
 Correlation Functional Correlation     .... PBE
   PBE beta parameter  CBetaPBE         ....  0.066725
 LDA part of GGA corr.  LDAOpt          .... PW91-LDA
 Gradients option       PostSCFGGA      .... off
   Density functional embedding theory  .... OFF
   NL short-range parameter             ....  6.400000


General Settings:
 Integral files         IntName         .... h2o-li_pbe
 Hartree-Fock type      HFTyp           .... UHF
 Total Charge           Charge          ....    0
 Multiplicity           Mult            ....    2
 Number of Electrons    NEL             ....   13
 Basis Dimension        Dim             ....  404
 Nuclear Repulsion      ENuc            ....     17.1643476136 Eh

Convergence Acceleration:
 DIIS                   CNVDIIS         .... on
   Start iteration      DIISMaxIt       ....    12
   Startup error        DIISStart       ....  0.200000
   # of expansion vecs  DIISMaxEq       ....     5
   Bias factor          DIISBfac        ....   1.050
   Max. coefficient     DIISMaxC        ....  10.000
 Newton-Raphson         CNVNR           .... off
 SOSCF                  CNVSOSCF        .... off
 Level Shifting         CNVShift        .... on
   Level shift para.    LevelShift      ....    0.2500
   Turn off err/grad.   ShiftErr        ....    0.0010
 Zerner damping         CNVZerner       .... off
 Static damping         CNVDamp         .... on
   Fraction old density DampFac         ....    0.7000
   Max. Damping (<1)    DampMax         ....    0.9800
   Min. Damping (>=0)   DampMin         ....    0.0000
   Turn off err/grad.   DampErr         ....    0.1000
 Fernandez-Rico         CNVRico         .... off

SCF Procedure:
 Maximum # iterations   MaxIter         ....   200
 SCF integral mode      SCFMode         .... Direct
   Integral package                     .... LIBINT
 Reset frequency        DirectResetFreq ....    20
 Integral Threshold     Thresh          ....  1.000e-12 Eh
 Primitive CutOff       TCut            ....  1.000e-14 Eh

Convergence Tolerance:
 Convergence Check Mode ConvCheckMode   .... Total+1el-Energy
 Convergence forced     ConvForced      .... 0
 Energy Change          TolE            ....  1.000e-09 Eh
 1-El. energy change                    ....  1.000e-06 Eh
 DIIS Error             TolErr          ....  1.000e-08


Diagonalization of the overlap matrix:
Smallest eigenvalue                        ... 6.583e-07
Time for diagonalization                   ...    0.153 sec
Threshold for overlap eigenvalues          ... 1.000e-08
Number of eigenvalues below threshold      ... 0
Time for construction of square roots      ...    0.022 sec
Total time needed                          ...    0.176 sec

-------------------
DFT GRID GENERATION
-------------------

General Integration Accuracy     IntAcc      ...  5.670
Radial Grid Type                 RadialGrid  ... Gauss-Chebyshev
Angular Grid (max. acc.)         AngularGrid ... Lebedev-770
Angular grid pruning method      GridPruning ... 3 (G Style)
Weight generation scheme         WeightScheme... Becke
Basis function cutoff            BFCut       ...    1.0000e-12
Integration weight cutoff        WCut        ...    1.0000e-14
Grids for H and He will be reduced by one unit

# of grid points (after initial pruning)     ...  84780 (   0.0 sec)
# of grid points (after weights+screening)   ...  82927 (   0.0 sec)
nearest neighbour list constructed           ...    0.0 sec
Grid point re-assignment to atoms done       ...    0.0 sec
Grid point division into batches done        ...    1.6 sec
Reduced shell lists constructed in    2.7 sec

Total number of grid points                  ...    82927
Total number of batches                      ...     1298
Average number of points per batch           ...       63
Average number of grid points per atom       ...    20732
Average number of shells per batch           ...    77.86 (74.87%)
Average number of basis functions per batch  ...   306.47 (75.86%)
Average number of large shells per batch     ...    70.44 (90.47%)
Average number of large basis fcns per batch ...   278.40 (90.84%)
Maximum spatial batch extension              ...  32.58, 33.31, 28.04 au
Average spatial batch extension              ...   2.78,  2.81,  2.69 au

Time for grid setup =    2.744 sec

------------------------------
INITIAL GUESS: MODEL POTENTIAL
------------------------------
Loading Hartree-Fock densities                     ... done
Calculating cut-offs                               ... done
Setting up the integral package                    ... done
Initializing the effective Hamiltonian             ... done
Starting the Coulomb interaction                   ... done (   0.1 sec)
Reading the grid                                   ... done
Mapping shells                                     ... done
Starting the XC term evaluation                    ... done (   6.6 sec)
  promolecular density results
     # of electrons  =     12.999019110
     EX              =    -10.506516241
     EC              =     -0.379076294
     EX+EC           =    -10.885592535
Transforming the Hamiltonian                       ... done (   0.0 sec)
Diagonalizing the Hamiltonian                      ... done (   0.0 sec)
Back transforming the eigenvectors                 ... done (   0.0 sec)
Now organizing SCF variables                       ... done
                      ------------------
                      INITIAL GUESS DONE (   9.6 sec)
                      ------------------
--------------
SCF ITERATIONS
--------------
ITER       Energy         Delta-E        Max-DP      RMS-DP      [F,P]     Damp
               ***  Starting incremental Fock matrix formation  ***
  0    -83.7769203592   0.000000000000 0.03887178  0.00026055  0.3230897 0.7000
  1    -83.8277600136  -0.050839654394 0.03800227  0.00020617  0.0940277 0.7000
                               ***Turning on DIIS***
  2    -83.8399355057  -0.012175492079 0.08898112  0.00050298  0.0157560 0.0000
  3    -83.8698932997  -0.029957793964 0.01114836  0.00007863  0.0544090 0.0000
  4    -83.8730167490  -0.003123449289 0.01794459  0.00009960  0.0074284 0.0000
  5    -83.8731844643  -0.000167715364 0.01380576  0.00008536  0.0021379 0.0000
  6    -83.8732022762  -0.000017811915 0.01303669  0.00007508  0.0008861 0.0000
  7    -83.8732099534  -0.000007677187 0.00402567  0.00002298  0.0004273 0.0000
  8    -83.8732115232  -0.000001569737 0.00273342  0.00001499  0.0001529 0.0000
  9    -83.8732116557  -0.000000132575 0.00033256  0.00000207  0.0000563 0.0000
 10    -83.8732116621  -0.000000006413 0.00014087  0.00000078  0.0000153 0.0000
 11    -83.8732116646  -0.000000002493 0.00011856  0.00000051  0.0000016 0.0000
                 **** Energy Check signals convergence ****

               *****************************************************
               *                     SUCCESS                       *
               *           SCF CONVERGED AFTER  12 CYCLES          *
               *****************************************************


----------------
TOTAL SCF ENERGY
----------------

Total Energy       :          -83.87321166 Eh           -2282.30612 eV

Components:
Nuclear Repulsion  :           17.16434761 Eh             467.06564 eV
Electronic Energy  :         -101.03755928 Eh           -2749.37176 eV
One Electron Energy:         -148.16341246 Eh           -4031.73142 eV
Two Electron Energy:           47.12585318 Eh            1282.35966 eV

Virial components:
Potential Energy   :         -167.47652241 Eh           -4557.26786 eV
Kinetic Energy     :           83.60331075 Eh            2274.96174 eV
Virial Ratio       :            2.00322835


DFT components:
N(Alpha)           :        6.999997830671 electrons
N(Beta)            :        5.999997813104 electrons
N(Total)           :       12.999995643775 electrons
E(X)               :      -10.679495742014 Eh       
E(C)               :       -0.379443232418 Eh       
E(XC)              :      -11.058938974432 Eh       
DFET-embed. en.    :        0.000000000000 Eh       

---------------
SCF CONVERGENCE
---------------

  Last Energy change         ...   -6.7374e-11  Tolerance :   1.0000e-09
  Last MAX-Density change    ...    4.3776e-04  Tolerance :   1.0000e-08
  Last RMS-Density change    ...    2.1530e-06  Tolerance :   1.0000e-09
  Last DIIS Error            ...    4.0319e-07  Tolerance :   1.0000e-08

             **** THE GBW FILE WAS UPDATED (h2o-li_pbe.gbw) ****
             **** DENSITY FILE WAS UPDATED (h2o-li_pbe.scfp.tmp) ****
             **** ENERGY FILE WAS UPDATED (h2o-li_pbe.en.tmp) ****
----------------------
UHF SPIN CONTAMINATION
----------------------

Warning: in a DFT calculation there is little theoretical justification to 
         calculate <S**2> as in Hartree-Fock theory. We will do it anyways
         but you should keep in mind that the values have only limited relevance

Expectation value of <S**2>     :     0.750120
Ideal value S*(S+1) for S=0.5   :     0.750000
Deviation                       :     0.000120

----------------
ORBITAL ENERGIES
----------------
                 SPIN UP ORBITALS
  NO   OCC          E(Eh)            E(eV) 
   0   1.0000     -18.810364      -511.8560 
   1   1.0000      -1.870066       -50.8871 
   2   1.0000      -0.986487       -26.8437 
   3   1.0000      -0.541034       -14.7223 
   4   1.0000      -0.421472       -11.4688 
   5   1.0000      -0.331177        -9.0118 
   6   1.0000      -0.098747        -2.6870 
   7   0.0000      -0.058140        -1.5821 
   8   0.0000      -0.041853        -1.1389 
   9   0.0000      -0.032607        -0.8873 
  10   0.0000      -0.006776        -0.1844 
  11   0.0000      -0.003369        -0.0917 
  12   0.0000       0.005916         0.1610 
  13   0.0000       0.006994         0.1903 
  14   0.0000       0.008981         0.2444 
  15   0.0000       0.010280         0.2797 
  16   0.0000       0.017969         0.4890 
  17   0.0000       0.021812         0.5935 
  18   0.0000       0.022437         0.6106 
  19   0.0000       0.028854         0.7852 
  20   0.0000       0.036153         0.9838 
  21   0.0000       0.041210         1.1214 
  22   0.0000       0.045503         1.2382 
  23   0.0000       0.047453         1.2913 
  24   0.0000       0.049803         1.3552 
  25   0.0000       0.065032         1.7696 
  26   0.0000       0.068301         1.8586 
  27   0.0000       0.069066         1.8794 
  28   0.0000       0.073524         2.0007 
  29   0.0000       0.075472         2.0537 
  30   0.0000       0.077175         2.1000 
  31   0.0000       0.081023         2.2048 
  32   0.0000       0.094443         2.5699 
  33   0.0000       0.097631         2.6567 
  34   0.0000       0.098211         2.6725 
  35   0.0000       0.107112         2.9147 
  36   0.0000       0.108111         2.9419 
  37   0.0000       0.110927         3.0185 
  38   0.0000       0.111477         3.0334 
  39   0.0000       0.117123         3.1871 
  40   0.0000       0.121031         3.2934 
  41   0.0000       0.124561         3.3895 
  42   0.0000       0.131655         3.5825 
  43   0.0000       0.133040         3.6202 
  44   0.0000       0.136646         3.7183 
  45   0.0000       0.138952         3.7811 
  46   0.0000       0.139931         3.8077 
  47   0.0000       0.143130         3.8948 
  48   0.0000       0.143726         3.9110 
  49   0.0000       0.146252         3.9797 
  50   0.0000       0.172099         4.6830 
  51   0.0000       0.178173         4.8483 
  52   0.0000       0.179202         4.8763 
  53   0.0000       0.185757         5.0547 
  54   0.0000       0.192010         5.2248 
  55   0.0000       0.192391         5.2352 
  56   0.0000       0.195757         5.3268 
  57   0.0000       0.196599         5.3497 
  58   0.0000       0.213458         5.8085 
  59   0.0000       0.213686         5.8147 
  60   0.0000       0.231421         6.2973 
  61   0.0000       0.232041         6.3141 
  62   0.0000       0.243167         6.6169 
  63   0.0000       0.247130         6.7247 
  64   0.0000       0.248042         6.7496 
  65   0.0000       0.259292         7.0557 
  66   0.0000       0.261149         7.1062 
  67   0.0000       0.262732         7.1493 
  68   0.0000       0.272304         7.4098 
  69   0.0000       0.277914         7.5624 
  70   0.0000       0.287574         7.8253 
  71   0.0000       0.291183         7.9235 
  72   0.0000       0.296165         8.0590 
  73   0.0000       0.296322         8.0633 
  74   0.0000       0.302482         8.2310 
  75   0.0000       0.315943         8.5972 
  76   0.0000       0.321806         8.7568 
  77   0.0000       0.332200         9.0396 
  78   0.0000       0.351226         9.5573 
  79   0.0000       0.354829         9.6554 
  80   0.0000       0.369045        10.0422 
  81   0.0000       0.372044        10.1238 
  82   0.0000       0.384796        10.4708 
  83   0.0000       0.399493        10.8708 
  84   0.0000       0.406393        11.0585 
  85   0.0000       0.406578        11.0636 
  86   0.0000       0.420270        11.4361 
  87   0.0000       0.424062        11.5393 
  88   0.0000       0.430585        11.7168 
  89   0.0000       0.442141        12.0313 
  90   0.0000       0.446186        12.1413 
  91   0.0000       0.459080        12.4922 
  92   0.0000       0.468492        12.7483 
  93   0.0000       0.468924        12.7601 
  94   0.0000       0.473409        12.8821 
  95   0.0000       0.479235        13.0406 
  96   0.0000       0.489328        13.3153 
  97   0.0000       0.494551        13.4574 
  98   0.0000       0.506149        13.7730 
  99   0.0000       0.515616        14.0306 
 100   0.0000       0.524883        14.2828 
 101   0.0000       0.527028        14.3412 
 102   0.0000       0.529877        14.4187 
 103   0.0000       0.536118        14.5885 
 104   0.0000       0.544777        14.8241 
 105   0.0000       0.550570        14.9818 
 106   0.0000       0.556180        15.1344 
 107   0.0000       0.577392        15.7116 
 108   0.0000       0.577768        15.7219 
 109   0.0000       0.599637        16.3170 
 110   0.0000       0.603458        16.4209 
 111   0.0000       0.615039        16.7361 
 112   0.0000       0.626037        17.0353 
 113   0.0000       0.645348        17.5608 
 114   0.0000       0.656576        17.8663 
 115   0.0000       0.666085        18.1251 
 116   0.0000       0.666139        18.1266 
 117   0.0000       0.669592        18.2205 
 118   0.0000       0.673655        18.3311 
 119   0.0000       0.682496        18.5717 
 120   0.0000       0.686922        18.6921 
 121   0.0000       0.696063        18.9408 
 122   0.0000       0.710338        19.3293 
 123   0.0000       0.716284        19.4911 
 124   0.0000       0.734349        19.9827 
 125   0.0000       0.738075        20.0840 
 126   0.0000       0.743104        20.2209 
 127   0.0000       0.746684        20.3183 
 128   0.0000       0.764406        20.8005 
 129   0.0000       0.771175        20.9847 
 130   0.0000       0.775223        21.0949 
 131   0.0000       0.789358        21.4795 
 132   0.0000       0.807662        21.9776 
 133   0.0000       0.814964        22.1763 
 134   0.0000       0.828976        22.5576 
 135   0.0000       0.851148        23.1609 
 136   0.0000       0.858147        23.3514 
 137   0.0000       0.861989        23.4559 
 138   0.0000       0.883583        24.0435 
 139   0.0000       0.888146        24.1677 
 140   0.0000       0.906446        24.6657 
 141   0.0000       0.915253        24.9053 
 142   0.0000       0.919975        25.0338 
 143   0.0000       0.937096        25.4997 
 144   0.0000       0.953862        25.9559 
 145   0.0000       0.958974        26.0950 
 146   0.0000       0.970242        26.4016 
 147   0.0000       0.972199        26.4549 
 148   0.0000       0.981247        26.7011 
 149   0.0000       0.991977        26.9931 
 150   0.0000       1.023057        27.8388 
 151   0.0000       1.023748        27.8576 
 152   0.0000       1.037668        28.2364 
 153   0.0000       1.047266        28.4976 
 154   0.0000       1.050095        28.5745 
 155   0.0000       1.052876        28.6502 
 156   0.0000       1.071938        29.1689 
 157   0.0000       1.091572        29.7032 
 158   0.0000       1.103826        30.0366 
 159   0.0000       1.115517        30.3548 
 160   0.0000       1.120114        30.4799 
 161   0.0000       1.146714        31.2037 
 162   0.0000       1.152031        31.3484 
 163   0.0000       1.154718        31.4215 
 164   0.0000       1.161536        31.6070 
 165   0.0000       1.205230        32.7960 
 166   0.0000       1.230375        33.4802 
 167   0.0000       1.241628        33.7864 
 168   0.0000       1.290617        35.1195 
 169   0.0000       1.324861        36.0513 
 170   0.0000       1.417955        38.5845 
 171   0.0000       1.422198        38.7000 
 172   0.0000       1.447153        39.3790 
 173   0.0000       1.457878        39.6709 
 174   0.0000       1.487249        40.4701 
 175   0.0000       1.520715        41.3808 
 176   0.0000       1.568349        42.6769 
 177   0.0000       1.588608        43.2282 
 178   0.0000       1.628640        44.3176 
 179   0.0000       1.637172        44.5497 
 180   0.0000       1.651946        44.9517 
 181   0.0000       1.665727        45.3267 
 182   0.0000       1.684745        45.8442 
 183   0.0000       1.709402        46.5152 
 184   0.0000       1.739395        47.3313 
 185   0.0000       1.758353        47.8472 
 186   0.0000       1.778735        48.4018 
 187   0.0000       1.783549        48.5328 
 188   0.0000       1.843221        50.1566 
 189   0.0000       1.864591        50.7381 
 190   0.0000       1.886761        51.3414 
 191   0.0000       1.889563        51.4176 
 192   0.0000       1.922402        52.3112 
 193   0.0000       2.014425        54.8153 
 194   0.0000       2.047952        55.7276 
 195   0.0000       2.091426        56.9106 
 196   0.0000       2.133303        58.0501 
 197   0.0000       2.146112        58.3987 
 198   0.0000       2.259372        61.4806 
 199   0.0000       2.293936        62.4212 
 200   0.0000       2.300504        62.5999 
 201   0.0000       2.399571        65.2956 
 202   0.0000       2.400039        65.3084 
 203   0.0000       2.428317        66.0779 
 204   0.0000       2.454129        66.7802 
 205   0.0000       2.514794        68.4310 
 206   0.0000       2.554942        69.5235 
 207   0.0000       2.580462        70.2179 
 208   0.0000       2.639898        71.8353 
 209   0.0000       2.651794        72.1590 
 210   0.0000       2.721665        74.0603 
 211   0.0000       2.743824        74.6632 
 212   0.0000       2.773064        75.4589 
 213   0.0000       2.783122        75.7326 
 214   0.0000       2.850261        77.5596 
 215   0.0000       2.870539        78.1113 
 216   0.0000       2.921038        79.4855 
 217   0.0000       2.939440        79.9862 
 218   0.0000       2.993562        81.4590 
 219   0.0000       3.038035        82.6691 
 220   0.0000       3.046049        82.8872 
 221   0.0000       3.110513        84.6414 
 222   0.0000       3.177455        86.4629 
 223   0.0000       3.240394        88.1756 
 224   0.0000       3.322375        90.4064 
 225   0.0000       3.336159        90.7815 
 226   0.0000       3.399528        92.5059 
 227   0.0000       3.426192        93.2314 
 228   0.0000       3.428141        93.2845 
 229   0.0000       3.455721        94.0349 
 230   0.0000       3.470702        94.4426 
 231   0.0000       3.550971        96.6268 
 232   0.0000       3.584057        97.5271 
 233   0.0000       3.590039        97.6899 
 234   0.0000       3.638806        99.0169 
 235   0.0000       3.730216       101.5043 
 236   0.0000       3.737186       101.6940 
 237   0.0000       3.769212       102.5655 
 238   0.0000       3.809485       103.6613 
 239   0.0000       3.844110       104.6036 
 240   0.0000       3.926935       106.8573 
 241   0.0000       3.988502       108.5327 
 242   0.0000       4.019975       109.3891 
 243   0.0000       4.161645       113.2441 
 244   0.0000       4.184200       113.8579 
 245   0.0000       4.225261       114.9752 
 246   0.0000       4.333319       117.9156 
 247   0.0000       4.356640       118.5502 
 248   0.0000       4.379960       119.1848 
 249   0.0000       4.504440       122.5720 
 250   0.0000       4.552346       123.8756 
 251   0.0000       4.573973       124.4641 
 252   0.0000       4.675545       127.2281 
 253   0.0000       4.703383       127.9856 
 254   0.0000       4.799803       130.6093 
 255   0.0000       4.824091       131.2702 
 256   0.0000       4.988748       135.7507 
 257   0.0000       5.006851       136.2434 
 258   0.0000       5.235490       142.4649 
 259   0.0000       5.366676       146.0347 
 260   0.0000       5.400365       146.9514 
 261   0.0000       5.404385       147.0608 
 262   0.0000       5.425692       147.6406 
 263   0.0000       5.467066       148.7664 
 264   0.0000       5.537281       150.6771 
 265   0.0000       5.600744       152.4040 
 266   0.0000       5.618091       152.8760 
 267   0.0000       5.711713       155.4236 
 268   0.0000       5.783117       157.3666 
 269   0.0000       5.899887       160.5441 
 270   0.0000       6.041484       164.3971 
 271   0.0000       6.043524       164.4526 
 272   0.0000       6.154543       167.4736 
 273   0.0000       6.210027       168.9834 
 274   0.0000       6.358711       173.0293 
 275   0.0000       6.416931       174.6136 
 276   0.0000       6.769396       184.2046 
 277   0.0000       6.860746       186.6904 
 278   0.0000       6.937518       188.7795 
 279   0.0000       7.123691       193.8455 
 280   0.0000       7.257194       197.4783 
 281   0.0000       7.360305       200.2841 
 282   0.0000       7.361887       200.3271 
 283   0.0000       7.409110       201.6121 
 284   0.0000       7.522828       204.7066 
 285   0.0000       7.550304       205.4542 
 286   0.0000       7.682687       209.0565 
 287   0.0000       7.884268       214.5418 
 288   0.0000       8.504435       231.4174 
 289   0.0000       8.507956       231.5133 
 290   0.0000       8.717327       237.2105 
 291   0.0000       8.810468       239.7450 
 292   0.0000       8.936489       243.1742 
 293   0.0000       9.038904       245.9611 
 294   0.0000       9.046021       246.1548 
 295   0.0000       9.147525       248.9168 
 296   0.0000       9.290459       252.8062 
 297   0.0000       9.374791       255.1010 
 298   0.0000       9.479591       257.9528 
 299   0.0000       9.702014       264.0052 
 300   0.0000       9.726167       264.6625 
 301   0.0000      10.197327       277.4834 
 302   0.0000      10.217790       278.0402 
 303   0.0000      10.388476       282.6848 
 304   0.0000      10.595414       288.3159 
 305   0.0000      10.617211       288.9090 
 306   0.0000      10.659896       290.0705 
 307   0.0000      10.875976       295.9503 
 308   0.0000      11.198181       304.7180 
 309   0.0000      11.354392       308.9687 
 310   0.0000      11.445300       311.4424 
 311   0.0000      11.485757       312.5433 
 312   0.0000      11.725520       319.0676 
 313   0.0000      11.791840       320.8723 
 314   0.0000      11.917498       324.2916 
 315   0.0000      11.956218       325.3452 
 316   0.0000      12.042897       327.7039 
 317   0.0000      12.045017       327.7616 
 318   0.0000      12.077413       328.6431 
 319   0.0000      12.173490       331.2575 
 320   0.0000      12.337769       335.7278 
 321   0.0000      12.382103       336.9341 
 322   0.0000      12.546400       341.4049 
 323   0.0000      12.562404       341.8404 
 324   0.0000      12.596058       342.7562 
 325   0.0000      12.601420       342.9021 
 326   0.0000      12.715485       346.0059 
 327   0.0000      12.808881       348.5474 
 328   0.0000      12.908473       351.2574 
 329   0.0000      13.044246       354.9520 
 330   0.0000      13.355248       363.4148 
 331   0.0000      13.572446       369.3250 
 332   0.0000      13.723117       373.4250 
 333   0.0000      13.821712       376.1079 
 334   0.0000      13.879342       377.6761 
 335   0.0000      14.128091       384.4449 
 336   0.0000      14.153468       385.1354 
 337   0.0000      14.169809       385.5801 
 338   0.0000      14.574112       396.5818 
 339   0.0000      14.761803       401.6891 
 340   0.0000      15.329910       417.1481 
 341   0.0000      15.663123       426.2152 
 342   0.0000      16.353284       444.9955 
 343   0.0000      16.619690       452.2447 
 344   0.0000      16.681389       453.9237 
 345   0.0000      16.738586       455.4801 
 346   0.0000      16.741864       455.5693 
 347   0.0000      16.790032       456.8800 
 348   0.0000      16.835537       458.1182 
 349   0.0000      17.081891       464.8219 
 350   0.0000      17.224252       468.6957 
 351   0.0000      17.293612       470.5831 
 352   0.0000      17.323659       471.4007 
 353   0.0000      17.399759       473.4715 
 354   0.0000      17.548926       477.5305 
 355   0.0000      17.609331       479.1742 
 356   0.0000      17.708755       481.8797 
 357   0.0000      17.722488       482.2534 
 358   0.0000      17.827337       485.1065 
 359   0.0000      17.894922       486.9456 
 360   0.0000      17.923071       487.7116 
 361   0.0000      18.293150       497.7819 
 362   0.0000      18.418965       501.2055 
 363   0.0000      18.842946       512.7426 
 364   0.0000      19.188779       522.1532 
 365   0.0000      19.467402       529.7349 
 366   0.0000      19.540985       531.7372 
 367   0.0000      20.190925       549.4230 
 368   0.0000      20.432658       556.0009 
 369   0.0000      20.619958       561.0976 
 370   0.0000      20.810803       566.2908 
 371   0.0000      20.851453       567.3969 
 372   0.0000      21.145979       575.4113 
 373   0.0000      21.564975       586.8128 
 374   0.0000      21.874861       595.2452 
 375   0.0000      23.619932       642.7310 
 376   0.0000      23.625185       642.8740 
 377   0.0000      23.698148       644.8594 
 378   0.0000      23.860479       649.2766 
 379   0.0000      23.926925       651.0847 
 380   0.0000      23.948096       651.6608 
 381   0.0000      24.232728       659.4060 
 382   0.0000      26.235104       713.8935 
 383   0.0000      26.974716       734.0194 
 384   0.0000      27.015958       735.1416 
 385   0.0000      28.065429       763.6992 
 386   0.0000      31.145032       847.4994 
 387   0.0000      32.330284       879.7518 
 388   0.0000      34.029382       925.9866 
 389   0.0000      34.665639       943.3000 
 390   0.0000      41.307338      1124.0298 
 391   0.0000      41.367714      1125.6727 
 392   0.0000      66.899575      1820.4300 
 393   0.0000      67.002055      1823.2186 
 394   0.0000      67.107955      1826.1003 
 395   0.0000      68.107042      1853.2868 
 396   0.0000      69.287859      1885.4185 
 397   0.0000      90.999244      2476.2153 
 398   0.0000      91.011601      2476.5516 
 399   0.0000      91.119347      2479.4835 
 400   0.0000      91.293185      2484.2139 
 401   0.0000      93.472615      2543.5192 
 402   0.0000      93.576568      2546.3479 
 403   0.0000     144.221392      3924.4636 

                 SPIN DOWN ORBITALS
  NO   OCC          E(Eh)            E(eV) 
   0   1.0000     -18.809684      -511.8375 
   1   1.0000      -1.864845       -50.7450 
   2   1.0000      -0.984756       -26.7966 
   3   1.0000      -0.538409       -14.6508 
   4   1.0000      -0.419708       -11.4208 
   5   1.0000      -0.329377        -8.9628 
   6   0.0000      -0.062104        -1.6899 
   7   0.0000      -0.006202        -0.1688 
   8   0.0000      -0.002768        -0.0753 
   9   0.0000       0.005130         0.1396 
  10   0.0000       0.010321         0.2809 
  11   0.0000       0.019987         0.5439 
  12   0.0000       0.023158         0.6302 
  13   0.0000       0.027616         0.7515 
  14   0.0000       0.028182         0.7669 
  15   0.0000       0.043068         1.1719 
  16   0.0000       0.044082         1.1995 
  17   0.0000       0.050176         1.3654 
  18   0.0000       0.050407         1.3716 
  19   0.0000       0.054364         1.4793 
  20   0.0000       0.055230         1.5029 
  21   0.0000       0.064257         1.7485 
  22   0.0000       0.075001         2.0409 
  23   0.0000       0.076026         2.0688 
  24   0.0000       0.078209         2.1282 
  25   0.0000       0.098237         2.6732 
  26   0.0000       0.101438         2.7603 
  27   0.0000       0.102070         2.7775 
  28   0.0000       0.106906         2.9091 
  29   0.0000       0.110350         3.0028 
  30   0.0000       0.112904         3.0723 
  31   0.0000       0.114871         3.1258 
  32   0.0000       0.117358         3.1935 
  33   0.0000       0.128079         3.4852 
  34   0.0000       0.134674         3.6647 
  35   0.0000       0.134939         3.6719 
  36   0.0000       0.135244         3.6802 
  37   0.0000       0.146562         3.9882 
  38   0.0000       0.146988         3.9998 
  39   0.0000       0.159895         4.3510 
  40   0.0000       0.165195         4.4952 
  41   0.0000       0.166347         4.5265 
  42   0.0000       0.172766         4.7012 
  43   0.0000       0.172819         4.7026 
  44   0.0000       0.176696         4.8081 
  45   0.0000       0.177418         4.8278 
  46   0.0000       0.180085         4.9004 
  47   0.0000       0.182664         4.9705 
  48   0.0000       0.183199         4.9851 
  49   0.0000       0.185264         5.0413 
  50   0.0000       0.209796         5.7088 
  51   0.0000       0.218594         5.9482 
  52   0.0000       0.220545         6.0013 
  53   0.0000       0.226393         6.1605 
  54   0.0000       0.227381         6.1873 
  55   0.0000       0.229898         6.2559 
  56   0.0000       0.230817         6.2808 
  57   0.0000       0.235394         6.4054 
  58   0.0000       0.247559         6.7364 
  59   0.0000       0.248148         6.7524 
  60   0.0000       0.264443         7.1959 
  61   0.0000       0.267737         7.2855 
  62   0.0000       0.271572         7.3898 
  63   0.0000       0.278574         7.5804 
  64   0.0000       0.288150         7.8410 
  65   0.0000       0.288515         7.8509 
  66   0.0000       0.293324         7.9818 
  67   0.0000       0.295323         8.0361 
  68   0.0000       0.313832         8.5398 
  69   0.0000       0.315998         8.5987 
  70   0.0000       0.327643         8.9156 
  71   0.0000       0.331295         9.0150 
  72   0.0000       0.332536         9.0488 
  73   0.0000       0.334960         9.1147 
  74   0.0000       0.343928         9.3588 
  75   0.0000       0.349138         9.5005 
  76   0.0000       0.371846        10.1185 
  77   0.0000       0.376987        10.2583 
  78   0.0000       0.393506        10.7079 
  79   0.0000       0.400595        10.9007 
  80   0.0000       0.410659        11.1746 
  81   0.0000       0.420186        11.4338 
  82   0.0000       0.421263        11.4632 
  83   0.0000       0.430167        11.7054 
  84   0.0000       0.436554        11.8792 
  85   0.0000       0.442031        12.0283 
  86   0.0000       0.450849        12.2682 
  87   0.0000       0.454728        12.3738 
  88   0.0000       0.467922        12.7328 
  89   0.0000       0.485073        13.1995 
  90   0.0000       0.486997        13.2518 
  91   0.0000       0.496694        13.5157 
  92   0.0000       0.501337        13.6421 
  93   0.0000       0.505009        13.7420 
  94   0.0000       0.509239        13.8571 
  95   0.0000       0.509786        13.8720 
  96   0.0000       0.518257        14.1025 
  97   0.0000       0.530060        14.4237 
  98   0.0000       0.534056        14.5324 
  99   0.0000       0.542777        14.7697 
 100   0.0000       0.554987        15.1020 
 101   0.0000       0.560550        15.2533 
 102   0.0000       0.561912        15.2904 
 103   0.0000       0.571189        15.5429 
 104   0.0000       0.582421        15.8485 
 105   0.0000       0.589537        16.0421 
 106   0.0000       0.597770        16.2662 
 107   0.0000       0.608498        16.5581 
 108   0.0000       0.614838        16.7306 
 109   0.0000       0.636030        17.3073 
 110   0.0000       0.637225        17.3398 
 111   0.0000       0.638250        17.3677 
 112   0.0000       0.664320        18.0771 
 113   0.0000       0.681557        18.5461 
 114   0.0000       0.687903        18.7188 
 115   0.0000       0.695820        18.9342 
 116   0.0000       0.697007        18.9665 
 117   0.0000       0.704299        19.1650 
 118   0.0000       0.709523        19.3071 
 119   0.0000       0.713348        19.4112 
 120   0.0000       0.713721        19.4213 
 121   0.0000       0.728335        19.8190 
 122   0.0000       0.742961        20.2170 
 123   0.0000       0.746917        20.3247 
 124   0.0000       0.766361        20.8537 
 125   0.0000       0.767660        20.8891 
 126   0.0000       0.771036        20.9809 
 127   0.0000       0.789023        21.4704 
 128   0.0000       0.793130        21.5822 
 129   0.0000       0.797928        21.7127 
 130   0.0000       0.817069        22.2336 
 131   0.0000       0.822285        22.3755 
 132   0.0000       0.836165        22.7532 
 133   0.0000       0.836823        22.7711 
 134   0.0000       0.853649        23.2290 
 135   0.0000       0.878638        23.9089 
 136   0.0000       0.884144        24.0588 
 137   0.0000       0.893654        24.3176 
 138   0.0000       0.909046        24.7364 
 139   0.0000       0.923383        25.1265 
 140   0.0000       0.930939        25.3321 
 141   0.0000       0.937688        25.5158 
 142   0.0000       0.945620        25.7316 
 143   0.0000       0.966540        26.3009 
 144   0.0000       0.986751        26.8509 
 145   0.0000       0.987036        26.8586 
 146   0.0000       0.996771        27.1235 
 147   0.0000       0.997652        27.1475 
 148   0.0000       1.008576        27.4447 
 149   0.0000       1.022200        27.8155 
 150   0.0000       1.040596        28.3161 
 151   0.0000       1.042887        28.3784 
 152   0.0000       1.056257        28.7422 
 153   0.0000       1.070859        29.1396 
 154   0.0000       1.072093        29.1731 
 155   0.0000       1.086008        29.5518 
 156   0.0000       1.095692        29.8153 
 157   0.0000       1.125072        30.6148 
 158   0.0000       1.125385        30.6233 
 159   0.0000       1.147213        31.2172 
 160   0.0000       1.161014        31.5928 
 161   0.0000       1.182989        32.1908 
 162   0.0000       1.184291        32.2262 
 163   0.0000       1.198994        32.6263 
 164   0.0000       1.211916        32.9779 
 165   0.0000       1.226590        33.3772 
 166   0.0000       1.267481        34.4899 
 167   0.0000       1.284216        34.9453 
 168   0.0000       1.312667        35.7195 
 169   0.0000       1.345059        36.6009 
 170   0.0000       1.437684        39.1214 
 171   0.0000       1.441997        39.2387 
 172   0.0000       1.465307        39.8730 
 173   0.0000       1.478470        40.2312 
 174   0.0000       1.503264        40.9059 
 175   0.0000       1.538069        41.8530 
 176   0.0000       1.588336        43.2208 
 177   0.0000       1.605876        43.6981 
 178   0.0000       1.652019        44.9537 
 179   0.0000       1.654082        45.0098 
 180   0.0000       1.665632        45.3242 
 181   0.0000       1.682561        45.7848 
 182   0.0000       1.707867        46.4734 
 183   0.0000       1.724290        46.9203 
 184   0.0000       1.753987        47.7284 
 185   0.0000       1.777357        48.3643 
 186   0.0000       1.793701        48.8091 
 187   0.0000       1.804835        49.1121 
 188   0.0000       1.859013        50.5863 
 189   0.0000       1.880089        51.1598 
 190   0.0000       1.899842        51.6973 
 191   0.0000       1.901027        51.7296 
 192   0.0000       1.953430        53.1555 
 193   0.0000       2.034272        55.3554 
 194   0.0000       2.062267        56.1171 
 195   0.0000       2.102006        57.1985 
 196   0.0000       2.141195        58.2649 
 197   0.0000       2.157319        58.7036 
 198   0.0000       2.270639        61.7872 
 199   0.0000       2.302516        62.6546 
 200   0.0000       2.324869        63.2629 
 201   0.0000       2.407940        65.5234 
 202   0.0000       2.408329        65.5340 
 203   0.0000       2.441926        66.4482 
 204   0.0000       2.467301        67.1387 
 205   0.0000       2.526110        68.7389 
 206   0.0000       2.568708        69.8981 
 207   0.0000       2.595470        70.6263 
 208   0.0000       2.653524        72.2061 
 209   0.0000       2.661787        72.4309 
 210   0.0000       2.735069        74.4250 
 211   0.0000       2.756429        75.0062 
 212   0.0000       2.782433        75.7139 
 213   0.0000       2.793080        76.0036 
 214   0.0000       2.863548        77.9211 
 215   0.0000       2.885361        78.5147 
 216   0.0000       2.935483        79.8786 
 217   0.0000       2.952503        80.3417 
 218   0.0000       3.006178        81.8023 
 219   0.0000       3.048901        82.9648 
 220   0.0000       3.057125        83.1886 
 221   0.0000       3.125088        85.0380 
 222   0.0000       3.191568        86.8470 
 223   0.0000       3.251612        88.4809 
 224   0.0000       3.333122        90.6989 
 225   0.0000       3.345311        91.0305 
 226   0.0000       3.407814        92.7313 
 227   0.0000       3.434671        93.4621 
 228   0.0000       3.437351        93.5351 
 229   0.0000       3.464761        94.2809 
 230   0.0000       3.481609        94.7394 
 231   0.0000       3.557684        96.8095 
 232   0.0000       3.594695        97.8166 
 233   0.0000       3.600953        97.9869 
 234   0.0000       3.648671        99.2854 
 235   0.0000       3.737660       101.7069 
 236   0.0000       3.745460       101.9191 
 237   0.0000       3.778700       102.8237 
 238   0.0000       3.817361       103.8757 
 239   0.0000       3.854183       104.8777 
 240   0.0000       3.934990       107.0765 
 241   0.0000       3.996505       108.7504 
 242   0.0000       4.030774       109.6829 
 243   0.0000       4.169698       113.4633 
 244   0.0000       4.193176       114.1021 
 245   0.0000       4.231927       115.1566 
 246   0.0000       4.342271       118.1592 
 247   0.0000       4.362337       118.7052 
 248   0.0000       4.387248       119.3831 
 249   0.0000       4.511865       122.7741 
 250   0.0000       4.559230       124.0629 
 251   0.0000       4.582699       124.7016 
 252   0.0000       4.681614       127.3932 
 253   0.0000       4.712201       128.2255 
 254   0.0000       4.806993       130.8049 
 255   0.0000       4.831042       131.4593 
 256   0.0000       4.995351       135.9304 
 257   0.0000       5.014456       136.4503 
 258   0.0000       5.243370       142.6794 
 259   0.0000       5.373431       146.2185 
 260   0.0000       5.408164       147.1636 
 261   0.0000       5.412274       147.2755 
 262   0.0000       5.433197       147.8448 
 263   0.0000       5.474895       148.9795 
 264   0.0000       5.545366       150.8971 
 265   0.0000       5.606774       152.5681 
 266   0.0000       5.622907       153.0071 
 267   0.0000       5.720062       155.6508 
 268   0.0000       5.792625       157.6253 
 269   0.0000       5.905922       160.7083 
 270   0.0000       6.048751       164.5949 
 271   0.0000       6.050696       164.6478 
 272   0.0000       6.162842       167.6994 
 273   0.0000       6.214832       169.1142 
 274   0.0000       6.363035       173.1470 
 275   0.0000       6.422519       174.7656 
 276   0.0000       6.773805       184.3246 
 277   0.0000       6.866839       186.8562 
 278   0.0000       6.944589       188.9719 
 279   0.0000       7.126050       193.9097 
 280   0.0000       7.260609       197.5712 
 281   0.0000       7.363096       200.3600 
 282   0.0000       7.364698       200.4036 
 283   0.0000       7.411552       201.6786 
 284   0.0000       7.526026       204.7936 
 285   0.0000       7.553418       205.5389 
 286   0.0000       7.686528       209.1611 
 287   0.0000       7.888756       214.6640 
 288   0.0000       8.508998       231.5416 
 289   0.0000       8.512703       231.6424 
 290   0.0000       8.723206       237.3705 
 291   0.0000       8.814617       239.8579 
 292   0.0000       8.941392       243.3077 
 293   0.0000       9.043444       246.0846 
 294   0.0000       9.050303       246.2713 
 295   0.0000       9.152517       249.0527 
 296   0.0000       9.295878       252.9537 
 297   0.0000       9.379230       255.2218 
 298   0.0000       9.483892       258.0698 
 299   0.0000       9.706709       264.1330 
 300   0.0000       9.729543       264.7543 
 301   0.0000      10.202034       277.6115 
 302   0.0000      10.222460       278.1673 
 303   0.0000      10.392888       282.8048 
 304   0.0000      10.600408       288.4518 
 305   0.0000      10.622389       289.0499 
 306   0.0000      10.664002       290.1822 
 307   0.0000      10.886916       296.2480 
 308   0.0000      11.200155       304.7717 
 309   0.0000      11.359182       309.0991 
 310   0.0000      11.448213       311.5217 
 311   0.0000      11.489912       312.6564 
 312   0.0000      11.728897       319.1595 
 313   0.0000      11.793470       320.9166 
 314   0.0000      11.919541       324.3472 
 315   0.0000      11.958969       325.4201 
 316   0.0000      12.046060       327.7900 
 317   0.0000      12.048657       327.8606 
 318   0.0000      12.080433       328.7253 
 319   0.0000      12.177423       331.3645 
 320   0.0000      12.341165       335.8202 
 321   0.0000      12.385721       337.0326 
 322   0.0000      12.550293       341.5108 
 323   0.0000      12.565005       341.9112 
 324   0.0000      12.599555       342.8513 
 325   0.0000      12.605338       343.0087 
 326   0.0000      12.719242       346.1082 
 327   0.0000      12.812260       348.6393 
 328   0.0000      12.912471       351.3662 
 329   0.0000      13.046800       355.0215 
 330   0.0000      13.361044       363.5725 
 331   0.0000      13.577175       369.4537 
 332   0.0000      13.727247       373.5374 
 333   0.0000      13.826091       376.2271 
 334   0.0000      13.883534       377.7902 
 335   0.0000      14.132874       384.5751 
 336   0.0000      14.157520       385.2457 
 337   0.0000      14.174107       385.6970 
 338   0.0000      14.579176       396.7195 
 339   0.0000      14.765615       401.7928 
 340   0.0000      15.334480       417.2724 
 341   0.0000      15.666546       426.3084 
 342   0.0000      16.356995       445.0965 
 343   0.0000      16.623489       452.3481 
 344   0.0000      16.685671       454.0402 
 345   0.0000      16.742767       455.5939 
 346   0.0000      16.745990       455.6816 
 347   0.0000      16.794486       457.0012 
 348   0.0000      16.838611       458.2019 
 349   0.0000      17.084468       464.8920 
 350   0.0000      17.227249       468.7773 
 351   0.0000      17.298245       470.7092 
 352   0.0000      17.328088       471.5213 
 353   0.0000      17.403742       473.5799 
 354   0.0000      17.551204       477.5925 
 355   0.0000      17.612154       479.2511 
 356   0.0000      17.711495       481.9543 
 357   0.0000      17.725324       482.3306 
 358   0.0000      17.831556       485.2213 
 359   0.0000      17.897249       487.0089 
 360   0.0000      17.924720       487.7564 
 361   0.0000      18.297142       497.8905 
 362   0.0000      18.421878       501.2848 
 363   0.0000      18.846384       512.8362 
 364   0.0000      19.191811       522.2357 
 365   0.0000      19.471815       529.8550 
 366   0.0000      19.545346       531.8559 
 367   0.0000      20.195250       549.5407 
 368   0.0000      20.436571       556.1074 
 369   0.0000      20.623641       561.1978 
 370   0.0000      20.813980       566.3772 
 371   0.0000      20.854826       567.4887 
 372   0.0000      21.149296       575.5016 
 373   0.0000      21.568329       586.9041 
 374   0.0000      21.878658       595.3485 
 375   0.0000      23.621424       642.7716 
 376   0.0000      23.628035       642.9515 
 377   0.0000      23.701254       644.9439 
 378   0.0000      23.863110       649.3482 
 379   0.0000      23.929117       651.1444 
 380   0.0000      23.949378       651.6957 
 381   0.0000      24.235799       659.4896 
 382   0.0000      26.236347       713.9273 
 383   0.0000      26.977260       734.0886 
 384   0.0000      27.019245       735.2310 
 385   0.0000      28.066972       763.7411 
 386   0.0000      31.145943       847.5242 
 387   0.0000      32.331731       879.7911 
 388   0.0000      34.031001       926.0306 
 389   0.0000      34.666739       943.3299 
 390   0.0000      41.311196      1124.1348 
 391   0.0000      41.371564      1125.7775 
 392   0.0000      66.900274      1820.4490 
 393   0.0000      67.002416      1823.2284 
 394   0.0000      67.108494      1826.1150 
 395   0.0000      68.107370      1853.2957 
 396   0.0000      69.288250      1885.4291 
 397   0.0000      91.002109      2476.2933 
 398   0.0000      91.014470      2476.6296 
 399   0.0000      91.122258      2479.5627 
 400   0.0000      91.296090      2484.2929 
 401   0.0000      93.475541      2543.5988 
 402   0.0000      93.579507      2546.4278 
 403   0.0000     144.222773      3924.5012 

                    ********************************
                    * MULLIKEN POPULATION ANALYSIS *
                    ********************************

--------------------------------------------
MULLIKEN ATOMIC CHARGES AND SPIN POPULATIONS
--------------------------------------------
   0 Li:   -0.175288    0.906810
   1 O :   -0.015606   -0.174111
   2 H :    0.095434    0.133659
   3 H :    0.095461    0.133642
Sum of atomic charges         :    0.0000000
Sum of atomic spin populations:    1.0000000

-----------------------------------------------------
MULLIKEN REDUCED ORBITAL CHARGES AND SPIN POPULATIONS
-----------------------------------------------------
CHARGE
  0 Lis       :     2.993819  s :     2.993819
      pz      :     0.130615  p :     0.150146
      px      :     0.005927
      py      :     0.013604
      dz2     :     0.015737  d :     0.026103
      dxz     :     0.003694
      dyz     :     0.006297
      dx2y2   :     0.000185
      dxy     :     0.000189
      f0      :     0.002477  f :     0.004704
      f+1     :     0.000920
      f-1     :     0.001262
      f+2     :     0.000021
      f-2     :     0.000021
      f+3     :     0.000002
      f-3     :     0.000001
      g0      :     0.000340  g :     0.000517
      g+1     :     0.000072
      g-1     :     0.000104
      g+2     :    -0.000000
      g-2     :    -0.000000
      g+3     :     0.000001
      g-3     :     0.000000
      g+4     :    -0.000000
      g-4     :    -0.000000
  1 O s       :     3.491538  s :     3.491538
      pz      :     1.487216  p :     4.506479
      px      :     1.326765
      py      :     1.692498
      dz2     :     0.007455  d :     0.014302
      dxz     :     0.003137
      dyz     :     0.001569
      dx2y2   :     0.001082
      dxy     :     0.001060
      f0      :     0.001820  f :     0.003093
      f+1     :     0.000087
      f-1     :     0.000165
      f+2     :     0.000228
      f-2     :     0.000230
      f+3     :     0.000395
      f-3     :     0.000169
      g0      :     0.000041  g :     0.000133
      g+1     :     0.000002
      g-1     :    -0.000010
      g+2     :     0.000004
      g-2     :     0.000004
      g+3     :     0.000046
      g-3     :     0.000014
      g+4     :     0.000027
      g-4     :     0.000006
      h0      :     0.000050  h :     0.000060
      h+1     :     0.000003
      h-1     :    -0.000005
      h+2     :     0.000000
      h-2     :    -0.000000
      h+3     :     0.000003
      h-3     :     0.000001
      h+4     :     0.000005
      h-4     :     0.000000
      h+5     :     0.000002
      h-5     :     0.000001
  2 H s       :     0.831976  s :     0.831976
      pz      :     0.015039  p :     0.069517
      px      :     0.019817
      py      :     0.034661
      dz2     :     0.000649  d :     0.004294
      dxz     :     0.001891
      dyz     :     0.000484
      dx2y2   :     0.000143
      dxy     :     0.001126
      f0      :    -0.000430  f :    -0.000983
      f+1     :     0.000193
      f-1     :     0.000065
      f+2     :    -0.000051
      f-2     :    -0.000069
      f+3     :    -0.000472
      f-3     :    -0.000219
      g0      :    -0.000004  g :    -0.000238
      g+1     :    -0.000115
      g-1     :    -0.000001
      g+2     :     0.000034
      g-2     :     0.000019
      g+3     :    -0.000053
      g-3     :    -0.000032
      g+4     :    -0.000068
      g-4     :    -0.000017
  3 H s       :     0.831946  s :     0.831946
      pz      :     0.015038  p :     0.069520
      px      :     0.013772
      py      :     0.040710
      dz2     :     0.000649  d :     0.004293
      dxz     :     0.000244
      dyz     :     0.002131
      dx2y2   :     0.001150
      dxy     :     0.000120
      f0      :    -0.000430  f :    -0.000983
      f+1     :     0.000231
      f-1     :     0.000027
      f+2     :    -0.000060
      f-2     :    -0.000060
      f+3     :    -0.000592
      f-3     :    -0.000098
      g0      :    -0.000004  g :    -0.000238
      g+1     :    -0.000057
      g-1     :    -0.000059
      g+2     :     0.000018
      g-2     :     0.000034
      g+3     :    -0.000015
      g-3     :    -0.000070
      g+4     :    -0.000066
      g-4     :    -0.000019

SPIN
  0 Lis       :     0.884866  s :     0.884866
      pz      :     0.027267  p :     0.024261
      px      :    -0.001026
      py      :    -0.001981
      dz2     :    -0.000147  d :    -0.002319
      dxz     :    -0.000749
      dyz     :    -0.001782
      dx2y2   :     0.000177
      dxy     :     0.000181
      f0      :     0.000051  f :    -0.000088
      f+1     :    -0.000036
      f-1     :    -0.000135
      f+2     :     0.000013
      f-2     :     0.000014
      f+3     :     0.000003
      f-3     :     0.000001
      g0      :     0.000015  g :     0.000091
      g+1     :     0.000028
      g-1     :     0.000054
      g+2     :    -0.000004
      g-2     :    -0.000004
      g+3     :     0.000001
      g-3     :     0.000000
      g+4     :     0.000000
      g-4     :     0.000000
  1 O s       :    -0.248919  s :    -0.248919
      pz      :     0.034989  p :     0.073824
      px      :     0.017395
      py      :     0.021440
      dz2     :     0.000406  d :     0.000459
      dxz     :     0.000228
      dyz     :    -0.000335
      dx2y2   :     0.000084
      dxy     :     0.000076
      f0      :     0.000399  f :     0.000815
      f+1     :     0.000035
      f-1     :     0.000111
      f+2     :     0.000053
      f-2     :     0.000053
      f+3     :     0.000126
      f-3     :     0.000038
      g0      :    -0.000268  g :    -0.000197
      g+1     :     0.000019
      g-1     :     0.000029
      g+2     :    -0.000000
      g-2     :    -0.000000
      g+3     :     0.000012
      g-3     :     0.000005
      g+4     :     0.000004
      g-4     :     0.000002
      h0      :    -0.000095  h :    -0.000091
      h+1     :     0.000000
      h-1     :     0.000001
      h+2     :    -0.000000
      h-2     :    -0.000000
      h+3     :     0.000001
      h-3     :     0.000000
      h+4     :     0.000000
      h-4     :     0.000000
      h+5     :     0.000001
      h-5     :     0.000000
  2 H s       :     0.158502  s :     0.158502
      pz      :    -0.013002  p :    -0.019547
      px      :    -0.004614
      py      :    -0.001932
      dz2     :    -0.000503  d :    -0.004570
      dxz     :    -0.001868
      dyz     :    -0.000368
      dx2y2   :    -0.000627
      dxy     :    -0.001203
      f0      :     0.000026  f :    -0.000729
      f+1     :    -0.000043
      f-1     :     0.000019
      f+2     :    -0.000159
      f-2     :    -0.000177
      f+3     :    -0.000091
      f-3     :    -0.000302
      g0      :    -0.000010  g :     0.000003
      g+1     :     0.000078
      g-1     :    -0.000002
      g+2     :     0.000006
      g-2     :     0.000003
      g+3     :    -0.000007
      g-3     :    -0.000024
      g+4     :    -0.000007
      g-4     :    -0.000032
  3 H s       :     0.158480  s :     0.158480
      pz      :    -0.013002  p :    -0.019543
      px      :    -0.006392
      py      :    -0.000149
      dz2     :    -0.000504  d :    -0.004570
      dxz     :    -0.001067
      dyz     :    -0.001169
      dx2y2   :    -0.001198
      dxy     :    -0.000632
      f0      :     0.000026  f :    -0.000729
      f+1     :     0.000020
      f-1     :    -0.000044
      f+2     :    -0.000178
      f-2     :    -0.000159
      f+3     :    -0.000222
      f-3     :    -0.000172
      g0      :    -0.000010  g :     0.000003
      g+1     :     0.000041
      g-1     :     0.000034
      g+2     :     0.000002
      g-2     :     0.000006
      g+3     :    -0.000015
      g-3     :    -0.000016
      g+4     :    -0.000007
      g-4     :    -0.000032


                     *******************************
                     * LOEWDIN POPULATION ANALYSIS *
                     *******************************

-------------------------------------------
LOEWDIN ATOMIC CHARGES AND SPIN POPULATIONS
-------------------------------------------
   0 Li:    0.113042    0.563666
   1 O :    1.366104    0.121542
   2 H :   -0.739573    0.157396
   3 H :   -0.739573    0.157396

----------------------------------------------------
LOEWDIN REDUCED ORBITAL CHARGES AND SPIN POPULATIONS
----------------------------------------------------
CHARGE
  0 Lis       :     2.391726  s :     2.391726
      pz      :     0.188629  p :     0.216937
      px      :     0.010272
      py      :     0.018036
      dz2     :     0.089339  d :     0.146656
      dxz     :     0.024927
      dyz     :     0.031937
      dx2y2   :     0.000225
      dxy     :     0.000229
      f0      :     0.053004  f :     0.110564
      f+1     :     0.026530
      f-1     :     0.030656
      f+2     :     0.000178
      f-2     :     0.000179
      f+3     :     0.000015
      f-3     :     0.000003
      g0      :     0.011334  g :     0.021074
      g+1     :     0.004442
      g-1     :     0.005147
      g+2     :     0.000067
      g-2     :     0.000068
      g+3     :     0.000012
      g-3     :     0.000003
      g+4     :     0.000000
      g-4     :     0.000001
  1 O s       :     2.891964  s :     2.891964
      pz      :     1.256243  p :     3.585448
      px      :     1.103817
      py      :     1.225388
      dz2     :     0.028078  d :     0.087931
      dxz     :     0.025681
      dyz     :     0.007716
      dx2y2   :     0.013222
      dxy     :     0.013235
      f0      :     0.015657  f :     0.025553
      f+1     :     0.000506
      f-1     :     0.000409
      f+2     :     0.003157
      f-2     :     0.003143
      f+3     :     0.002025
      f-3     :     0.000657
      g0      :     0.018505  g :     0.020945
      g+1     :     0.000558
      g-1     :     0.000438
      g+2     :     0.000155
      g-2     :     0.000156
      g+3     :     0.000433
      g-3     :     0.000206
      g+4     :     0.000251
      g-4     :     0.000243
      h0      :     0.021295  h :     0.022055
      h+1     :     0.000008
      h-1     :     0.000039
      h+2     :     0.000046
      h-2     :     0.000046
      h+3     :     0.000197
      h-3     :     0.000036
      h+4     :     0.000127
      h-4     :     0.000215
      h+5     :     0.000035
      h-5     :     0.000012
  2 H s       :     0.694193  s :     0.694193
      pz      :     0.178417  p :     0.531682
      px      :     0.214256
      py      :     0.139010
      dz2     :     0.078201  d :     0.382305
      dxz     :     0.102926
      dyz     :     0.027030
      dx2y2   :     0.071942
      dxy     :     0.102207
      f0      :     0.009523  f :     0.110184
      f+1     :     0.036661
      f-1     :     0.000299
      f+2     :     0.013264
      f-2     :     0.016550
      f+3     :     0.010081
      f-3     :     0.023807
      g0      :     0.004684  g :     0.021208
      g+1     :     0.007765
      g-1     :     0.000022
      g+2     :     0.003185
      g-2     :     0.000223
      g+3     :     0.001140
      g-3     :     0.001347
      g+4     :     0.000753
      g-4     :     0.002089
  3 H s       :     0.694193  s :     0.694193
      pz      :     0.178417  p :     0.531683
      px      :     0.159723
      py      :     0.193542
      dz2     :     0.078201  d :     0.382305
      dxz     :     0.064124
      dyz     :     0.065832
      dx2y2   :     0.102227
      dxy     :     0.071922
      f0      :     0.009523  f :     0.110184
      f+1     :     0.020193
      f-1     :     0.016766
      f+2     :     0.016569
      f-2     :     0.013245
      f+3     :     0.016652
      f-3     :     0.017236
      g0      :     0.004684  g :     0.021208
      g+1     :     0.003922
      g-1     :     0.003865
      g+2     :     0.000214
      g-2     :     0.003195
      g+3     :     0.001264
      g-3     :     0.001223
      g+4     :     0.000755
      g-4     :     0.002086

SPIN
  0 Lis       :     0.486271  s :     0.486271
      pz      :     0.071227  p :     0.072571
      px      :     0.000310
      py      :     0.001034
      dz2     :     0.002827  d :     0.003212
      dxz     :     0.000041
      dyz     :    -0.000029
      dx2y2   :     0.000185
      dxy     :     0.000189
      f0      :     0.001073  f :     0.001342
      f+1     :     0.000020
      f-1     :     0.000065
      f+2     :     0.000085
      f-2     :     0.000087
      f+3     :     0.000011
      f-3     :     0.000002
      g0      :     0.000134  g :     0.000269
      g+1     :     0.000022
      g-1     :     0.000040
      g+2     :     0.000030
      g-2     :     0.000031
      g+3     :     0.000010
      g-3     :     0.000002
      g+4     :    -0.000000
      g-4     :    -0.000000
  1 O s       :     0.067098  s :     0.067098
      pz      :     0.045374  p :     0.045429
      px      :    -0.001365
      py      :     0.001420
      dz2     :     0.004566  d :     0.006735
      dxz     :     0.000225
      dyz     :     0.000323
      dx2y2   :     0.000803
      dxy     :     0.000818
      f0      :     0.000263  f :     0.000688
      f+1     :     0.000003
      f-1     :     0.000017
      f+2     :     0.000091
      f-2     :     0.000092
      f+3     :     0.000185
      f-3     :     0.000037
      g0      :     0.000627  g :     0.000738
      g+1     :     0.000013
      g-1     :     0.000019
      g+2     :     0.000004
      g-2     :     0.000004
      g+3     :     0.000050
      g-3     :     0.000010
      g+4     :     0.000007
      g-4     :     0.000005
      h0      :     0.000834  h :     0.000855
      h+1     :     0.000000
      h-1     :     0.000001
      h+2     :     0.000000
      h-2     :     0.000000
      h+3     :     0.000011
      h-3     :     0.000002
      h+4     :     0.000002
      h-4     :     0.000002
      h+5     :     0.000003
      h-5     :     0.000001
  2 H s       :     0.122589  s :     0.122589
      pz      :     0.014034  p :     0.025843
      px      :     0.010986
      py      :     0.000824
      dz2     :     0.003930  d :     0.007003
      dxz     :     0.002073
      dyz     :     0.000168
      dx2y2   :     0.000755
      dxy     :     0.000078
      f0      :     0.000800  f :     0.001466
      f+1     :     0.000174
      f-1     :     0.000047
      f+2     :     0.000276
      f-2     :     0.000013
      f+3     :     0.000073
      f-3     :     0.000083
      g0      :     0.000065  g :     0.000495
      g+1     :     0.000141
      g-1     :     0.000000
      g+2     :     0.000194
      g-2     :     0.000018
      g+3     :     0.000028
      g-3     :     0.000006
      g+4     :     0.000011
      g-4     :     0.000032
  3 H s       :     0.122589  s :     0.122589
      pz      :     0.014034  p :     0.025843
      px      :     0.006819
      py      :     0.004991
      dz2     :     0.003930  d :     0.007003
      dxz     :     0.001701
      dyz     :     0.000539
      dx2y2   :     0.000071
      dxy     :     0.000762
      f0      :     0.000800  f :     0.001466
      f+1     :     0.000229
      f-1     :    -0.000008
      f+2     :     0.000010
      f-2     :     0.000279
      f+3     :     0.000070
      f-3     :     0.000086
      g0      :     0.000065  g :     0.000495
      g+1     :     0.000070
      g-1     :     0.000070
      g+2     :     0.000017
      g-2     :     0.000195
      g+3     :     0.000003
      g-3     :     0.000031
      g+4     :     0.000011
      g-4     :     0.000033


                      *****************************
                      * MAYER POPULATION ANALYSIS *
                      *****************************

  NA   - Mulliken gross atomic population
  ZA   - Total nuclear charge
  QA   - Mulliken gross atomic charge
  VA   - Mayer's total valence
  BVA  - Mayer's bonded valence
  FA   - Mayer's free valence

  ATOM       NA         ZA         QA         VA         BVA        FA
  0 Li     3.1753     3.0000    -0.1753     1.4051     0.5795     0.8256
  1 O      8.0156     8.0000    -0.0156     1.7643     1.7203     0.0440
  2 H      0.9046     1.0000     0.0954     1.2027     1.1810     0.0217
  3 H      0.9045     1.0000     0.0955     1.2027     1.1809     0.0217

  Mayer bond orders larger than 0.1
B(  0-Li,  2-H ) :   0.2794 B(  0-Li,  3-H ) :   0.2793 B(  1-O ,  2-H ) :   0.8497 
B(  1-O ,  3-H ) :   0.8498 

-------
TIMINGS
-------

Total SCF time: 0 days 0 hours 59 min 49 sec 

Total time                  ....    3589.018 sec
Sum of individual times     ....    3588.161 sec  (100.0%)

Fock matrix formation       ....    3576.306 sec  ( 99.6%)
  XC integration            ....     170.290 sec  (  4.8% of F)
    Basis function eval.    ....      10.822 sec  (  6.4% of XC)
    Density eval.           ....      35.092 sec  ( 20.6% of XC)
    XC-Functional eval.     ....       1.355 sec  (  0.8% of XC)
    XC-Potential eval.      ....     121.779 sec  ( 71.5% of XC)
Diagonalization             ....       1.459 sec  (  0.0%)
Density matrix formation    ....       0.026 sec  (  0.0%)
Population analysis         ....       0.114 sec  (  0.0%)
Initial guess               ....       6.883 sec  (  0.2%)
Orbital Transformation      ....       0.000 sec  (  0.0%)
Orbital Orthonormalization  ....       0.000 sec  (  0.0%)
DIIS solution               ....       0.629 sec  (  0.0%)
Grid generation             ....       2.744 sec  (  0.1%)

-------------------------   --------------------
FINAL SINGLE POINT ENERGY       -83.873211664703
-------------------------   --------------------


                            ***************************************
                            *     ORCA property calculations      *
                            ***************************************

                                    ---------------------
                                    Active property flags
                                    ---------------------
   (+) Dipole Moment
   (+) Polarizability


------------------------------------------------------------------------------
                       ORCA ELECTRIC PROPERTIES CALCULATION
------------------------------------------------------------------------------

Dipole Moment Calculation                       ... on
Quadrupole Moment Calculation                   ... off
Polarizability Calculation                      ... Analytic (CP-SCF)
GBWName                                         ... h2o-li_pbe.gbw
Electron density file                           ... h2o-li_pbe.scfp.tmp
The origin for moment calculation is the CENTER OF MASS  = ( 0.018943,  0.045356  2.632780)

-------------
DIPOLE MOMENT
-------------
                                X             Y             Z
Electronic contribution:     -0.18467      -0.44217      -2.10809
Nuclear contribution   :      0.22273       0.53330       3.04627
                        -----------------------------------------
Total Dipole Moment    :      0.03806       0.09113       0.93818
                        -----------------------------------------
Magnitude (a.u.)       :      0.94337
Magnitude (Debye)      :      2.39785



--------------------
Rotational spectrum 
--------------------
 
Rotational constants in cm-1:    12.307592     0.874816     0.830557 
Rotational constants in MHz : 368972.319929 26226.314160 24899.457754 

 Dipole components along the rotational axes: 
x,y,z [a.u.] :     0.940937     0.000000    -0.067672 
x,y,z [Debye]:     2.391673     0.000000    -0.172008 

 
Transforming and storing MO dipole integrals   ... done

                ... starting polarizability calculation

Opening the Dipole integral file               ... (h2o-li_pbe.dmo.tmp) done
Reading Dipole-MO integrals                    ... done
Solving CP-SCF equations                       ... 
------------------------------------------------------------------------------
                           ORCA CP-SCF CALCULATION
------------------------------------------------------------------------------

Input orbitals are from        ... h2o-li_pbe.gbw
Input Perturbation             ... h2o-li_pbe.cpv.tmp
Wavefunction output            ... h2o-li_pbe.cpu.tmp
Perturbation mode              ... Real perturbation (singlet)
Solver                         ... POPLE
Max. number of iterations      ... 200
Convergence tolerance          ... 1.000e-06
Integral handling              ... Direct
Number of perturbations        ... 3
Number of operators            ... 2
Orbital ranges used for CP-SCF:
 Operator 0:  Orbitals   0...  6  to   7...403
 Operator 1:  Orbitals   0...  5  to   6...403
DFT calculation                         ... on
Exchange functional (SCF)               ... PBE
Exchange functional (CP-SCF)            ... PBE
   PBE kappa parameter  XKappa (SCF)    ...  0.804000
   PBE kappa parameter  XKappa (CP-SCF) ...  0.804000
   PBE mue parameter   XMuePBE (SCF)    ...  0.219520
   PBE mue parameter   XMuePBE (CP-SCF) ...  0.219520
Correlation functional (SCF)            ... PBE
Correlation functional (CP-SCF)         ... PBE
   PBE beta parameter CBetaPBE (SCF)    ...  0.066725
   PBE beta parameter CBetaPBE (CP-SCF) ...  0.066725
 LDA part of GGA corr.  LDAOpt (SCF)    ... PW91-LDA
 LDA part of GGA corr.  LDAOpt (CP-SCF) ... PW91-LDA
Variables per vector in CP-SCF ... 5167
Number of vectors sought       ... 3
Recalculating density on grid  ... done
Calculating the xc-kernel      ... done
     CP-SCF ITERATION   0: 
     CP-SCF ITERATION   1:      7.938834783682
     CP-SCF ITERATION   2:      0.463014334723
     CP-SCF ITERATION   3:      0.038883087628
     CP-SCF ITERATION   4:      0.006274204483
     CP-SCF ITERATION   5:      0.000356245963
     CP-SCF ITERATION   6:      0.000020814290
     CP-SCF ITERATION   7:      0.000000550748
done
Reading CP-SCF coefficients                    ... done
Doing the polarizability tensor   ... done
Cleaning up                                    ... done

-------------------------
THE POLARIZABILITY TENSOR
-------------------------

The raw cartesian tensor (atomic units):
  223.40551    -15.95839      9.92502  
  -15.95839    191.85834     23.76501  
    9.92502     23.76501    268.99675  
diagonalized tensor: 
  177.91165    230.07021    276.27875  

    0.37083      0.92276      0.10485  
    0.88795     -0.38537      0.25107  
   -0.27208     -0.00000      0.96227  

Isotropic polarizability : 228.08687


Timings for individual modules:

Sum of individual times         ...     7185.153 sec (= 119.753 min)
GTO integral calculation        ...        5.933 sec (=   0.099 min)   0.1 %
SCF iterations                  ...     3592.880 sec (=  59.881 min)  50.0 %
Solution of CP-SCF eqns.        ...     3586.339 sec (=  59.772 min)  49.9 %
                             ****ORCA TERMINATED NORMALLY****
TOTAL RUN TIME: 0 days 1 hours 59 minutes 45 seconds 617 msec
