
                                 *****************
                                 * O   R   C   A *
                                 *****************

           --- An Ab Initio, DFT and Semiempirical electronic structure package ---

                  #######################################################
                  #                        -***-                        #
                  #          Department of theory and spectroscopy      #
                  #               Directorship: Frank Neese             #
                  #        Max Planck Institute fuer Kohlenforschung    #
                  #                Kaiser Wilhelm Platz 1               #
                  #                 D-45470 Muelheim/Ruhr               #
                  #                      Germany                        #
                  #                                                     #
                  #                  All rights reserved                #
                  #                        -***-                        #
                  #######################################################


                         Program Version 4.1.2  - RELEASE  -


 With contributions from (in alphabetic order):
   Daniel Aravena         : Magnetic Properties
   Michael Atanasov       : Ab Initio Ligand Field Theory
   Alexander A. Auer      : GIAO ZORA
   Ute Becker             : Parallelization
   Giovanni Bistoni       : ED, Open-shell LED
   Martin Brehm           : Molecular dynamics
   Dmytro Bykov           : SCF Hessian
   Vijay G. Chilkuri      : MRCI spin determinant printing
   Dipayan Datta          : RHF DLPNO-CCSD density
   Achintya Kumar Dutta   : EOM-CC, STEOM-CC
   Dmitry Ganyushin       : Spin-Orbit,Spin-Spin,Magnetic field MRCI
   Miquel Garcia          : C-PCM Hessian
   Yang Guo               : DLPNO-NEVPT2, CIM, IAO-localization
   Andreas Hansen         : Spin unrestricted coupled pair/coupled cluster methods
   Benjamin Helmich-Paris : CASSCF linear response (MC-RPA)
   Lee Huntington         : MR-EOM, pCC
   Robert Izsak           : Overlap fitted RIJCOSX, COSX-SCS-MP3, EOM
   Christian Kollmar      : KDIIS, OOCD, Brueckner-CCSD(T), CCSD density
   Simone Kossmann        : Meta GGA functionals, TD-DFT gradient, OOMP2, MP2 Hessian
   Martin Krupicka        : AUTO-CI
   Lucas Lang             : DCDCAS
   Dagmar Lenk            : GEPOL surface, SMD
   Dimitrios Liakos       : Extrapolation schemes; parallel MDCI
   Dimitrios Manganas     : ROCIS; embedding schemes
   Dimitrios Pantazis     : SARC Basis sets
   Taras Petrenko         : DFT Hessian,TD-DFT gradient, ASA, ECA, R-Raman, ABS, FL, XAS/XES, NRVS
   Peter Pinski           : DLPNO-MP2, DLPNO-MP2 Gradient
   Christoph Reimann      : Effective Core Potentials
   Marius Retegan         : Local ZFS, SOC
   Christoph Riplinger    : Optimizer, TS searches, QM/MM, DLPNO-CCSD(T), (RO)-DLPNO pert. Triples
   Tobias Risthaus        : Range-separated hybrids, TD-DFT gradient, RPA, STAB
   Michael Roemelt        : Restricted open shell CIS
   Masaaki Saitow         : Open-shell DLPNO
   Barbara Sandhoefer     : DKH picture change effects
   Avijit Sen             : IP-ROCIS
   Kantharuban Sivalingam : CASSCF convergence, NEVPT2, FIC-MRCI
   Bernardo de Souza      : ESD, SOC TD-DFT
   Georgi Stoychev        : AutoAux, RI-MP2 NMR
   Willem Van den Heuvel  : Paramagnetic NMR
   Boris Wezisla          : Elementary symmetry handling
   Frank Wennmohs         : Technical directorship


 We gratefully acknowledge several colleagues who have allowed us to
 interface, adapt or use parts of their codes:
   Stefan Grimme, W. Hujo, H. Kruse,             : VdW corrections, initial TS optimization,
                  C. Bannwarth                     DFT functionals, gCP, sTDA/sTD-DF
   Ed Valeev                                     : LibInt (2-el integral package), F12 methods
   Garnet Chan, S. Sharma, J. Yang, R. Olivares  : DMRG
   Ulf Ekstrom                                   : XCFun DFT Library
   Mihaly Kallay                                 : mrcc  (arbitrary order and MRCC methods)
   Andreas Klamt, Michael Diedenhofen            : otool_cosmo (COSMO solvation model)
   Jiri Pittner, Ondrej Demel                    : Mk-CCSD
   Frank Weinhold                                : gennbo (NPA and NBO analysis)
   Christopher J. Cramer and Donald G. Truhlar   : smd solvation model
   Lars Goerigk                                  : TD-DFT with DH, B97 family of functionals
   V. Asgeirsson, H. Jonsson                     : NEB implementation
   FAccTs GmbH                                   : IRC, NEB, NEB-TS, Multilevel


 Your calculation uses the libint2 library for the computation of 2-el integrals
 For citations please refer to: http://libint.valeyev.net

 This ORCA versions uses:
   CBLAS   interface :  Fast vector & matrix operations
   LAPACKE interface :  Fast linear algebra routines
   SCALAPACK package :  Parallel linear algebra routines


----- Orbital basis set information -----
Your calculation utilizes the basis: aug-pc-4
   H, C-F              : F. Jensen, J. Chem. Phys. 115, 9113 (2001).
                         F. Jensen, J. Chem. Phys. 116, 7372 (2002).
                         F. Jensen, J. Chem. Phys. 117, 9234 (2002).
   Si-Cl               : F. Jensen, T. Helgaker, J. Chem. Phys. 121, 3463 (2004).
   He-B, Ne-Mg, Al, Ar : F. Jensen, J. Phys. Chem. A 111, 11198 (2007).
   K, Ca, Ga-Kr        : F. Jensen, J. Chem. Phys. 136, 094110 (2012).
   Sc-Zn               : F. Jensen, J. Chem. Phys. 138, 014107 (2013).

================================================================================
                                        WARNINGS
                       Please study these warnings very carefully!
================================================================================


INFO   : the flag for use of LIBINT has been found!

================================================================================
                                       INPUT FILE
================================================================================
NAME = h2o_pbe.inp
|  1> !uks pbe nori aug-pc-4 grid7 nofinalgrid verytightscf
|  2> 
|  3> %maxcore 1500
|  4> 
|  5> %pal nprocs 1 end
|  6> 
|  7> %scf
|  8> 	maxiter 200
|  9> end
| 10> %elprop
| 11> 	dipole true
| 12> 	 polar 1
| 13> 	 maxiter 200
| 14> end
| 15> 
| 16> * xyz 0 1
| 17> O 0.0000 0.0000 0.1173
| 18> H 0.0000 0.7572 -0.4692
| 19> H 0.0000 -0.7572 -0.4692
| 20> *
| 21> 
| 22>                          ****END OF INPUT****
================================================================================

                       ****************************
                       * Single Point Calculation *
                       ****************************

---------------------------------
CARTESIAN COORDINATES (ANGSTROEM)
---------------------------------
  O      0.000000    0.000000    0.117300
  H      0.000000    0.757200   -0.469200
  H      0.000000   -0.757200   -0.469200

----------------------------
CARTESIAN COORDINATES (A.U.)
----------------------------
  NO LB      ZA    FRAG     MASS         X           Y           Z
   0 O     8.0000    0    15.999    0.000000    0.000000    0.221665
   1 H     1.0000    0     1.008    0.000000    1.430901   -0.886660
   2 H     1.0000    0     1.008    0.000000   -1.430901   -0.886660

--------------------------------
INTERNAL COORDINATES (ANGSTROEM)
--------------------------------
 O      0   0   0     0.000000000000     0.00000000     0.00000000
 H      1   0   0     0.957775594803     0.00000000     0.00000000
 H      1   2   0     0.957775594803   104.47983882     0.00000000

---------------------------
INTERNAL COORDINATES (A.U.)
---------------------------
 O      0   0   0     0.000000000000     0.00000000     0.00000000
 H      1   0   0     1.809933571931     0.00000000     0.00000000
 H      1   2   0     1.809933571931   104.47983882     0.00000000

---------------------
BASIS SET INFORMATION
---------------------
There are 2 groups of distinct atoms

 Group   1 Type O   : 27s12p7d4f3g2h contracted to 9s8p7d4f3g2h pattern {1191111111/51111111/1111111/1111/111/11}
 Group   2 Type H   : 12s7p4d3f2g contracted to 8s7p4d3f2g pattern {51111111/1111111/1111/111/11}

Atom   0O    basis set group =>   1
Atom   1H    basis set group =>   2
Atom   2H    basis set group =>   2
------------------------------------------------------------------------------
                           ORCA GTO INTEGRAL CALCULATION
------------------------------------------------------------------------------

                         BASIS SET STATISTICS AND STARTUP INFO

 # of primitive gaussian shells          ...  111
 # of primitive gaussian functions       ...  359
 # of contracted shells                  ...   81
 # of contracted basis functions         ...  321
 Highest angular momentum                ...    5
 Maximum contraction depth               ...   11
 Integral package used                   ... LIBINT
 Integral threshhold            Thresh   ...  1.000e-12
 Primitive cut-off              TCut     ...  1.000e-14


------------------------------ INTEGRAL EVALUATION ----------------------------


 * One electron integrals 
 Pre-screening matrix                    ... done
 Shell pair data                         ... done (   0.001 sec)

-------------------------------------------------------------------------------
                                 ORCA SCF
-------------------------------------------------------------------------------

------------
SCF SETTINGS
------------
Hamiltonian:
 Density Functional     Method          .... DFT(GTOs)
 Exchange Functional    Exchange        .... PBE
   PBE kappa parameter   XKappa         ....  0.804000
   PBE mue parameter    XMuePBE         ....  0.219520
 Correlation Functional Correlation     .... PBE
   PBE beta parameter  CBetaPBE         ....  0.066725
 LDA part of GGA corr.  LDAOpt          .... PW91-LDA
 Gradients option       PostSCFGGA      .... off
   Density functional embedding theory  .... OFF
   NL short-range parameter             ....  6.400000


General Settings:
 Integral files         IntName         .... h2o_pbe
 Hartree-Fock type      HFTyp           .... UHF
 Total Charge           Charge          ....    0
 Multiplicity           Mult            ....    1
 Number of Electrons    NEL             ....   10
 Basis Dimension        Dim             ....  321
 Nuclear Repulsion      ENuc            ....      9.1895337174 Eh

Convergence Acceleration:
 DIIS                   CNVDIIS         .... on
   Start iteration      DIISMaxIt       ....    12
   Startup error        DIISStart       ....  0.200000
   # of expansion vecs  DIISMaxEq       ....     5
   Bias factor          DIISBfac        ....   1.050
   Max. coefficient     DIISMaxC        ....  10.000
 Newton-Raphson         CNVNR           .... off
 SOSCF                  CNVSOSCF        .... off
 Level Shifting         CNVShift        .... on
   Level shift para.    LevelShift      ....    0.2500
   Turn off err/grad.   ShiftErr        ....    0.0010
 Zerner damping         CNVZerner       .... off
 Static damping         CNVDamp         .... on
   Fraction old density DampFac         ....    0.7000
   Max. Damping (<1)    DampMax         ....    0.9800
   Min. Damping (>=0)   DampMin         ....    0.0000
   Turn off err/grad.   DampErr         ....    0.1000
 Fernandez-Rico         CNVRico         .... off

SCF Procedure:
 Maximum # iterations   MaxIter         ....   200
 SCF integral mode      SCFMode         .... Direct
   Integral package                     .... LIBINT
 Reset frequency        DirectResetFreq ....    20
 Integral Threshold     Thresh          ....  1.000e-12 Eh
 Primitive CutOff       TCut            ....  1.000e-14 Eh

Convergence Tolerance:
 Convergence Check Mode ConvCheckMode   .... Total+1el-Energy
 Convergence forced     ConvForced      .... 0
 Energy Change          TolE            ....  1.000e-09 Eh
 1-El. energy change                    ....  1.000e-06 Eh
 DIIS Error             TolErr          ....  1.000e-08


Diagonalization of the overlap matrix:
Smallest eigenvalue                        ... 1.451e-06
Time for diagonalization                   ...    0.139 sec
Threshold for overlap eigenvalues          ... 1.000e-08
Number of eigenvalues below threshold      ... 0
Time for construction of square roots      ...    0.014 sec
Total time needed                          ...    0.153 sec

-------------------
DFT GRID GENERATION
-------------------

General Integration Accuracy     IntAcc      ...  5.670
Radial Grid Type                 RadialGrid  ... Gauss-Chebyshev
Angular Grid (max. acc.)         AngularGrid ... Lebedev-770
Angular grid pruning method      GridPruning ... 3 (G Style)
Weight generation scheme         WeightScheme... Becke
Basis function cutoff            BFCut       ...    1.0000e-12
Integration weight cutoff        WCut        ...    1.0000e-14
Grids for H and He will be reduced by one unit

# of grid points (after initial pruning)     ...  60682 (   0.0 sec)
# of grid points (after weights+screening)   ...  60146 (   0.0 sec)
nearest neighbour list constructed           ...    0.0 sec
Grid point re-assignment to atoms done       ...    0.0 sec
Grid point division into batches done        ...    1.1 sec
Reduced shell lists constructed in    1.7 sec

Total number of grid points                  ...    60146
Total number of batches                      ...      942
Average number of points per batch           ...       63
Average number of grid points per atom       ...    20049
Average number of shells per batch           ...    63.56 (78.46%)
Average number of basis functions per batch  ...   258.63 (80.57%)
Average number of large shells per batch     ...    58.11 (91.43%)
Average number of large basis fcns per batch ...   237.54 (91.85%)
Maximum spatial batch extension              ...  13.79, 14.78, 13.04 au
Average spatial batch extension              ...   2.10,  1.95,  2.00 au

Time for grid setup =    1.731 sec

------------------------------
INITIAL GUESS: MODEL POTENTIAL
------------------------------
Loading Hartree-Fock densities                     ... done
Calculating cut-offs                               ... done
Setting up the integral package                    ... done
Initializing the effective Hamiltonian             ... done
Starting the Coulomb interaction                   ... done (   0.0 sec)
Reading the grid                                   ... done
Mapping shells                                     ... done
Starting the XC term evaluation                    ... done (   3.3 sec)
  promolecular density results
     # of electrons  =      9.999021037
     EX              =     -8.731262346
     EC              =     -0.316236047
     EX+EC           =     -9.047498393
Transforming the Hamiltonian                       ... done (   0.0 sec)
Diagonalizing the Hamiltonian                      ... done (   0.0 sec)
Back transforming the eigenvectors                 ... done (   0.0 sec)
Now organizing SCF variables                       ... done
                      ------------------
                      INITIAL GUESS DONE (   5.3 sec)
                      ------------------
--------------
SCF ITERATIONS
--------------
ITER       Energy         Delta-E        Max-DP      RMS-DP      [F,P]     Damp
               ***  Starting incremental Fock matrix formation  ***
  0    -76.2911079244   0.000000000000 0.01345416  0.00018187  0.3252166 0.7000
  1    -76.3430881806  -0.051980256163 0.00813816  0.00010822  0.0974589 0.7000
                               ***Turning on DIIS***
  2    -76.3550507479  -0.011962567322 0.00613213  0.00009546  0.0202336 0.0000
  3    -76.3852720741  -0.030221326259 0.00481976  0.00005711  0.0552111 0.0000
  4    -76.3883539998  -0.003081925706 0.00130491  0.00001825  0.0087309 0.0000
  5    -76.3885045420  -0.000150542108 0.00023956  0.00000371  0.0022781 0.0000
  6    -76.3885156718  -0.000011129892 0.00032566  0.00000394  0.0008354 0.0000
  7    -76.3885176450  -0.000001973146 0.00002762  0.00000032  0.0000504 0.0000
  8    -76.3885176473  -0.000000002276 0.00000357  0.00000005  0.0000079 0.0000
  9    -76.3885176473  -0.000000000065 0.00000382  0.00000005  0.0000011 0.0000
 10    -76.3885176473  -0.000000000001 0.00001053  0.00000016  0.0000004 0.0000
                 **** Energy Check signals convergence ****

               *****************************************************
               *                     SUCCESS                       *
               *           SCF CONVERGED AFTER  11 CYCLES          *
               *****************************************************


----------------
TOTAL SCF ENERGY
----------------

Total Energy       :          -76.38851765 Eh           -2078.63724 eV

Components:
Nuclear Repulsion  :            9.18953372 Eh             250.05993 eV
Electronic Energy  :          -85.57805136 Eh           -2328.69717 eV
One Electron Energy:         -122.99612335 Eh           -3346.89467 eV
Two Electron Energy:           37.41807198 Eh            1018.19750 eV

Virial components:
Potential Energy   :         -152.54499827 Eh           -4150.96043 eV
Kinetic Energy     :           76.15648062 Eh            2072.32319 eV
Virial Ratio       :            2.00304685


DFT components:
N(Alpha)           :        5.000000025385 electrons
N(Beta)            :        5.000000025385 electrons
N(Total)           :       10.000000050771 electrons
E(X)               :       -8.917221451390 Eh       
E(C)               :       -0.324467578178 Eh       
E(XC)              :       -9.241689029567 Eh       
DFET-embed. en.    :        0.000000000000 Eh       

---------------
SCF CONVERGENCE
---------------

  Last Energy change         ...    2.5722e-12  Tolerance :   1.0000e-09
  Last MAX-Density change    ...    2.8187e-05  Tolerance :   1.0000e-08
  Last RMS-Density change    ...    2.6329e-07  Tolerance :   1.0000e-09
  Last DIIS Error            ...    3.1547e-08  Tolerance :   1.0000e-08

             **** THE GBW FILE WAS UPDATED (h2o_pbe.gbw) ****
             **** DENSITY FILE WAS UPDATED (h2o_pbe.scfp.tmp) ****
             **** ENERGY FILE WAS UPDATED (h2o_pbe.en.tmp) ****
----------------------
UHF SPIN CONTAMINATION
----------------------

Warning: in a DFT calculation there is little theoretical justification to 
         calculate <S**2> as in Hartree-Fock theory. We will do it anyways
         but you should keep in mind that the values have only limited relevance

Expectation value of <S**2>     :     0.000000
Ideal value S*(S+1) for S=0.0   :     0.000000
Deviation                       :     0.000000

----------------
ORBITAL ENERGIES
----------------
                 SPIN UP ORBITALS
  NO   OCC          E(Eh)            E(eV) 
   0   1.0000     -18.755032      -510.3504 
   1   1.0000      -0.932050       -25.3624 
   2   1.0000      -0.485291       -13.2054 
   3   1.0000      -0.343258        -9.3405 
   4   1.0000      -0.266532        -7.2527 
   5   0.0000      -0.034458        -0.9376 
   6   0.0000       0.012269         0.3338 
   7   0.0000       0.030605         0.8328 
   8   0.0000       0.030922         0.8414 
   9   0.0000       0.038712         1.0534 
  10   0.0000       0.054410         1.4806 
  11   0.0000       0.064243         1.7481 
  12   0.0000       0.082731         2.2512 
  13   0.0000       0.090818         2.4713 
  14   0.0000       0.090919         2.4740 
  15   0.0000       0.094042         2.5590 
  16   0.0000       0.125494         3.4149 
  17   0.0000       0.129983         3.5370 
  18   0.0000       0.145056         3.9472 
  19   0.0000       0.158540         4.3141 
  20   0.0000       0.159305         4.3349 
  21   0.0000       0.169037         4.5997 
  22   0.0000       0.179632         4.8880 
  23   0.0000       0.180296         4.9061 
  24   0.0000       0.183316         4.9883 
  25   0.0000       0.194842         5.3019 
  26   0.0000       0.209384         5.6976 
  27   0.0000       0.210005         5.7145 
  28   0.0000       0.216328         5.8866 
  29   0.0000       0.237442         6.4611 
  30   0.0000       0.243394         6.6231 
  31   0.0000       0.252192         6.8625 
  32   0.0000       0.256259         6.9732 
  33   0.0000       0.271677         7.3927 
  34   0.0000       0.273930         7.4540 
  35   0.0000       0.288581         7.8527 
  36   0.0000       0.302148         8.2219 
  37   0.0000       0.308729         8.4009 
  38   0.0000       0.325772         8.8647 
  39   0.0000       0.328670         8.9436 
  40   0.0000       0.330618         8.9966 
  41   0.0000       0.332245         9.0408 
  42   0.0000       0.371049        10.0968 
  43   0.0000       0.382394        10.4055 
  44   0.0000       0.395298        10.7566 
  45   0.0000       0.410993        11.1837 
  46   0.0000       0.414260        11.2726 
  47   0.0000       0.414636        11.2828 
  48   0.0000       0.419889        11.4258 
  49   0.0000       0.420300        11.4369 
  50   0.0000       0.428839        11.6693 
  51   0.0000       0.451537        12.2869 
  52   0.0000       0.455890        12.4054 
  53   0.0000       0.471787        12.8380 
  54   0.0000       0.483031        13.1440 
  55   0.0000       0.487617        13.2687 
  56   0.0000       0.503472        13.7002 
  57   0.0000       0.508503        13.8371 
  58   0.0000       0.514665        14.0047 
  59   0.0000       0.527363        14.3503 
  60   0.0000       0.533260        14.5108 
  61   0.0000       0.540380        14.7045 
  62   0.0000       0.545596        14.8464 
  63   0.0000       0.546634        14.8747 
  64   0.0000       0.556568        15.1450 
  65   0.0000       0.560901        15.2629 
  66   0.0000       0.561515        15.2796 
  67   0.0000       0.573437        15.6040 
  68   0.0000       0.573557        15.6073 
  69   0.0000       0.588175        16.0051 
  70   0.0000       0.604183        16.4406 
  71   0.0000       0.627246        17.0682 
  72   0.0000       0.642011        17.4700 
  73   0.0000       0.643278        17.5045 
  74   0.0000       0.677364        18.4320 
  75   0.0000       0.687018        18.6947 
  76   0.0000       0.694780        18.9059 
  77   0.0000       0.699186        19.0258 
  78   0.0000       0.710706        19.3393 
  79   0.0000       0.720957        19.6182 
  80   0.0000       0.727443        19.7947 
  81   0.0000       0.743685        20.2367 
  82   0.0000       0.754332        20.5264 
  83   0.0000       0.760253        20.6875 
  84   0.0000       0.768130        20.9019 
  85   0.0000       0.782244        21.2859 
  86   0.0000       0.805394        21.9159 
  87   0.0000       0.806130        21.9359 
  88   0.0000       0.823788        22.4164 
  89   0.0000       0.842864        22.9355 
  90   0.0000       0.846492        23.0342 
  91   0.0000       0.861960        23.4551 
  92   0.0000       0.876963        23.8634 
  93   0.0000       0.898214        24.4417 
  94   0.0000       0.899904        24.4876 
  95   0.0000       0.907252        24.6876 
  96   0.0000       0.939105        25.5543 
  97   0.0000       0.946637        25.7593 
  98   0.0000       0.974494        26.5173 
  99   0.0000       0.986399        26.8413 
 100   0.0000       1.001586        27.2545 
 101   0.0000       1.010922        27.5086 
 102   0.0000       1.011296        27.5188 
 103   0.0000       1.016230        27.6530 
 104   0.0000       1.020066        27.7574 
 105   0.0000       1.076604        29.2959 
 106   0.0000       1.081144        29.4194 
 107   0.0000       1.081841        29.4384 
 108   0.0000       1.100446        29.9447 
 109   0.0000       1.101091        29.9622 
 110   0.0000       1.119873        30.4733 
 111   0.0000       1.133867        30.8541 
 112   0.0000       1.144438        31.1417 
 113   0.0000       1.164719        31.6936 
 114   0.0000       1.204849        32.7856 
 115   0.0000       1.230690        33.4888 
 116   0.0000       1.248856        33.9831 
 117   0.0000       1.327345        36.1189 
 118   0.0000       1.370404        37.2906 
 119   0.0000       1.431338        38.9487 
 120   0.0000       1.477164        40.1957 
 121   0.0000       1.499373        40.8000 
 122   0.0000       1.577947        42.9381 
 123   0.0000       1.616628        43.9907 
 124   0.0000       1.651826        44.9485 
 125   0.0000       1.657366        45.0992 
 126   0.0000       1.668521        45.4028 
 127   0.0000       1.714673        46.6586 
 128   0.0000       1.715887        46.6917 
 129   0.0000       1.759088        47.8672 
 130   0.0000       1.830511        49.8107 
 131   0.0000       1.868394        50.8416 
 132   0.0000       1.870280        50.8929 
 133   0.0000       1.902970        51.7824 
 134   0.0000       2.008165        54.6449 
 135   0.0000       2.169262        59.0286 
 136   0.0000       2.173519        59.1444 
 137   0.0000       2.186298        59.4922 
 138   0.0000       2.290331        62.3231 
 139   0.0000       2.331547        63.4446 
 140   0.0000       2.409976        65.5788 
 141   0.0000       2.508623        68.2631 
 142   0.0000       2.526436        68.7478 
 143   0.0000       2.627252        71.4912 
 144   0.0000       2.671678        72.7000 
 145   0.0000       2.717439        73.9453 
 146   0.0000       2.878099        78.3171 
 147   0.0000       2.941072        80.0306 
 148   0.0000       3.013413        81.9991 
 149   0.0000       3.097342        84.2830 
 150   0.0000       3.105186        84.4964 
 151   0.0000       3.286525        89.4309 
 152   0.0000       3.312449        90.1363 
 153   0.0000       3.370472        91.7152 
 154   0.0000       3.393297        92.3363 
 155   0.0000       3.434380        93.4542 
 156   0.0000       3.469370        94.4064 
 157   0.0000       3.513973        95.6201 
 158   0.0000       3.562314        96.9355 
 159   0.0000       3.569740        97.1376 
 160   0.0000       3.641559        99.0919 
 161   0.0000       3.646209        99.2184 
 162   0.0000       3.666107        99.7598 
 163   0.0000       3.811712       103.7219 
 164   0.0000       3.841604       104.5354 
 165   0.0000       3.850250       104.7706 
 166   0.0000       3.930383       106.9512 
 167   0.0000       4.030492       109.6753 
 168   0.0000       4.131601       112.4266 
 169   0.0000       4.168423       113.4286 
 170   0.0000       4.312184       117.3405 
 171   0.0000       4.321933       117.6058 
 172   0.0000       4.349698       118.3613 
 173   0.0000       4.418956       120.2459 
 174   0.0000       4.433018       120.6285 
 175   0.0000       4.554956       123.9467 
 176   0.0000       4.614473       125.5662 
 177   0.0000       4.684328       127.4671 
 178   0.0000       4.705739       128.0497 
 179   0.0000       4.896762       133.2477 
 180   0.0000       5.053559       137.5143 
 181   0.0000       5.178211       140.9063 
 182   0.0000       5.367292       146.0515 
 183   0.0000       5.400439       146.9534 
 184   0.0000       5.451969       148.3556 
 185   0.0000       5.560893       151.3196 
 186   0.0000       5.608355       152.6111 
 187   0.0000       5.654418       153.8645 
 188   0.0000       5.939415       161.6197 
 189   0.0000       6.025354       163.9582 
 190   0.0000       6.055250       164.7717 
 191   0.0000       6.239633       169.7890 
 192   0.0000       6.313928       171.8107 
 193   0.0000       6.319199       171.9542 
 194   0.0000       6.734248       183.2482 
 195   0.0000       6.833410       185.9465 
 196   0.0000       6.931817       188.6243 
 197   0.0000       7.066545       192.2905 
 198   0.0000       7.178173       195.3280 
 199   0.0000       7.330134       199.4631 
 200   0.0000       7.370633       200.5651 
 201   0.0000       7.406067       201.5293 
 202   0.0000       7.408274       201.5894 
 203   0.0000       7.490504       203.8270 
 204   0.0000       7.614789       207.2089 
 205   0.0000       7.801349       212.2855 
 206   0.0000       8.358115       227.4359 
 207   0.0000       8.426034       229.2840 
 208   0.0000       8.533812       232.2168 
 209   0.0000       8.744117       237.9395 
 210   0.0000       8.795885       239.3482 
 211   0.0000       9.031040       245.7471 
 212   0.0000       9.039727       245.9835 
 213   0.0000       9.157730       249.1945 
 214   0.0000       9.271883       252.3008 
 215   0.0000       9.346816       254.3398 
 216   0.0000       9.364263       254.8145 
 217   0.0000       9.687015       263.5971 
 218   0.0000       9.742621       265.1102 
 219   0.0000      10.149569       276.1838 
 220   0.0000      10.231505       278.4134 
 221   0.0000      10.399062       282.9729 
 222   0.0000      10.604180       288.5544 
 223   0.0000      10.657389       290.0023 
 224   0.0000      10.704661       291.2886 
 225   0.0000      11.153366       303.4985 
 226   0.0000      11.383425       309.7588 
 227   0.0000      11.412160       310.5407 
 228   0.0000      11.499360       312.9135 
 229   0.0000      11.704084       318.4843 
 230   0.0000      11.760605       320.0223 
 231   0.0000      11.860720       322.7466 
 232   0.0000      11.939389       324.8873 
 233   0.0000      11.991718       326.3112 
 234   0.0000      12.061105       328.1994 
 235   0.0000      12.067514       328.3737 
 236   0.0000      12.219785       332.5173 
 237   0.0000      12.336947       335.7054 
 238   0.0000      12.341533       335.8302 
 239   0.0000      12.591786       342.6399 
 240   0.0000      12.602497       342.9314 
 241   0.0000      12.609759       343.1290 
 242   0.0000      12.690097       345.3151 
 243   0.0000      12.731269       346.4355 
 244   0.0000      12.775383       347.6358 
 245   0.0000      12.936530       352.0209 
 246   0.0000      12.948717       352.3525 
 247   0.0000      13.478818       366.7773 
 248   0.0000      13.632067       370.9474 
 249   0.0000      13.764029       374.5383 
 250   0.0000      13.880656       377.7118 
 251   0.0000      13.922824       378.8593 
 252   0.0000      14.151435       385.0801 
 253   0.0000      14.210398       386.6846 
 254   0.0000      14.238220       387.4417 
 255   0.0000      14.708542       400.2398 
 256   0.0000      14.766252       401.8102 
 257   0.0000      15.439495       420.1300 
 258   0.0000      15.700235       427.2251 
 259   0.0000      16.442526       447.4239 
 260   0.0000      16.614240       452.0964 
 261   0.0000      16.737823       455.4593 
 262   0.0000      16.766374       456.2362 
 263   0.0000      16.793339       456.9700 
 264   0.0000      16.808785       457.3903 
 265   0.0000      16.911835       460.1944 
 266   0.0000      17.072768       464.5736 
 267   0.0000      17.254442       469.5172 
 268   0.0000      17.380761       472.9546 
 269   0.0000      17.395588       473.3580 
 270   0.0000      17.439513       474.5533 
 271   0.0000      17.536618       477.1956 
 272   0.0000      17.587734       478.5866 
 273   0.0000      17.634006       479.8457 
 274   0.0000      17.749376       482.9851 
 275   0.0000      17.892285       486.8738 
 276   0.0000      17.894610       486.9371 
 277   0.0000      17.934207       488.0146 
 278   0.0000      18.392107       500.4747 
 279   0.0000      18.462431       502.3883 
 280   0.0000      18.946764       515.5676 
 281   0.0000      19.260587       524.1072 
 282   0.0000      19.490391       530.3605 
 283   0.0000      19.637817       534.3722 
 284   0.0000      20.342588       553.5500 
 285   0.0000      20.505478       557.9824 
 286   0.0000      20.638822       561.6109 
 287   0.0000      20.806436       566.1719 
 288   0.0000      20.898285       568.6712 
 289   0.0000      21.173116       576.1498 
 290   0.0000      21.517042       585.5085 
 291   0.0000      22.055337       600.1562 
 292   0.0000      23.535466       640.4326 
 293   0.0000      23.546573       640.7348 
 294   0.0000      23.754731       646.3991 
 295   0.0000      23.856229       649.1610 
 296   0.0000      23.972562       652.3266 
 297   0.0000      24.010790       653.3668 
 298   0.0000      24.197282       658.4415 
 299   0.0000      26.166880       712.0370 
 300   0.0000      27.103582       737.5260 
 301   0.0000      27.144401       738.6367 
 302   0.0000      28.144690       765.8559 
 303   0.0000      31.206987       849.1853 
 304   0.0000      32.216014       876.6423 
 305   0.0000      34.059156       926.7967 
 306   0.0000      34.658596       943.1083 
 307   0.0000      41.247946      1122.4137 
 308   0.0000      41.382397      1126.0723 
 309   0.0000      66.868448      1819.5830 
 310   0.0000      67.035486      1824.1283 
 311   0.0000      67.113598      1826.2538 
 312   0.0000      68.103207      1853.1825 
 313   0.0000      69.395094      1888.3365 
 314   0.0000      90.954266      2474.9914 
 315   0.0000      90.999058      2476.2103 
 316   0.0000      91.172503      2480.9299 
 317   0.0000      91.190241      2481.4126 
 318   0.0000      93.581482      2546.4816 
 319   0.0000      93.679288      2549.1430 
 320   0.0000     144.165346      3922.9385 

                 SPIN DOWN ORBITALS
  NO   OCC          E(Eh)            E(eV) 
   0   1.0000     -18.755032      -510.3504 
   1   1.0000      -0.932050       -25.3624 
   2   1.0000      -0.485291       -13.2054 
   3   1.0000      -0.343258        -9.3405 
   4   1.0000      -0.266532        -7.2527 
   5   0.0000      -0.034458        -0.9376 
   6   0.0000       0.012269         0.3338 
   7   0.0000       0.030605         0.8328 
   8   0.0000       0.030922         0.8414 
   9   0.0000       0.038712         1.0534 
  10   0.0000       0.054410         1.4806 
  11   0.0000       0.064243         1.7481 
  12   0.0000       0.082731         2.2512 
  13   0.0000       0.090818         2.4713 
  14   0.0000       0.090919         2.4740 
  15   0.0000       0.094042         2.5590 
  16   0.0000       0.125494         3.4149 
  17   0.0000       0.129983         3.5370 
  18   0.0000       0.145056         3.9472 
  19   0.0000       0.158540         4.3141 
  20   0.0000       0.159305         4.3349 
  21   0.0000       0.169037         4.5997 
  22   0.0000       0.179632         4.8880 
  23   0.0000       0.180296         4.9061 
  24   0.0000       0.183316         4.9883 
  25   0.0000       0.194842         5.3019 
  26   0.0000       0.209384         5.6976 
  27   0.0000       0.210005         5.7145 
  28   0.0000       0.216328         5.8866 
  29   0.0000       0.237442         6.4611 
  30   0.0000       0.243394         6.6231 
  31   0.0000       0.252192         6.8625 
  32   0.0000       0.256259         6.9732 
  33   0.0000       0.271677         7.3927 
  34   0.0000       0.273930         7.4540 
  35   0.0000       0.288581         7.8527 
  36   0.0000       0.302148         8.2219 
  37   0.0000       0.308729         8.4009 
  38   0.0000       0.325772         8.8647 
  39   0.0000       0.328670         8.9436 
  40   0.0000       0.330618         8.9966 
  41   0.0000       0.332245         9.0408 
  42   0.0000       0.371049        10.0968 
  43   0.0000       0.382394        10.4055 
  44   0.0000       0.395298        10.7566 
  45   0.0000       0.410993        11.1837 
  46   0.0000       0.414260        11.2726 
  47   0.0000       0.414636        11.2828 
  48   0.0000       0.419889        11.4258 
  49   0.0000       0.420300        11.4369 
  50   0.0000       0.428839        11.6693 
  51   0.0000       0.451537        12.2869 
  52   0.0000       0.455890        12.4054 
  53   0.0000       0.471787        12.8380 
  54   0.0000       0.483031        13.1440 
  55   0.0000       0.487617        13.2687 
  56   0.0000       0.503472        13.7002 
  57   0.0000       0.508503        13.8371 
  58   0.0000       0.514665        14.0047 
  59   0.0000       0.527363        14.3503 
  60   0.0000       0.533260        14.5108 
  61   0.0000       0.540380        14.7045 
  62   0.0000       0.545596        14.8464 
  63   0.0000       0.546634        14.8747 
  64   0.0000       0.556568        15.1450 
  65   0.0000       0.560901        15.2629 
  66   0.0000       0.561515        15.2796 
  67   0.0000       0.573437        15.6040 
  68   0.0000       0.573557        15.6073 
  69   0.0000       0.588175        16.0051 
  70   0.0000       0.604183        16.4406 
  71   0.0000       0.627246        17.0682 
  72   0.0000       0.642011        17.4700 
  73   0.0000       0.643278        17.5045 
  74   0.0000       0.677364        18.4320 
  75   0.0000       0.687018        18.6947 
  76   0.0000       0.694780        18.9059 
  77   0.0000       0.699186        19.0258 
  78   0.0000       0.710706        19.3393 
  79   0.0000       0.720957        19.6182 
  80   0.0000       0.727443        19.7947 
  81   0.0000       0.743685        20.2367 
  82   0.0000       0.754332        20.5264 
  83   0.0000       0.760253        20.6875 
  84   0.0000       0.768130        20.9019 
  85   0.0000       0.782244        21.2859 
  86   0.0000       0.805394        21.9159 
  87   0.0000       0.806130        21.9359 
  88   0.0000       0.823788        22.4164 
  89   0.0000       0.842864        22.9355 
  90   0.0000       0.846492        23.0342 
  91   0.0000       0.861960        23.4551 
  92   0.0000       0.876963        23.8634 
  93   0.0000       0.898214        24.4417 
  94   0.0000       0.899904        24.4876 
  95   0.0000       0.907252        24.6876 
  96   0.0000       0.939105        25.5543 
  97   0.0000       0.946637        25.7593 
  98   0.0000       0.974494        26.5173 
  99   0.0000       0.986399        26.8413 
 100   0.0000       1.001586        27.2545 
 101   0.0000       1.010922        27.5086 
 102   0.0000       1.011296        27.5188 
 103   0.0000       1.016230        27.6530 
 104   0.0000       1.020066        27.7574 
 105   0.0000       1.076604        29.2959 
 106   0.0000       1.081144        29.4194 
 107   0.0000       1.081841        29.4384 
 108   0.0000       1.100446        29.9447 
 109   0.0000       1.101091        29.9622 
 110   0.0000       1.119873        30.4733 
 111   0.0000       1.133867        30.8541 
 112   0.0000       1.144438        31.1417 
 113   0.0000       1.164719        31.6936 
 114   0.0000       1.204849        32.7856 
 115   0.0000       1.230690        33.4888 
 116   0.0000       1.248856        33.9831 
 117   0.0000       1.327345        36.1189 
 118   0.0000       1.370404        37.2906 
 119   0.0000       1.431338        38.9487 
 120   0.0000       1.477164        40.1957 
 121   0.0000       1.499373        40.8000 
 122   0.0000       1.577947        42.9381 
 123   0.0000       1.616628        43.9907 
 124   0.0000       1.651826        44.9485 
 125   0.0000       1.657366        45.0992 
 126   0.0000       1.668521        45.4028 
 127   0.0000       1.714673        46.6586 
 128   0.0000       1.715887        46.6917 
 129   0.0000       1.759088        47.8672 
 130   0.0000       1.830511        49.8107 
 131   0.0000       1.868394        50.8416 
 132   0.0000       1.870280        50.8929 
 133   0.0000       1.902970        51.7824 
 134   0.0000       2.008165        54.6449 
 135   0.0000       2.169262        59.0286 
 136   0.0000       2.173519        59.1444 
 137   0.0000       2.186298        59.4922 
 138   0.0000       2.290331        62.3231 
 139   0.0000       2.331547        63.4446 
 140   0.0000       2.409976        65.5788 
 141   0.0000       2.508623        68.2631 
 142   0.0000       2.526436        68.7478 
 143   0.0000       2.627252        71.4912 
 144   0.0000       2.671678        72.7000 
 145   0.0000       2.717439        73.9453 
 146   0.0000       2.878099        78.3171 
 147   0.0000       2.941072        80.0306 
 148   0.0000       3.013413        81.9991 
 149   0.0000       3.097342        84.2830 
 150   0.0000       3.105186        84.4964 
 151   0.0000       3.286525        89.4309 
 152   0.0000       3.312449        90.1363 
 153   0.0000       3.370472        91.7152 
 154   0.0000       3.393297        92.3363 
 155   0.0000       3.434380        93.4542 
 156   0.0000       3.469370        94.4064 
 157   0.0000       3.513973        95.6201 
 158   0.0000       3.562314        96.9355 
 159   0.0000       3.569740        97.1376 
 160   0.0000       3.641559        99.0919 
 161   0.0000       3.646209        99.2184 
 162   0.0000       3.666107        99.7598 
 163   0.0000       3.811712       103.7219 
 164   0.0000       3.841604       104.5354 
 165   0.0000       3.850250       104.7706 
 166   0.0000       3.930383       106.9512 
 167   0.0000       4.030492       109.6753 
 168   0.0000       4.131601       112.4266 
 169   0.0000       4.168423       113.4286 
 170   0.0000       4.312184       117.3405 
 171   0.0000       4.321933       117.6058 
 172   0.0000       4.349698       118.3613 
 173   0.0000       4.418956       120.2459 
 174   0.0000       4.433018       120.6285 
 175   0.0000       4.554956       123.9467 
 176   0.0000       4.614473       125.5662 
 177   0.0000       4.684328       127.4671 
 178   0.0000       4.705739       128.0497 
 179   0.0000       4.896762       133.2477 
 180   0.0000       5.053559       137.5143 
 181   0.0000       5.178211       140.9063 
 182   0.0000       5.367292       146.0515 
 183   0.0000       5.400439       146.9534 
 184   0.0000       5.451969       148.3556 
 185   0.0000       5.560893       151.3196 
 186   0.0000       5.608355       152.6111 
 187   0.0000       5.654418       153.8645 
 188   0.0000       5.939415       161.6197 
 189   0.0000       6.025354       163.9582 
 190   0.0000       6.055250       164.7717 
 191   0.0000       6.239633       169.7890 
 192   0.0000       6.313928       171.8107 
 193   0.0000       6.319199       171.9542 
 194   0.0000       6.734248       183.2482 
 195   0.0000       6.833410       185.9465 
 196   0.0000       6.931817       188.6243 
 197   0.0000       7.066545       192.2905 
 198   0.0000       7.178173       195.3280 
 199   0.0000       7.330134       199.4631 
 200   0.0000       7.370633       200.5651 
 201   0.0000       7.406067       201.5293 
 202   0.0000       7.408274       201.5894 
 203   0.0000       7.490504       203.8270 
 204   0.0000       7.614789       207.2089 
 205   0.0000       7.801349       212.2855 
 206   0.0000       8.358115       227.4359 
 207   0.0000       8.426034       229.2840 
 208   0.0000       8.533812       232.2168 
 209   0.0000       8.744117       237.9395 
 210   0.0000       8.795885       239.3482 
 211   0.0000       9.031040       245.7471 
 212   0.0000       9.039727       245.9835 
 213   0.0000       9.157730       249.1945 
 214   0.0000       9.271883       252.3008 
 215   0.0000       9.346816       254.3398 
 216   0.0000       9.364263       254.8145 
 217   0.0000       9.687015       263.5971 
 218   0.0000       9.742621       265.1102 
 219   0.0000      10.149569       276.1838 
 220   0.0000      10.231505       278.4134 
 221   0.0000      10.399062       282.9729 
 222   0.0000      10.604180       288.5544 
 223   0.0000      10.657389       290.0023 
 224   0.0000      10.704661       291.2886 
 225   0.0000      11.153366       303.4985 
 226   0.0000      11.383425       309.7588 
 227   0.0000      11.412160       310.5407 
 228   0.0000      11.499360       312.9135 
 229   0.0000      11.704084       318.4843 
 230   0.0000      11.760605       320.0223 
 231   0.0000      11.860720       322.7466 
 232   0.0000      11.939389       324.8873 
 233   0.0000      11.991718       326.3112 
 234   0.0000      12.061105       328.1994 
 235   0.0000      12.067514       328.3737 
 236   0.0000      12.219785       332.5173 
 237   0.0000      12.336947       335.7054 
 238   0.0000      12.341533       335.8302 
 239   0.0000      12.591786       342.6399 
 240   0.0000      12.602497       342.9314 
 241   0.0000      12.609759       343.1290 
 242   0.0000      12.690097       345.3151 
 243   0.0000      12.731269       346.4355 
 244   0.0000      12.775383       347.6358 
 245   0.0000      12.936530       352.0209 
 246   0.0000      12.948717       352.3525 
 247   0.0000      13.478818       366.7773 
 248   0.0000      13.632067       370.9474 
 249   0.0000      13.764029       374.5383 
 250   0.0000      13.880656       377.7118 
 251   0.0000      13.922824       378.8593 
 252   0.0000      14.151435       385.0801 
 253   0.0000      14.210398       386.6846 
 254   0.0000      14.238220       387.4417 
 255   0.0000      14.708542       400.2398 
 256   0.0000      14.766252       401.8102 
 257   0.0000      15.439495       420.1300 
 258   0.0000      15.700235       427.2251 
 259   0.0000      16.442526       447.4239 
 260   0.0000      16.614240       452.0964 
 261   0.0000      16.737823       455.4593 
 262   0.0000      16.766374       456.2362 
 263   0.0000      16.793339       456.9700 
 264   0.0000      16.808785       457.3903 
 265   0.0000      16.911835       460.1944 
 266   0.0000      17.072768       464.5736 
 267   0.0000      17.254442       469.5172 
 268   0.0000      17.380761       472.9546 
 269   0.0000      17.395588       473.3580 
 270   0.0000      17.439513       474.5533 
 271   0.0000      17.536618       477.1956 
 272   0.0000      17.587734       478.5866 
 273   0.0000      17.634006       479.8457 
 274   0.0000      17.749376       482.9851 
 275   0.0000      17.892285       486.8738 
 276   0.0000      17.894610       486.9371 
 277   0.0000      17.934207       488.0146 
 278   0.0000      18.392107       500.4747 
 279   0.0000      18.462431       502.3883 
 280   0.0000      18.946764       515.5676 
 281   0.0000      19.260587       524.1072 
 282   0.0000      19.490391       530.3605 
 283   0.0000      19.637817       534.3722 
 284   0.0000      20.342588       553.5500 
 285   0.0000      20.505478       557.9824 
 286   0.0000      20.638822       561.6109 
 287   0.0000      20.806436       566.1719 
 288   0.0000      20.898285       568.6712 
 289   0.0000      21.173116       576.1498 
 290   0.0000      21.517042       585.5085 
 291   0.0000      22.055337       600.1562 
 292   0.0000      23.535466       640.4326 
 293   0.0000      23.546573       640.7348 
 294   0.0000      23.754731       646.3991 
 295   0.0000      23.856229       649.1610 
 296   0.0000      23.972562       652.3266 
 297   0.0000      24.010790       653.3668 
 298   0.0000      24.197282       658.4415 
 299   0.0000      26.166880       712.0370 
 300   0.0000      27.103582       737.5260 
 301   0.0000      27.144401       738.6367 
 302   0.0000      28.144690       765.8559 
 303   0.0000      31.206987       849.1853 
 304   0.0000      32.216014       876.6423 
 305   0.0000      34.059156       926.7967 
 306   0.0000      34.658596       943.1083 
 307   0.0000      41.247946      1122.4137 
 308   0.0000      41.382397      1126.0723 
 309   0.0000      66.868448      1819.5830 
 310   0.0000      67.035486      1824.1283 
 311   0.0000      67.113598      1826.2538 
 312   0.0000      68.103207      1853.1825 
 313   0.0000      69.395094      1888.3365 
 314   0.0000      90.954266      2474.9914 
 315   0.0000      90.999058      2476.2103 
 316   0.0000      91.172503      2480.9299 
 317   0.0000      91.190241      2481.4126 
 318   0.0000      93.581482      2546.4816 
 319   0.0000      93.679288      2549.1430 
 320   0.0000     144.165346      3922.9385 

                    ********************************
                    * MULLIKEN POPULATION ANALYSIS *
                    ********************************

--------------------------------------------
MULLIKEN ATOMIC CHARGES AND SPIN POPULATIONS
--------------------------------------------
   0 O :   -0.361429   -0.000000
   1 H :    0.180702   -0.000000
   2 H :    0.180726    0.000000
Sum of atomic charges         :    0.0000000
Sum of atomic spin populations:   -0.0000000

-----------------------------------------------------
MULLIKEN REDUCED ORBITAL CHARGES AND SPIN POPULATIONS
-----------------------------------------------------
CHARGE
  0 O s       :     3.748850  s :     3.748850
      pz      :     1.489388  p :     4.593408
      px      :     1.876473
      py      :     1.227547
      dz2     :     0.003830  d :     0.017937
      dxz     :     0.003751
      dyz     :     0.009683
      dx2y2   :     0.000673
      dxy     :     0.000000
      f0      :    -0.000021  f :     0.001134
      f+1     :     0.000024
      f-1     :     0.000083
      f+2     :     0.000560
      f-2     :     0.000000
      f+3     :     0.000224
      f-3     :     0.000264
      g0      :     0.000013  g :     0.000093
      g+1     :    -0.000000
      g-1     :     0.000003
      g+2     :     0.000039
      g-2     :     0.000000
      g+3     :    -0.000001
      g-3     :     0.000038
      g+4     :    -0.000001
      g-4     :     0.000000
      h0      :     0.000001  h :     0.000007
      h+1     :    -0.000000
      h-1     :     0.000003
      h+2     :     0.000000
      h-2     :    -0.000000
      h+3     :    -0.000000
      h-3     :     0.000004
      h+4     :     0.000000
      h-4     :    -0.000000
      h+5     :    -0.000000
      h-5     :     0.000000
  1 H s       :     0.699099  s :     0.699099
      pz      :     0.033271  p :     0.111515
      px      :     0.056246
      py      :     0.021998
      dz2     :     0.002780  d :     0.008103
      dxz     :     0.002243
      dyz     :     0.001422
      dx2y2   :     0.000574
      dxy     :     0.001084
      f0      :    -0.000088  f :     0.000502
      f+1     :     0.000146
      f-1     :     0.000791
      f+2     :    -0.000316
      f-2     :     0.000893
      f+3     :    -0.000895
      f-3     :    -0.000030
      g0      :     0.000007  g :     0.000079
      g+1     :    -0.000001
      g-1     :     0.000035
      g+2     :     0.000030
      g-2     :     0.000070
      g+3     :     0.000103
      g-3     :    -0.000036
      g+4     :    -0.000005
      g-4     :    -0.000123
  2 H s       :     0.699084  s :     0.699084
      pz      :     0.033265  p :     0.111506
      px      :     0.056246
      py      :     0.021995
      dz2     :     0.002780  d :     0.008102
      dxz     :     0.002243
      dyz     :     0.001421
      dx2y2   :     0.000574
      dxy     :     0.001084
      f0      :    -0.000088  f :     0.000502
      f+1     :     0.000146
      f-1     :     0.000791
      f+2     :    -0.000316
      f-2     :     0.000893
      f+3     :    -0.000895
      f-3     :    -0.000030
      g0      :     0.000007  g :     0.000079
      g+1     :    -0.000001
      g-1     :     0.000035
      g+2     :     0.000030
      g-2     :     0.000070
      g+3     :     0.000103
      g-3     :    -0.000036
      g+4     :    -0.000005
      g-4     :    -0.000123

SPIN
  0 O s       :    -0.000000  s :    -0.000000
      pz      :    -0.000000  p :    -0.000000
      px      :     0.000000
      py      :    -0.000000
      dz2     :    -0.000000  d :    -0.000000
      dxz     :     0.000000
      dyz     :    -0.000000
      dx2y2   :    -0.000000
      dxy     :     0.000000
      f0      :     0.000000  f :     0.000000
      f+1     :     0.000000
      f-1     :     0.000000
      f+2     :     0.000000
      f-2     :     0.000000
      f+3     :     0.000000
      f-3     :     0.000000
      g0      :     0.000000  g :     0.000000
      g+1     :    -0.000000
      g-1     :     0.000000
      g+2     :     0.000000
      g-2     :    -0.000000
      g+3     :     0.000000
      g-3     :     0.000000
      g+4     :    -0.000000
      g-4     :     0.000000
      h0      :     0.000000  h :     0.000000
      h+1     :    -0.000000
      h-1     :     0.000000
      h+2     :     0.000000
      h-2     :     0.000000
      h+3     :     0.000000
      h-3     :     0.000000
      h+4     :     0.000000
      h-4     :    -0.000000
      h+5     :    -0.000000
      h-5     :     0.000000
  1 H s       :    -0.000000  s :    -0.000000
      pz      :    -0.000000  p :    -0.000000
      px      :    -0.000000
      py      :    -0.000000
      dz2     :    -0.000000  d :    -0.000000
      dxz     :     0.000000
      dyz     :    -0.000000
      dx2y2   :    -0.000000
      dxy     :    -0.000000
      f0      :    -0.000000  f :    -0.000000
      f+1     :    -0.000000
      f-1     :    -0.000000
      f+2     :     0.000000
      f-2     :     0.000000
      f+3     :    -0.000000
      f-3     :    -0.000000
      g0      :     0.000000  g :    -0.000000
      g+1     :     0.000000
      g-1     :    -0.000000
      g+2     :    -0.000000
      g-2     :     0.000000
      g+3     :     0.000000
      g-3     :    -0.000000
      g+4     :    -0.000000
      g-4     :    -0.000000
  2 H s       :     0.000000  s :     0.000000
      pz      :     0.000000  p :     0.000000
      px      :    -0.000000
      py      :     0.000000
      dz2     :     0.000000  d :     0.000000
      dxz     :    -0.000000
      dyz     :     0.000000
      dx2y2   :     0.000000
      dxy     :    -0.000000
      f0      :     0.000000  f :     0.000000
      f+1     :     0.000000
      f-1     :     0.000000
      f+2     :     0.000000
      f-2     :    -0.000000
      f+3     :    -0.000000
      f-3     :     0.000000
      g0      :    -0.000000  g :     0.000000
      g+1     :    -0.000000
      g-1     :     0.000000
      g+2     :     0.000000
      g-2     :     0.000000
      g+3     :    -0.000000
      g-3     :    -0.000000
      g+4     :     0.000000
      g-4     :    -0.000000


                     *******************************
                     * LOEWDIN POPULATION ANALYSIS *
                     *******************************

-------------------------------------------
LOEWDIN ATOMIC CHARGES AND SPIN POPULATIONS
-------------------------------------------
   0 O :    1.372954   -0.000000
   1 H :   -0.686477   -0.000000
   2 H :   -0.686477    0.000000

----------------------------------------------------
LOEWDIN REDUCED ORBITAL CHARGES AND SPIN POPULATIONS
----------------------------------------------------
CHARGE
  0 O s       :     2.914165  s :     2.914165
      pz      :     1.238268  p :     3.634022
      px      :     1.301787
      py      :     1.093967
      dz2     :     0.002687  d :     0.064464
      dxz     :     0.002507
      dyz     :     0.043757
      dx2y2   :     0.015513
      dxy     :     0.000000
      f0      :     0.001110  f :     0.011421
      f+1     :     0.000080
      f-1     :     0.003552
      f+2     :     0.004394
      f-2     :     0.000000
      f+3     :     0.000676
      f-3     :     0.001610
      g0      :     0.000164  g :     0.002062
      g+1     :     0.000008
      g-1     :     0.000264
      g+2     :     0.000619
      g-2     :     0.000000
      g+3     :     0.000399
      g-3     :     0.000538
      g+4     :     0.000070
      g-4     :     0.000000
      h0      :     0.000132  h :     0.000912
      h+1     :     0.000009
      h-1     :     0.000106
      h+2     :     0.000228
      h-2     :     0.000000
      h+3     :     0.000153
      h-3     :     0.000041
      h+4     :     0.000106
      h-4     :     0.000000
      h+5     :     0.000065
      h-5     :     0.000073
  1 H s       :     0.612206  s :     0.612206
      pz      :     0.206455  p :     0.572217
      px      :     0.172421
      py      :     0.193341
      dz2     :     0.084770  d :     0.390560
      dxz     :     0.046902
      dyz     :     0.102271
      dx2y2   :     0.071856
      dxy     :     0.084761
      f0      :     0.005993  f :     0.102147
      f+1     :     0.001929
      f-1     :     0.033008
      f+2     :     0.011458
      f-2     :     0.023467
      f+3     :     0.014944
      f-3     :     0.011349
      g0      :     0.000735  g :     0.009346
      g+1     :     0.000007
      g-1     :     0.001053
      g+2     :     0.002242
      g-2     :     0.000428
      g+3     :     0.001449
      g-3     :     0.001136
      g+4     :     0.001448
      g-4     :     0.000849
  2 H s       :     0.612206  s :     0.612206
      pz      :     0.206455  p :     0.572217
      px      :     0.172421
      py      :     0.193341
      dz2     :     0.084770  d :     0.390560
      dxz     :     0.046902
      dyz     :     0.102271
      dx2y2   :     0.071856
      dxy     :     0.084761
      f0      :     0.005993  f :     0.102147
      f+1     :     0.001929
      f-1     :     0.033008
      f+2     :     0.011458
      f-2     :     0.023467
      f+3     :     0.014944
      f-3     :     0.011349
      g0      :     0.000735  g :     0.009346
      g+1     :     0.000007
      g-1     :     0.001053
      g+2     :     0.002242
      g-2     :     0.000428
      g+3     :     0.001449
      g-3     :     0.001136
      g+4     :     0.001448
      g-4     :     0.000849

SPIN
  0 O s       :    -0.000000  s :    -0.000000
      pz      :    -0.000000  p :    -0.000000
      px      :     0.000000
      py      :    -0.000000
      dz2     :    -0.000000  d :    -0.000000
      dxz     :    -0.000000
      dyz     :    -0.000000
      dx2y2   :     0.000000
      dxy     :    -0.000000
      f0      :    -0.000000  f :    -0.000000
      f+1     :    -0.000000
      f-1     :    -0.000000
      f+2     :    -0.000000
      f-2     :     0.000000
      f+3     :    -0.000000
      f-3     :     0.000000
      g0      :    -0.000000  g :    -0.000000
      g+1     :     0.000000
      g-1     :     0.000000
      g+2     :     0.000000
      g-2     :     0.000000
      g+3     :    -0.000000
      g-3     :    -0.000000
      g+4     :     0.000000
      g-4     :     0.000000
      h0      :     0.000000  h :    -0.000000
      h+1     :    -0.000000
      h-1     :     0.000000
      h+2     :     0.000000
      h-2     :     0.000000
      h+3     :     0.000000
      h-3     :    -0.000000
      h+4     :    -0.000000
      h-4     :     0.000000
      h+5     :     0.000000
      h-5     :    -0.000000
  1 H s       :    -0.000000  s :    -0.000000
      pz      :    -0.000000  p :     0.000000
      px      :    -0.000000
      py      :     0.000000
      dz2     :    -0.000000  d :     0.000000
      dxz     :     0.000000
      dyz     :     0.000000
      dx2y2   :     0.000000
      dxy     :    -0.000000
      f0      :    -0.000000  f :     0.000000
      f+1     :     0.000000
      f-1     :     0.000000
      f+2     :     0.000000
      f-2     :     0.000000
      f+3     :    -0.000000
      f-3     :    -0.000000
      g0      :     0.000000  g :     0.000000
      g+1     :    -0.000000
      g-1     :     0.000000
      g+2     :     0.000000
      g-2     :     0.000000
      g+3     :    -0.000000
      g-3     :     0.000000
      g+4     :    -0.000000
      g-4     :     0.000000
  2 H s       :     0.000000  s :     0.000000
      pz      :     0.000000  p :     0.000000
      px      :     0.000000
      py      :    -0.000000
      dz2     :    -0.000000  d :    -0.000000
      dxz     :    -0.000000
      dyz     :    -0.000000
      dx2y2   :     0.000000
      dxy     :    -0.000000
      f0      :     0.000000  f :    -0.000000
      f+1     :    -0.000000
      f-1     :     0.000000
      f+2     :    -0.000000
      f-2     :    -0.000000
      f+3     :    -0.000000
      f-3     :    -0.000000
      g0      :     0.000000  g :    -0.000000
      g+1     :     0.000000
      g-1     :    -0.000000
      g+2     :    -0.000000
      g-2     :    -0.000000
      g+3     :     0.000000
      g-3     :    -0.000000
      g+4     :     0.000000
      g-4     :    -0.000000


                      *****************************
                      * MAYER POPULATION ANALYSIS *
                      *****************************

  NA   - Mulliken gross atomic population
  ZA   - Total nuclear charge
  QA   - Mulliken gross atomic charge
  VA   - Mayer's total valence
  BVA  - Mayer's bonded valence
  FA   - Mayer's free valence

  ATOM       NA         ZA         QA         VA         BVA        FA
  0 O      8.3614     8.0000    -0.3614     2.1177     2.1177     0.0000
  1 H      0.8193     1.0000     0.1807     1.0832     1.0832    -0.0000
  2 H      0.8193     1.0000     0.1807     1.0832     1.0832     0.0000

  Mayer bond orders larger than 0.1
B(  0-O ,  1-H ) :   1.0589 B(  0-O ,  2-H ) :   1.0588 

-------
TIMINGS
-------

Total SCF time: 0 days 0 hours 21 min 16 sec 

Total time                  ....    1276.475 sec
Sum of individual times     ....    1275.768 sec  ( 99.9%)

Fock matrix formation       ....    1269.263 sec  ( 99.4%)
  XC integration            ....      77.350 sec  (  6.1% of F)
    Basis function eval.    ....       5.638 sec  (  7.3% of XC)
    Density eval.           ....      16.550 sec  ( 21.4% of XC)
    XC-Functional eval.     ....       0.895 sec  (  1.2% of XC)
    XC-Potential eval.      ....      53.468 sec  ( 69.1% of XC)
Diagonalization             ....       0.794 sec  (  0.1%)
Density matrix formation    ....       0.014 sec  (  0.0%)
Population analysis         ....       0.071 sec  (  0.0%)
Initial guess               ....       3.528 sec  (  0.3%)
Orbital Transformation      ....       0.000 sec  (  0.0%)
Orbital Orthonormalization  ....       0.000 sec  (  0.0%)
DIIS solution               ....       0.367 sec  (  0.0%)
Grid generation             ....       1.731 sec  (  0.1%)

-------------------------   --------------------
FINAL SINGLE POINT ENERGY       -76.388517647331
-------------------------   --------------------


                            ***************************************
                            *     ORCA property calculations      *
                            ***************************************

                                    ---------------------
                                    Active property flags
                                    ---------------------
   (+) Dipole Moment
   (+) Polarizability


------------------------------------------------------------------------------
                       ORCA ELECTRIC PROPERTIES CALCULATION
------------------------------------------------------------------------------

Dipole Moment Calculation                       ... on
Quadrupole Moment Calculation                   ... off
Polarizability Calculation                      ... Analytic (CP-SCF)
GBWName                                         ... h2o_pbe.gbw
Electron density file                           ... h2o_pbe.scfp.tmp
The origin for moment calculation is the CENTER OF MASS  = ( 0.000000,  0.000000  0.097636)

-------------
DIPOLE MOMENT
-------------
                                X             Y             Z
Electronic contribution:      0.00000       0.00000       0.26997
Nuclear contribution   :      0.00000       0.00000      -0.97636
                        -----------------------------------------
Total Dipole Moment    :      0.00000       0.00000      -0.70639
                        -----------------------------------------
Magnitude (a.u.)       :      0.70639
Magnitude (Debye)      :      1.79550



--------------------
Rotational spectrum 
--------------------
 
Rotational constants in cm-1:    27.372330    14.584286     9.514730 
Rotational constants in MHz : 820601.811463 437225.885101 285244.437146 

 Dipole components along the rotational axes: 
x,y,z [a.u.] :     0.000000    -0.706389     0.000000 
x,y,z [Debye]:     0.000000    -1.795497     0.000000 

 
Transforming and storing MO dipole integrals   ... done

                ... starting polarizability calculation

Opening the Dipole integral file               ... (h2o_pbe.dmo.tmp) done
Reading Dipole-MO integrals                    ... done
Solving CP-SCF equations                       ... 
------------------------------------------------------------------------------
                           ORCA CP-SCF CALCULATION
------------------------------------------------------------------------------

Input orbitals are from        ... h2o_pbe.gbw
Input Perturbation             ... h2o_pbe.cpv.tmp
Wavefunction output            ... h2o_pbe.cpu.tmp
Perturbation mode              ... Real perturbation (singlet)
Solver                         ... POPLE
Max. number of iterations      ... 200
Convergence tolerance          ... 1.000e-06
Integral handling              ... Direct
Number of perturbations        ... 3
Number of operators            ... 2
Orbital ranges used for CP-SCF:
 Operator 0:  Orbitals   0...  4  to   5...320
 Operator 1:  Orbitals   0...  4  to   5...320
DFT calculation                         ... on
Exchange functional (SCF)               ... PBE
Exchange functional (CP-SCF)            ... PBE
   PBE kappa parameter  XKappa (SCF)    ...  0.804000
   PBE kappa parameter  XKappa (CP-SCF) ...  0.804000
   PBE mue parameter   XMuePBE (SCF)    ...  0.219520
   PBE mue parameter   XMuePBE (CP-SCF) ...  0.219520
Correlation functional (SCF)            ... PBE
Correlation functional (CP-SCF)         ... PBE
   PBE beta parameter CBetaPBE (SCF)    ...  0.066725
   PBE beta parameter CBetaPBE (CP-SCF) ...  0.066725
 LDA part of GGA corr.  LDAOpt (SCF)    ... PW91-LDA
 LDA part of GGA corr.  LDAOpt (CP-SCF) ... PW91-LDA
Variables per vector in CP-SCF ... 3160
Number of vectors sought       ... 3
Recalculating density on grid  ... done
Calculating the xc-kernel      ... done
     CP-SCF ITERATION   0: 
     CP-SCF ITERATION   1:      0.072933225594
     CP-SCF ITERATION   2:      0.001068223431
     CP-SCF ITERATION   3:      0.000003732915
     CP-SCF ITERATION   4:      0.000000092748
done
Reading CP-SCF coefficients                    ... done
Doing the polarizability tensor   ... done
Cleaning up                                    ... done

-------------------------
THE POLARIZABILITY TENSOR
-------------------------

The raw cartesian tensor (atomic units):
   10.61126      0.00000     -0.00000  
    0.00000     10.59808     -0.00000  
   -0.00000     -0.00000     10.53638  
diagonalized tensor: 
   10.53638     10.59808     10.61126  

    0.00000     -0.00000     -1.00000  
    0.00000      1.00000     -0.00000  
    1.00000     -0.00000      0.00000  

Isotropic polarizability :  10.58191


Timings for individual modules:

Sum of individual times         ...     2167.157 sec (=  36.119 min)
GTO integral calculation        ...        5.639 sec (=   0.094 min)   0.3 %
SCF iterations                  ...     1280.632 sec (=  21.344 min)  59.1 %
Solution of CP-SCF eqns.        ...      880.885 sec (=  14.681 min)  40.6 %
                             ****ORCA TERMINATED NORMALLY****
TOTAL RUN TIME: 0 days 0 hours 36 minutes 7 seconds 539 msec
