
                                 *****************
                                 * O   R   C   A *
                                 *****************

           --- An Ab Initio, DFT and Semiempirical electronic structure package ---

                  #######################################################
                  #                        -***-                        #
                  #          Department of theory and spectroscopy      #
                  #               Directorship: Frank Neese             #
                  #        Max Planck Institute fuer Kohlenforschung    #
                  #                Kaiser Wilhelm Platz 1               #
                  #                 D-45470 Muelheim/Ruhr               #
                  #                      Germany                        #
                  #                                                     #
                  #                  All rights reserved                #
                  #                        -***-                        #
                  #######################################################


                         Program Version 4.1.2  - RELEASE  -


 With contributions from (in alphabetic order):
   Daniel Aravena         : Magnetic Properties
   Michael Atanasov       : Ab Initio Ligand Field Theory
   Alexander A. Auer      : GIAO ZORA
   Ute Becker             : Parallelization
   Giovanni Bistoni       : ED, Open-shell LED
   Martin Brehm           : Molecular dynamics
   Dmytro Bykov           : SCF Hessian
   Vijay G. Chilkuri      : MRCI spin determinant printing
   Dipayan Datta          : RHF DLPNO-CCSD density
   Achintya Kumar Dutta   : EOM-CC, STEOM-CC
   Dmitry Ganyushin       : Spin-Orbit,Spin-Spin,Magnetic field MRCI
   Miquel Garcia          : C-PCM Hessian
   Yang Guo               : DLPNO-NEVPT2, CIM, IAO-localization
   Andreas Hansen         : Spin unrestricted coupled pair/coupled cluster methods
   Benjamin Helmich-Paris : CASSCF linear response (MC-RPA)
   Lee Huntington         : MR-EOM, pCC
   Robert Izsak           : Overlap fitted RIJCOSX, COSX-SCS-MP3, EOM
   Christian Kollmar      : KDIIS, OOCD, Brueckner-CCSD(T), CCSD density
   Simone Kossmann        : Meta GGA functionals, TD-DFT gradient, OOMP2, MP2 Hessian
   Martin Krupicka        : AUTO-CI
   Lucas Lang             : DCDCAS
   Dagmar Lenk            : GEPOL surface, SMD
   Dimitrios Liakos       : Extrapolation schemes; parallel MDCI
   Dimitrios Manganas     : ROCIS; embedding schemes
   Dimitrios Pantazis     : SARC Basis sets
   Taras Petrenko         : DFT Hessian,TD-DFT gradient, ASA, ECA, R-Raman, ABS, FL, XAS/XES, NRVS
   Peter Pinski           : DLPNO-MP2, DLPNO-MP2 Gradient
   Christoph Reimann      : Effective Core Potentials
   Marius Retegan         : Local ZFS, SOC
   Christoph Riplinger    : Optimizer, TS searches, QM/MM, DLPNO-CCSD(T), (RO)-DLPNO pert. Triples
   Tobias Risthaus        : Range-separated hybrids, TD-DFT gradient, RPA, STAB
   Michael Roemelt        : Restricted open shell CIS
   Masaaki Saitow         : Open-shell DLPNO
   Barbara Sandhoefer     : DKH picture change effects
   Avijit Sen             : IP-ROCIS
   Kantharuban Sivalingam : CASSCF convergence, NEVPT2, FIC-MRCI
   Bernardo de Souza      : ESD, SOC TD-DFT
   Georgi Stoychev        : AutoAux, RI-MP2 NMR
   Willem Van den Heuvel  : Paramagnetic NMR
   Boris Wezisla          : Elementary symmetry handling
   Frank Wennmohs         : Technical directorship


 We gratefully acknowledge several colleagues who have allowed us to
 interface, adapt or use parts of their codes:
   Stefan Grimme, W. Hujo, H. Kruse,             : VdW corrections, initial TS optimization,
                  C. Bannwarth                     DFT functionals, gCP, sTDA/sTD-DF
   Ed Valeev                                     : LibInt (2-el integral package), F12 methods
   Garnet Chan, S. Sharma, J. Yang, R. Olivares  : DMRG
   Ulf Ekstrom                                   : XCFun DFT Library
   Mihaly Kallay                                 : mrcc  (arbitrary order and MRCC methods)
   Andreas Klamt, Michael Diedenhofen            : otool_cosmo (COSMO solvation model)
   Jiri Pittner, Ondrej Demel                    : Mk-CCSD
   Frank Weinhold                                : gennbo (NPA and NBO analysis)
   Christopher J. Cramer and Donald G. Truhlar   : smd solvation model
   Lars Goerigk                                  : TD-DFT with DH, B97 family of functionals
   V. Asgeirsson, H. Jonsson                     : NEB implementation
   FAccTs GmbH                                   : IRC, NEB, NEB-TS, Multilevel


 Your calculation uses the libint2 library for the computation of 2-el integrals
 For citations please refer to: http://libint.valeyev.net

 This ORCA versions uses:
   CBLAS   interface :  Fast vector & matrix operations
   LAPACKE interface :  Fast linear algebra routines
   SCALAPACK package :  Parallel linear algebra routines


----- Orbital basis set information -----
Your calculation utilizes the basis: aug-pc-4
   H, C-F              : F. Jensen, J. Chem. Phys. 115, 9113 (2001).
                         F. Jensen, J. Chem. Phys. 116, 7372 (2002).
                         F. Jensen, J. Chem. Phys. 117, 9234 (2002).
   Si-Cl               : F. Jensen, T. Helgaker, J. Chem. Phys. 121, 3463 (2004).
   He-B, Ne-Mg, Al, Ar : F. Jensen, J. Phys. Chem. A 111, 11198 (2007).
   K, Ca, Ga-Kr        : F. Jensen, J. Chem. Phys. 136, 094110 (2012).
   Sc-Zn               : F. Jensen, J. Chem. Phys. 138, 014107 (2013).

================================================================================
                                        WARNINGS
                       Please study these warnings very carefully!
================================================================================


INFO   : the flag for use of LIBINT has been found!

================================================================================
                                       INPUT FILE
================================================================================
NAME = h_pbe.inp
|  1> !uks pbe nori aug-pc-4 grid7 nofinalgrid verytightscf
|  2> 
|  3> %maxcore 1500
|  4> 
|  5> %pal nprocs 1 end
|  6> 
|  7> %scf
|  8> 	maxiter 200
|  9> end
| 10> %elprop
| 11> 	dipole true
| 12> 	 polar 1
| 13> 	 maxiter 200
| 14> end
| 15> 
| 16> * xyz 0 2
| 17> H 0.0 0.0 0.0
| 18> *
| 19> 
| 20>                          ****END OF INPUT****
================================================================================

                       ****************************
                       * Single Point Calculation *
                       ****************************

---------------------------------
CARTESIAN COORDINATES (ANGSTROEM)
---------------------------------
  H      0.000000    0.000000    0.000000

----------------------------
CARTESIAN COORDINATES (A.U.)
----------------------------
  NO LB      ZA    FRAG     MASS         X           Y           Z
   0 H     1.0000    0     1.008    0.000000    0.000000    0.000000

--------------------------------
INTERNAL COORDINATES (ANGSTROEM)
--------------------------------
 H      0   0   0     0.000000000000     0.00000000     0.00000000

---------------------------
INTERNAL COORDINATES (A.U.)
---------------------------
 H      0   0   0     0.000000000000     0.00000000     0.00000000

---------------------
BASIS SET INFORMATION
---------------------
There are 1 groups of distinct atoms

 Group   1 Type H   : 12s7p4d3f2g contracted to 8s7p4d3f2g pattern {51111111/1111111/1111/111/11}

Atom   0H    basis set group =>   1
------------------------------------------------------------------------------
                           ORCA GTO INTEGRAL CALCULATION
------------------------------------------------------------------------------

                         BASIS SET STATISTICS AND STARTUP INFO

 # of primitive gaussian shells          ...   28
 # of primitive gaussian functions       ...   92
 # of contracted shells                  ...   24
 # of contracted basis functions         ...   88
 Highest angular momentum                ...    4
 Maximum contraction depth               ...    5
 Integral package used                   ... LIBINT
 Integral threshhold            Thresh   ...  1.000e-12
 Primitive cut-off              TCut     ...  1.000e-14


------------------------------ INTEGRAL EVALUATION ----------------------------


 * One electron integrals 
 Pre-screening matrix                    ... done
 Shell pair data                         ... done (   0.000 sec)

-------------------------------------------------------------------------------
                                 ORCA SCF
-------------------------------------------------------------------------------

------------
SCF SETTINGS
------------
Hamiltonian:
 Density Functional     Method          .... DFT(GTOs)
 Exchange Functional    Exchange        .... PBE
   PBE kappa parameter   XKappa         ....  0.804000
   PBE mue parameter    XMuePBE         ....  0.219520
 Correlation Functional Correlation     .... PBE
   PBE beta parameter  CBetaPBE         ....  0.066725
 LDA part of GGA corr.  LDAOpt          .... PW91-LDA
 Gradients option       PostSCFGGA      .... off
   Density functional embedding theory  .... OFF
   NL short-range parameter             ....  6.400000


General Settings:
 Integral files         IntName         .... h_pbe
 Hartree-Fock type      HFTyp           .... UHF
 Total Charge           Charge          ....    0
 Multiplicity           Mult            ....    2
 Number of Electrons    NEL             ....    1
 Basis Dimension        Dim             ....   88
 Nuclear Repulsion      ENuc            ....      0.0000000000 Eh

Convergence Acceleration:
 DIIS                   CNVDIIS         .... on
   Start iteration      DIISMaxIt       ....    12
   Startup error        DIISStart       ....  0.200000
   # of expansion vecs  DIISMaxEq       ....     5
   Bias factor          DIISBfac        ....   1.050
   Max. coefficient     DIISMaxC        ....  10.000
 Newton-Raphson         CNVNR           .... off
 SOSCF                  CNVSOSCF        .... off
 Level Shifting         CNVShift        .... on
   Level shift para.    LevelShift      ....    0.2500
   Turn off err/grad.   ShiftErr        ....    0.0010
 Zerner damping         CNVZerner       .... off
 Static damping         CNVDamp         .... on
   Fraction old density DampFac         ....    0.7000
   Max. Damping (<1)    DampMax         ....    0.9800
   Min. Damping (>=0)   DampMin         ....    0.0000
   Turn off err/grad.   DampErr         ....    0.1000
 Fernandez-Rico         CNVRico         .... off

SCF Procedure:
 Maximum # iterations   MaxIter         ....   200
 SCF integral mode      SCFMode         .... Direct
   Integral package                     .... LIBINT
 Reset frequency        DirectResetFreq ....    20
 Integral Threshold     Thresh          ....  1.000e-12 Eh
 Primitive CutOff       TCut            ....  1.000e-14 Eh

Convergence Tolerance:
 Convergence Check Mode ConvCheckMode   .... Total+1el-Energy
 Convergence forced     ConvForced      .... 0
 Energy Change          TolE            ....  1.000e-09 Eh
 1-El. energy change                    ....  1.000e-06 Eh
 DIIS Error             TolErr          ....  1.000e-08


Diagonalization of the overlap matrix:
Smallest eigenvalue                        ... 2.833e-03
Time for diagonalization                   ...    0.017 sec
Threshold for overlap eigenvalues          ... 1.000e-08
Number of eigenvalues below threshold      ... 0
Time for construction of square roots      ...    0.006 sec
Total time needed                          ...    0.023 sec

-------------------
DFT GRID GENERATION
-------------------

General Integration Accuracy     IntAcc      ...  5.670
Radial Grid Type                 RadialGrid  ... Gauss-Chebyshev
Angular Grid (max. acc.)         AngularGrid ... Lebedev-770
Angular grid pruning method      GridPruning ... 3 (G Style)
Weight generation scheme         WeightScheme... Becke
Basis function cutoff            BFCut       ...    1.0000e-12
Integration weight cutoff        WCut        ...    1.0000e-14
Grids for H and He will be reduced by one unit

# of grid points (after initial pruning)     ...  17836 (   0.0 sec)
# of grid points (after weights+screening)   ...  17836 (   0.0 sec)
Grid point division into batches done        ...    0.3 sec
Reduced shell lists constructed in    0.3 sec

Total number of grid points                  ...    17836
Total number of batches                      ...      279
Average number of points per batch           ...       63
Average number of grid points per atom       ...    17836
Average number of shells per batch           ...    20.32 (84.66%)
Average number of basis functions per batch  ...    75.23 (85.49%)
Average number of large shells per batch     ...    19.34 (95.18%)
Average number of large basis fcns per batch ...    71.32 (94.80%)
Maximum spatial batch extension              ...  14.79, 14.79, 14.79 au
Average spatial batch extension              ...   2.68,  2.72,  2.75 au

Time for grid setup =    0.318 sec

------------------------------
INITIAL GUESS: MODEL POTENTIAL
------------------------------
Loading Hartree-Fock densities                     ... done
Calculating cut-offs                               ... done
Setting up the integral package                    ... done
Initializing the effective Hamiltonian             ... done
Starting the Coulomb interaction                   ... done (   0.0 sec)
Reading the grid                                   ... done
Mapping shells                                     ... done
Starting the XC term evaluation                    ... done (   0.1 sec)
  promolecular density results
     # of electrons  =      0.999510424
     EX              =     -0.254114715
     EC              =     -0.014928917
     EX+EC           =     -0.269043632
Transforming the Hamiltonian                       ... done (   0.0 sec)
Diagonalizing the Hamiltonian                      ... done (   0.0 sec)
Back transforming the eigenvectors                 ... done (   0.0 sec)
Now organizing SCF variables                       ... done
                      ------------------
                      INITIAL GUESS DONE (   0.6 sec)
                      ------------------
--------------
SCF ITERATIONS
--------------
ITER       Energy         Delta-E        Max-DP      RMS-DP      [F,P]     Damp
               ***  Starting incremental Fock matrix formation  ***
  0     -0.4978728714   0.000000000000 0.00828530  0.00009096  0.0357125 0.7000
  1     -0.4985062408  -0.000633369403 0.00731235  0.00008868  0.0269517 0.7000
                               ***Turning on DIIS***
  2     -0.4989873336  -0.000481092790 0.01633436  0.00021929  0.0187191 0.0000
  3     -0.4999835079  -0.000996174294 0.00365405  0.00004161  0.0021457 0.0000
  4     -0.4999897492  -0.000006241285 0.00120861  0.00001508  0.0005524 0.0000
  5     -0.4999904055  -0.000000656308 0.00001706  0.00000021  0.0000225 0.0000
                 **** Energy Check signals convergence ****

               *****************************************************
               *                     SUCCESS                       *
               *           SCF CONVERGED AFTER   6 CYCLES          *
               *****************************************************


----------------
TOTAL SCF ENERGY
----------------

Total Energy       :           -0.49999041 Eh             -13.60543 eV

Components:
Nuclear Repulsion  :            0.00000000 Eh               0.00000 eV
Electronic Energy  :           -0.49999041 Eh             -13.60543 eV
One Electron Energy:           -0.49935132 Eh             -13.58804 eV
Two Electron Energy:           -0.00063908 Eh              -0.01739 eV

Virial components:
Potential Energy   :           -0.99480640 Eh             -27.07006 eV
Kinetic Energy     :            0.49481600 Eh              13.46463 eV
Virial Ratio       :            2.01045724


DFT components:
N(Alpha)           :        1.000000000138 electrons
N(Beta)            :        0.000000000040 electrons
N(Total)           :        1.000000000178 electrons
E(X)               :       -0.301759117163 Eh       
E(C)               :       -0.005707252180 Eh       
E(XC)              :       -0.307466369343 Eh       
DFET-embed. en.    :        0.000000000000 Eh       

---------------
SCF CONVERGENCE
---------------

  Last Energy change         ...   -7.1431e-10  Tolerance :   1.0000e-09
  Last MAX-Density change    ...    4.7432e-07  Tolerance :   1.0000e-08
  Last RMS-Density change    ...    8.4251e-09  Tolerance :   1.0000e-09
  Last DIIS Error            ...    4.7064e-07  Tolerance :   1.0000e-08

             **** THE GBW FILE WAS UPDATED (h_pbe.gbw) ****
             **** DENSITY FILE WAS UPDATED (h_pbe.scfp.tmp) ****
             **** ENERGY FILE WAS UPDATED (h_pbe.en.tmp) ****
----------------------
UHF SPIN CONTAMINATION
----------------------

Warning: in a DFT calculation there is little theoretical justification to 
         calculate <S**2> as in Hartree-Fock theory. We will do it anyways
         but you should keep in mind that the values have only limited relevance

Expectation value of <S**2>     :     0.750000
Ideal value S*(S+1) for S=0.5   :     0.750000
Deviation                       :     0.000000

----------------
ORBITAL ENERGIES
----------------
                 SPIN UP ORBITALS
  NO   OCC          E(Eh)            E(eV) 
   0   1.0000      -0.279087        -7.5944 
   1   0.0000       0.006174         0.1680 
   2   0.0000       0.041542         1.1304 
   3   0.0000       0.041542         1.1304 
   4   0.0000       0.041542         1.1304 
   5   0.0000       0.101233         2.7547 
   6   0.0000       0.166490         4.5304 
   7   0.0000       0.166490         4.5304 
   8   0.0000       0.166490         4.5304 
   9   0.0000       0.166490         4.5304 
  10   0.0000       0.166490         4.5304 
  11   0.0000       0.290438         7.9032 
  12   0.0000       0.290438         7.9032 
  13   0.0000       0.290438         7.9032 
  14   0.0000       0.319978         8.7070 
  15   0.0000       0.319978         8.7070 
  16   0.0000       0.319978         8.7070 
  17   0.0000       0.319978         8.7070 
  18   0.0000       0.319978         8.7070 
  19   0.0000       0.319978         8.7070 
  20   0.0000       0.319978         8.7070 
  21   0.0000       0.403174        10.9709 
  22   0.0000       0.503443        13.6994 
  23   0.0000       0.503443        13.6994 
  24   0.0000       0.503443        13.6994 
  25   0.0000       0.503443        13.6994 
  26   0.0000       0.503443        13.6994 
  27   0.0000       0.503443        13.6994 
  28   0.0000       0.503443        13.6994 
  29   0.0000       0.503443        13.6994 
  30   0.0000       0.503443        13.6994 
  31   0.0000       0.854240        23.2450 
  32   0.0000       0.854240        23.2450 
  33   0.0000       0.854240        23.2450 
  34   0.0000       0.854240        23.2450 
  35   0.0000       0.854240        23.2450 
  36   0.0000       1.059916        28.8418 
  37   0.0000       1.059916        28.8418 
  38   0.0000       1.059916        28.8418 
  39   0.0000       1.234959        33.6049 
  40   0.0000       2.728878        74.2565 
  41   0.0000       2.728878        74.2565 
  42   0.0000       2.728878        74.2565 
  43   0.0000       2.728878        74.2565 
  44   0.0000       2.728878        74.2565 
  45   0.0000       3.076419        83.7136 
  46   0.0000       3.076419        83.7136 
  47   0.0000       3.076419        83.7136 
  48   0.0000       3.461870        94.2023 
  49   0.0000       3.461870        94.2023 
  50   0.0000       3.461870        94.2023 
  51   0.0000       3.461870        94.2023 
  52   0.0000       3.461870        94.2023 
  53   0.0000       3.461870        94.2023 
  54   0.0000       3.461870        94.2023 
  55   0.0000       3.483141        94.7811 
  56   0.0000       7.991373       217.4563 
  57   0.0000       7.991373       217.4563 
  58   0.0000       7.991373       217.4563 
  59   0.0000       8.534649       232.2396 
  60   0.0000       8.534649       232.2396 
  61   0.0000       8.534649       232.2396 
  62   0.0000       8.534649       232.2396 
  63   0.0000       8.534649       232.2396 
  64   0.0000       9.875965       268.7387 
  65   0.0000      12.143102       330.4306 
  66   0.0000      12.143102       330.4306 
  67   0.0000      12.143102       330.4306 
  68   0.0000      12.143102       330.4306 
  69   0.0000      12.143102       330.4306 
  70   0.0000      12.143102       330.4306 
  71   0.0000      12.143102       330.4306 
  72   0.0000      16.673842       453.7183 
  73   0.0000      16.673842       453.7183 
  74   0.0000      16.673842       453.7183 
  75   0.0000      16.673842       453.7183 
  76   0.0000      16.673842       453.7183 
  77   0.0000      16.673842       453.7183 
  78   0.0000      16.673842       453.7183 
  79   0.0000      16.673842       453.7183 
  80   0.0000      16.673842       453.7183 
  81   0.0000      22.838819       621.4759 
  82   0.0000      22.838819       621.4759 
  83   0.0000      22.838819       621.4759 
  84   0.0000      38.008922      1034.2754 
  85   0.0000      90.510148      2462.9063 
  86   0.0000      90.510148      2462.9063 
  87   0.0000      90.510148      2462.9063 

                 SPIN DOWN ORBITALS
  NO   OCC          E(Eh)            E(eV) 
   0   0.0000       0.035521         0.9666 
   1   0.0000       0.211148         5.7456 
   2   0.0000       0.211148         5.7456 
   3   0.0000       0.211148         5.7456 
   4   0.0000       0.227800         6.1987 
   5   0.0000       0.505972        13.7682 
   6   0.0000       0.505972        13.7682 
   7   0.0000       0.505972        13.7682 
   8   0.0000       0.505973        13.7682 
   9   0.0000       0.505973        13.7682 
  10   0.0000       1.102587        30.0029 
  11   0.0000       1.102588        30.0029 
  12   0.0000       1.102588        30.0029 
  13   0.0000       1.102588        30.0029 
  14   0.0000       1.102588        30.0030 
  15   0.0000       1.102588        30.0030 
  16   0.0000       1.102588        30.0030 
  17   0.0000       1.102589        30.0030 
  18   0.0000       1.102589        30.0030 
  19   0.0000       1.141237        31.0546 
  20   0.0000       1.141237        31.0546 
  21   0.0000       1.141238        31.0547 
  22   0.0000       1.141238        31.0547 
  23   0.0000       1.141238        31.0547 
  24   0.0000       1.141239        31.0547 
  25   0.0000       1.141239        31.0547 
  26   0.0000       3.023101        82.2628 
  27   0.0000       5.967714       162.3897 
  28   0.0000       5.967715       162.3898 
  29   0.0000       5.967723       162.3900 
  30   0.0000      22.654742       616.4669 
  31   0.0000      22.654752       616.4672 
  32   0.0000      22.654759       616.4673 
  33   0.0000      22.654799       616.4684 
  34   0.0000      22.654827       616.4692 
  35   0.0000      39.494815      1074.7086 
  36   0.0000      70.128657      1908.2978 
  37   0.0000      70.128901      1908.3044 
  38   0.0000      70.129061      1908.3088 
  39   0.0000     160.246087      4360.5177 
  40   0.0000     160.246261      4360.5224 
  41   0.0000     160.246547      4360.5302 
  42   0.0000     160.247182      4360.5475 
  43   0.0000     160.247539      4360.5572 
  44   0.0000     160.248182      4360.5747 
  45   0.0000     160.248439      4360.5817 
  46   0.0000     179.590241      4886.8989 
  47   0.0000     179.590817      4886.9146 
  48   0.0000     179.591360      4886.9293 
  49   0.0000     179.592604      4886.9632 
  50   0.0000     179.593010      4886.9742 
  51   0.0000     200.387312      5452.8160 
  52   0.0000     265.543002      7225.7924 
  53   0.0000     265.545000      7225.8468 
  54   0.0000     265.546587      7225.8900 
  55   0.0000     463.954286     12624.8380 
  56   0.0000     476.879877     12976.5612 
  57   0.0000     476.889144     12976.8133 
  58   0.0000     476.892055     12976.8925 
  59   0.0000     476.896029     12977.0007 
  60   0.0000     476.898616     12977.0711 
  61   0.0000     476.900185     12977.1138 
  62   0.0000     476.906524     12977.2863 
  63   0.0000     476.909796     12977.3753 
  64   0.0000     476.916457     12977.5566 
  65   0.0000     478.335069     13016.1590 
  66   0.0000     478.339812     13016.2880 
  67   0.0000     478.346549     13016.4713 
  68   0.0000     478.352737     13016.6397 
  69   0.0000     478.357746     13016.7760 
  70   0.0000     478.361857     13016.8879 
  71   0.0000     478.364964     13016.9724 
  72   0.0000     504.192579     13719.7776 
  73   0.0000     504.201407     13720.0178 
  74   0.0000     504.206778     13720.1639 
  75   0.0000     504.209166     13720.2289 
  76   0.0000     504.225966     13720.6861 
  77   0.0000     520.959795     14176.0367 
  78   0.0000     520.968160     14176.2643 
  79   0.0000     520.974363     14176.4331 
  80   0.0000     690.495556     18789.3393 
  81   0.0000     726.185935     19760.5239 
  82   0.0000     726.215578     19761.3305 
  83   0.0000     726.259126     19762.5155 
  84   0.0000     830.153790     22589.6331 
  85   0.0000     887.441481     24148.5104 
  86   0.0000     887.498954     24150.0743 
  87   0.0000     887.531934     24150.9717 

                    ********************************
                    * MULLIKEN POPULATION ANALYSIS *
                    ********************************

--------------------------------------------
MULLIKEN ATOMIC CHARGES AND SPIN POPULATIONS
--------------------------------------------
   0 H :   -0.000000    1.000000
Sum of atomic charges         :   -0.0000000
Sum of atomic spin populations:    1.0000000

-----------------------------------------------------
MULLIKEN REDUCED ORBITAL CHARGES AND SPIN POPULATIONS
-----------------------------------------------------
CHARGE
  0 H s       :     1.000000  s :     1.000000
      pz      :     0.000000  p :     0.000000
      px      :     0.000000
      py      :     0.000000
      dz2     :     0.000000  d :     0.000000
      dxz     :     0.000000
      dyz     :     0.000000
      dx2y2   :     0.000000
      dxy     :     0.000000
      f0      :     0.000000  f :     0.000000
      f+1     :     0.000000
      f-1     :     0.000000
      f+2     :     0.000000
      f-2     :     0.000000
      f+3     :     0.000000
      f-3     :     0.000000
      g0      :     0.000000  g :     0.000000
      g+1     :     0.000000
      g-1     :     0.000000
      g+2     :     0.000000
      g-2     :     0.000000
      g+3     :     0.000000
      g-3     :     0.000000
      g+4     :     0.000000
      g-4     :     0.000000

SPIN
  0 H s       :     1.000000  s :     1.000000
      pz      :     0.000000  p :     0.000000
      px      :     0.000000
      py      :     0.000000
      dz2     :     0.000000  d :     0.000000
      dxz     :     0.000000
      dyz     :     0.000000
      dx2y2   :     0.000000
      dxy     :     0.000000
      f0      :     0.000000  f :     0.000000
      f+1     :     0.000000
      f-1     :     0.000000
      f+2     :     0.000000
      f-2     :     0.000000
      f+3     :     0.000000
      f-3     :     0.000000
      g0      :     0.000000  g :     0.000000
      g+1     :     0.000000
      g-1     :     0.000000
      g+2     :     0.000000
      g-2     :     0.000000
      g+3     :     0.000000
      g-3     :     0.000000
      g+4     :     0.000000
      g-4     :     0.000000


                     *******************************
                     * LOEWDIN POPULATION ANALYSIS *
                     *******************************

-------------------------------------------
LOEWDIN ATOMIC CHARGES AND SPIN POPULATIONS
-------------------------------------------
   0 H :   -0.000000    1.000000

----------------------------------------------------
LOEWDIN REDUCED ORBITAL CHARGES AND SPIN POPULATIONS
----------------------------------------------------
CHARGE
  0 H s       :     1.000000  s :     1.000000
      pz      :     0.000000  p :     0.000000
      px      :     0.000000
      py      :     0.000000
      dz2     :     0.000000  d :     0.000000
      dxz     :     0.000000
      dyz     :     0.000000
      dx2y2   :     0.000000
      dxy     :     0.000000
      f0      :     0.000000  f :     0.000000
      f+1     :     0.000000
      f-1     :     0.000000
      f+2     :     0.000000
      f-2     :     0.000000
      f+3     :     0.000000
      f-3     :     0.000000
      g0      :     0.000000  g :     0.000000
      g+1     :     0.000000
      g-1     :     0.000000
      g+2     :     0.000000
      g-2     :     0.000000
      g+3     :     0.000000
      g-3     :     0.000000
      g+4     :     0.000000
      g-4     :     0.000000

SPIN
  0 H s       :     1.000000  s :     1.000000
      pz      :     0.000000  p :     0.000000
      px      :     0.000000
      py      :     0.000000
      dz2     :     0.000000  d :     0.000000
      dxz     :     0.000000
      dyz     :     0.000000
      dx2y2   :     0.000000
      dxy     :     0.000000
      f0      :     0.000000  f :     0.000000
      f+1     :     0.000000
      f-1     :     0.000000
      f+2     :     0.000000
      f-2     :     0.000000
      f+3     :     0.000000
      f-3     :     0.000000
      g0      :     0.000000  g :     0.000000
      g+1     :     0.000000
      g-1     :     0.000000
      g+2     :     0.000000
      g-2     :     0.000000
      g+3     :     0.000000
      g-3     :     0.000000
      g+4     :     0.000000
      g-4     :     0.000000


                      *****************************
                      * MAYER POPULATION ANALYSIS *
                      *****************************

  NA   - Mulliken gross atomic population
  ZA   - Total nuclear charge
  QA   - Mulliken gross atomic charge
  VA   - Mayer's total valence
  BVA  - Mayer's bonded valence
  FA   - Mayer's free valence

  ATOM       NA         ZA         QA         VA         BVA        FA
  0 H      1.0000     1.0000    -0.0000     1.0000     0.0000     1.0000

  Mayer bond orders larger than 0.1


Local spin analysis not attempted because no beta electrons available
--------------------------
ATOM BASIS FOR ELEMENT H 
--------------------------
 NewGTO H 
 S 12
    1       3079.700000000000         0.000022756588
    2        461.520000000000         0.000176881501
    3        105.060000000000         0.000930050592
    4         29.764000000000         0.003922610258
    5          9.718300000000         0.014161184359
    6          3.517900000000         0.044963235661
    7          1.377000000000         0.115817059885
    8          0.568310000000         0.257630833232
    9          0.243410000000         0.349043464678
   10          0.105050000000         0.298034375734
   11          0.044198000000         0.077973523993
   12          0.017131000000        -0.000958878245
 S 12
    1       3079.700000000000         0.000006436168
    2        461.520000000000         0.000050026789
    3        105.060000000000         0.000263043020
    4         29.764000000000         0.001109418412
    5          9.718300000000         0.004005159225
    6          3.517900000000         0.008544044758
    7          1.377000000000         0.048137211943
    8          0.568310000000         0.027438314623
    9          0.243410000000         0.258172128793
   10          0.105050000000        -0.100144874891
   11          0.044198000000         0.541172852928
   12          0.017131000000        -1.397861434138
 S 12
    1       3079.700000000000         0.000007013852
    2        461.520000000000         0.000054516989
    3        105.060000000000         0.000286652691
    4         29.764000000000         0.001208995290
    5          9.718300000000         0.004364646003
    6          3.517900000000         0.035156286449
    7          1.377000000000        -0.024133588168
    8          0.568310000000         0.379709572465
    9          0.243410000000        -0.508093745348
   10          0.105050000000         2.214633575364
   11          0.044198000000        -3.980620921674
   12          0.017131000000         2.073006122124
 S 12
    1       3079.700000000000         0.000023726424
    2        461.520000000000         0.000184419805
    3        105.060000000000         0.000969687322
    4         29.764000000000         0.004089783364
    5          9.718300000000         0.014764703194
    6          3.517900000000        -0.026843275290
    7          1.377000000000         0.374070596711
    8          0.568310000000        -0.722700363495
    9          0.243410000000         3.575535766150
   10          0.105050000000        -6.181696395054
   11          0.044198000000         4.326725725718
   12          0.017131000000        -1.274269943225
 S 12
    1       3079.700000000000         0.000004302300
    2        461.520000000000         0.000033440749
    3        105.060000000000         0.000175832907
    4         29.764000000000         0.000741598328
    5          9.718300000000         0.002677276086
    6          3.517900000000         0.244438020810
    7          1.377000000000        -0.705808675576
    8          0.568310000000         4.163585963932
    9          0.243410000000        -7.177005353079
   10          0.105050000000         5.830053086727
   11          0.044198000000        -2.760164507826
   12          0.017131000000         0.701767562985
 S 12
    1       3079.700000000000         0.000117881656
    2        461.520000000000         0.000916265845
    3        105.060000000000         0.004817765488
    4         29.764000000000         0.020319557340
    5          9.718300000000         0.073356509740
    6          3.517900000000        -0.484498188688
    7          1.377000000000         3.947613851617
    8          0.568310000000        -6.869643915985
    9          0.243410000000         6.118644452906
   10          0.105050000000        -3.668299303893
   11          0.044198000000         1.568884225701
   12          0.017131000000        -0.393416651521
 S 12
    1       3079.700000000000        -0.000130465891
    2        461.520000000000        -0.001014080084
    3        105.060000000000        -0.005332076992
    4         29.764000000000        -0.022488733509
    5          9.718300000000        -0.081187546122
    6          3.517900000000         3.090187574353
    7          1.377000000000        -5.558234980981
    8          0.568310000000         5.250029727681
    9          0.243410000000        -3.664834767768
   10          0.105050000000         2.052527070874
   11          0.044198000000        -0.874243223006
   12          0.017131000000         0.221562514077
 S 12
    1       3079.700000000000        -0.002558060762
    2        461.520000000000        -0.019883192865
    3        105.060000000000        -0.104546689015
    4         29.764000000000        -0.440939362289
    5          9.718300000000        -1.591854196621
    6          3.517900000000         3.524369860495
    7          1.377000000000        -3.653278518391
    8          0.568310000000         2.906048184954
    9          0.243410000000        -1.974795426011
   10          0.105050000000         1.119736264891
   11          0.044198000000        -0.484442559997
   12          0.017131000000         0.124149264892
 P 7
    1         30.000000000000         0.000202725694
    2          6.600000000000        -0.001250441156
    3          2.100000000000         0.013471376041
    4          0.950000000000        -0.034026333243
    5          0.450000000000         0.104078799403
    6          0.150000000000        -0.080178868856
    7          0.051393000000         1.029603209317
 P 7
    1         30.000000000000        -0.000664105086
    2          6.600000000000         0.008813878354
    3          2.100000000000        -0.047398279185
    4          0.950000000000         0.202312323410
    5          0.450000000000        -0.300354273557
    6          0.150000000000         1.604824548959
    7          0.051393000000        -1.078399809009
 P 7
    1         30.000000000000         0.003271702083
    2          6.600000000000        -0.027357768260
    3          2.100000000000         0.238277637951
    4          0.950000000000        -0.775953323330
    5          0.450000000000         2.234478977005
    6          0.150000000000        -1.722101767680
    7          0.051393000000         0.621509329734
 P 7
    1         30.000000000000        -0.007625151983
    2          6.600000000000         0.097005801501
    3          2.100000000000        -0.637198301712
    4          0.950000000000         3.094802476705
    5          0.450000000000        -2.891423897098
    6          0.150000000000         1.124611547653
    7          0.051393000000        -0.341317680603
 P 7
    1         30.000000000000         0.025214462199
    2          6.600000000000        -0.239799307074
    3          2.100000000000         2.749003171852
    4          0.950000000000        -3.683509072878
    5          0.450000000000         2.126736403368
    6          0.150000000000        -0.659519581484
    7          0.051393000000         0.195169907540
 P 7
    1         30.000000000000        -0.092245485470
    2          6.600000000000         1.749508425019
    3          2.100000000000        -2.442308604997
    4          0.950000000000         2.212047770450
    5          0.450000000000        -1.127035546365
    6          0.150000000000         0.342871073942
    7          0.051393000000        -0.103069355949
 D 4
    1          2.100000000000         0.005298591519
    2          0.700000000000        -0.035645693495
    3          0.300000000000         0.074581499280
    4          0.068524000000        -1.025037922997
 D 4
    1          2.100000000000         0.052328965320
    2          0.700000000000        -0.314311652126
    3          0.300000000000         1.325018625408
    4          0.068524000000        -0.462633037849
 D 4
    1          2.100000000000        -0.160170679490
    2          0.700000000000         1.660179435480
    3          0.300000000000        -1.126513520223
    4          0.068524000000         0.227786883383
 D 4
    1          2.100000000000         1.365030711856
    2          0.700000000000        -1.156389424349
    3          0.300000000000         0.559025338038
    4          0.068524000000        -0.104573388171
 F 3
    1          2.500000000000         0.001057552106
    2          0.900000000000        -0.003197298531
    3          0.085656000000         1.000227666892
 F 3
    1          2.500000000000         0.160664258612
    2          0.900000000000        -1.085978763823
    3          0.085656000000         0.077863926658
 F 3
    1          2.500000000000         1.206771474759
    2          0.900000000000        -0.557791252979
    3          0.085656000000         0.029807589241
 G 2
    1          3.200000000000         0.000000386288
    2          0.102790000000         0.999999998850
 G 2
    1          3.200000000000         1.000004432685
    2          0.102790000000        -0.002977866868
 P 21
    1         30.000000000000        -0.293155156412
    2         30.000000000000         0.243503962025
    3         30.000000000000         1.193982322107
    4          6.600000000000         0.245399721685
    5          6.600000000000        -0.203836784730
    6          6.600000000000        -0.999480729343
    7          2.100000000000        -0.234613099176
    8          2.100000000000         0.194877074282
    9          2.100000000000         0.955548237250
   10          0.950000000000         0.203278908489
   11          0.950000000000        -0.168849902621
   12          0.950000000000        -0.827928207587
   13          0.450000000000        -0.104875117068
   14          0.450000000000         0.087112595379
   15          0.450000000000         0.427142532100
   16          0.150000000000         0.032831534906
   17          0.150000000000        -0.027270913215
   18          0.150000000000        -0.133718515361
   19          0.051393000000        -0.010023445457
   20          0.051393000000         0.008325791406
   21          0.051393000000         0.040824172527
 end
-------
TIMINGS
-------

Total SCF time: 0 days 0 hours 0 min 4 sec 

Total time                  ....       4.130 sec
Sum of individual times     ....       3.752 sec  ( 90.8%)

Fock matrix formation       ....       3.020 sec  ( 73.1%)
  XC integration            ....       1.798 sec  ( 59.5% of F)
    Basis function eval.    ....       0.242 sec  ( 13.4% of XC)
    Density eval.           ....       0.352 sec  ( 19.6% of XC)
    XC-Functional eval.     ....       0.125 sec  (  7.0% of XC)
    XC-Potential eval.      ....       0.905 sec  ( 50.3% of XC)
Diagonalization             ....       0.024 sec  (  0.6%)
Density matrix formation    ....       0.000 sec  (  0.0%)
Population analysis         ....       0.037 sec  (  0.9%)
Initial guess               ....       0.248 sec  (  6.0%)
Orbital Transformation      ....       0.000 sec  (  0.0%)
Orbital Orthonormalization  ....       0.000 sec  (  0.0%)
DIIS solution               ....       0.104 sec  (  2.5%)
Grid generation             ....       0.318 sec  (  7.7%)

-------------------------   --------------------
FINAL SINGLE POINT ENERGY        -0.499990406229
-------------------------   --------------------


                            ***************************************
                            *     ORCA property calculations      *
                            ***************************************

                                    ---------------------
                                    Active property flags
                                    ---------------------
   (+) Dipole Moment
   (+) Polarizability


------------------------------------------------------------------------------
                       ORCA ELECTRIC PROPERTIES CALCULATION
------------------------------------------------------------------------------

Dipole Moment Calculation                       ... on
Quadrupole Moment Calculation                   ... off
Polarizability Calculation                      ... Analytic (CP-SCF)
GBWName                                         ... h_pbe.gbw
Electron density file                           ... h_pbe.scfp.tmp
The origin for moment calculation is the CENTER OF MASS  = ( 0.000000,  0.000000  0.000000)

-------------
DIPOLE MOMENT
-------------
                                X             Y             Z
Electronic contribution:      0.00000      -0.00000      -0.00000
Nuclear contribution   :      0.00000       0.00000       0.00000
                        -----------------------------------------
Total Dipole Moment    :      0.00000      -0.00000      -0.00000
                        -----------------------------------------
Magnitude (a.u.)       :      0.00000
Magnitude (Debye)      :      0.00000



--------------------
Rotational spectrum 
--------------------
 
Rotational constants in cm-1:     0.000000     0.000000     0.000000 
Rotational constants in MHz :     0.000000     0.000000     0.000000 

 Dipole components along the rotational axes: 
x,y,z [a.u.] :     0.000000    -0.000000    -0.000000 
x,y,z [Debye]:     0.000000    -0.000000    -0.000000 

 
Transforming and storing MO dipole integrals   ... done

                ... starting polarizability calculation

Opening the Dipole integral file               ... (h_pbe.dmo.tmp) done
Reading Dipole-MO integrals                    ... done
Solving CP-SCF equations                       ... 
------------------------------------------------------------------------------
                           ORCA CP-SCF CALCULATION
------------------------------------------------------------------------------

Input orbitals are from        ... h_pbe.gbw
Input Perturbation             ... h_pbe.cpv.tmp
Wavefunction output            ... h_pbe.cpu.tmp
Perturbation mode              ... Real perturbation (singlet)
Solver                         ... POPLE
Max. number of iterations      ... 200
Convergence tolerance          ... 1.000e-06
Integral handling              ... Direct
Number of perturbations        ... 3
Number of operators            ... 2
Orbital ranges used for CP-SCF:
 Operator 0:  Orbitals   0...  0  to   1... 87
DFT calculation                         ... on
Exchange functional (SCF)               ... PBE
Exchange functional (CP-SCF)            ... PBE
   PBE kappa parameter  XKappa (SCF)    ...  0.804000
   PBE kappa parameter  XKappa (CP-SCF) ...  0.804000
   PBE mue parameter   XMuePBE (SCF)    ...  0.219520
   PBE mue parameter   XMuePBE (CP-SCF) ...  0.219520
Correlation functional (SCF)            ... PBE
Correlation functional (CP-SCF)         ... PBE
   PBE beta parameter CBetaPBE (SCF)    ...  0.066725
   PBE beta parameter CBetaPBE (CP-SCF) ...  0.066725
 LDA part of GGA corr.  LDAOpt (SCF)    ... PW91-LDA
 LDA part of GGA corr.  LDAOpt (CP-SCF) ... PW91-LDA
Variables per vector in CP-SCF ... 87
Number of vectors sought       ... 3
Recalculating density on grid  ... done
Calculating the xc-kernel      ... done
     CP-SCF ITERATION   0: 
     CP-SCF ITERATION   1:      0.000001336910
     CP-SCF ITERATION   2:      0.000000000161
done
Reading CP-SCF coefficients                    ... done
Doing the polarizability tensor   ... done
Cleaning up                                    ... done

-------------------------
THE POLARIZABILITY TENSOR
-------------------------

The raw cartesian tensor (atomic units):
    5.56788     -0.00000     -0.00000  
   -0.00000      5.56788     -0.00000  
   -0.00000     -0.00000      5.56788  
diagonalized tensor: 
    5.56788      5.56788      5.56788  

    0.05003     -0.99799      0.03877  
    0.52572     -0.00669     -0.85063  
    0.84919      0.06294      0.52433  

Isotropic polarizability :   5.56788


Timings for individual modules:

Sum of individual times         ...       15.627 sec (=   0.260 min)
GTO integral calculation        ...        2.747 sec (=   0.046 min)  17.6 %
SCF iterations                  ...        4.229 sec (=   0.070 min)  27.1 %
Solution of CP-SCF eqns.        ...        8.650 sec (=   0.144 min)  55.4 %
                             ****ORCA TERMINATED NORMALLY****
TOTAL RUN TIME: 0 days 0 hours 0 minutes 21 seconds 835 msec
