
                                 *****************
                                 * O   R   C   A *
                                 *****************

           --- An Ab Initio, DFT and Semiempirical electronic structure package ---

                  #######################################################
                  #                        -***-                        #
                  #          Department of theory and spectroscopy      #
                  #               Directorship: Frank Neese             #
                  #        Max Planck Institute fuer Kohlenforschung    #
                  #                Kaiser Wilhelm Platz 1               #
                  #                 D-45470 Muelheim/Ruhr               #
                  #                      Germany                        #
                  #                                                     #
                  #                  All rights reserved                #
                  #                        -***-                        #
                  #######################################################


                         Program Version 4.1.2  - RELEASE  -


 With contributions from (in alphabetic order):
   Daniel Aravena         : Magnetic Properties
   Michael Atanasov       : Ab Initio Ligand Field Theory
   Alexander A. Auer      : GIAO ZORA
   Ute Becker             : Parallelization
   Giovanni Bistoni       : ED, Open-shell LED
   Martin Brehm           : Molecular dynamics
   Dmytro Bykov           : SCF Hessian
   Vijay G. Chilkuri      : MRCI spin determinant printing
   Dipayan Datta          : RHF DLPNO-CCSD density
   Achintya Kumar Dutta   : EOM-CC, STEOM-CC
   Dmitry Ganyushin       : Spin-Orbit,Spin-Spin,Magnetic field MRCI
   Miquel Garcia          : C-PCM Hessian
   Yang Guo               : DLPNO-NEVPT2, CIM, IAO-localization
   Andreas Hansen         : Spin unrestricted coupled pair/coupled cluster methods
   Benjamin Helmich-Paris : CASSCF linear response (MC-RPA)
   Lee Huntington         : MR-EOM, pCC
   Robert Izsak           : Overlap fitted RIJCOSX, COSX-SCS-MP3, EOM
   Christian Kollmar      : KDIIS, OOCD, Brueckner-CCSD(T), CCSD density
   Simone Kossmann        : Meta GGA functionals, TD-DFT gradient, OOMP2, MP2 Hessian
   Martin Krupicka        : AUTO-CI
   Lucas Lang             : DCDCAS
   Dagmar Lenk            : GEPOL surface, SMD
   Dimitrios Liakos       : Extrapolation schemes; parallel MDCI
   Dimitrios Manganas     : ROCIS; embedding schemes
   Dimitrios Pantazis     : SARC Basis sets
   Taras Petrenko         : DFT Hessian,TD-DFT gradient, ASA, ECA, R-Raman, ABS, FL, XAS/XES, NRVS
   Peter Pinski           : DLPNO-MP2, DLPNO-MP2 Gradient
   Christoph Reimann      : Effective Core Potentials
   Marius Retegan         : Local ZFS, SOC
   Christoph Riplinger    : Optimizer, TS searches, QM/MM, DLPNO-CCSD(T), (RO)-DLPNO pert. Triples
   Tobias Risthaus        : Range-separated hybrids, TD-DFT gradient, RPA, STAB
   Michael Roemelt        : Restricted open shell CIS
   Masaaki Saitow         : Open-shell DLPNO
   Barbara Sandhoefer     : DKH picture change effects
   Avijit Sen             : IP-ROCIS
   Kantharuban Sivalingam : CASSCF convergence, NEVPT2, FIC-MRCI
   Bernardo de Souza      : ESD, SOC TD-DFT
   Georgi Stoychev        : AutoAux, RI-MP2 NMR
   Willem Van den Heuvel  : Paramagnetic NMR
   Boris Wezisla          : Elementary symmetry handling
   Frank Wennmohs         : Technical directorship


 We gratefully acknowledge several colleagues who have allowed us to
 interface, adapt or use parts of their codes:
   Stefan Grimme, W. Hujo, H. Kruse,             : VdW corrections, initial TS optimization,
                  C. Bannwarth                     DFT functionals, gCP, sTDA/sTD-DF
   Ed Valeev                                     : LibInt (2-el integral package), F12 methods
   Garnet Chan, S. Sharma, J. Yang, R. Olivares  : DMRG
   Ulf Ekstrom                                   : XCFun DFT Library
   Mihaly Kallay                                 : mrcc  (arbitrary order and MRCC methods)
   Andreas Klamt, Michael Diedenhofen            : otool_cosmo (COSMO solvation model)
   Jiri Pittner, Ondrej Demel                    : Mk-CCSD
   Frank Weinhold                                : gennbo (NPA and NBO analysis)
   Christopher J. Cramer and Donald G. Truhlar   : smd solvation model
   Lars Goerigk                                  : TD-DFT with DH, B97 family of functionals
   V. Asgeirsson, H. Jonsson                     : NEB implementation
   FAccTs GmbH                                   : IRC, NEB, NEB-TS, Multilevel


 Your calculation uses the libint2 library for the computation of 2-el integrals
 For citations please refer to: http://libint.valeyev.net

 This ORCA versions uses:
   CBLAS   interface :  Fast vector & matrix operations
   LAPACKE interface :  Fast linear algebra routines
   SCALAPACK package :  Parallel linear algebra routines


----- Orbital basis set information -----
Your calculation utilizes the basis: aug-pc-4
   H, C-F              : F. Jensen, J. Chem. Phys. 115, 9113 (2001).
                         F. Jensen, J. Chem. Phys. 116, 7372 (2002).
                         F. Jensen, J. Chem. Phys. 117, 9234 (2002).
   Si-Cl               : F. Jensen, T. Helgaker, J. Chem. Phys. 121, 3463 (2004).
   He-B, Ne-Mg, Al, Ar : F. Jensen, J. Phys. Chem. A 111, 11198 (2007).
   K, Ca, Ga-Kr        : F. Jensen, J. Chem. Phys. 136, 094110 (2012).
   Sc-Zn               : F. Jensen, J. Chem. Phys. 138, 014107 (2013).

================================================================================
                                        WARNINGS
                       Please study these warnings very carefully!
================================================================================


INFO   : the flag for use of LIBINT has been found!

================================================================================
                                       INPUT FILE
================================================================================
NAME = hbo_pbe.inp
|  1> !uks pbe nori aug-pc-4 grid7 nofinalgrid verytightscf
|  2> 
|  3> %maxcore 1500
|  4> 
|  5> %pal nprocs 1 end
|  6> 
|  7> %scf
|  8> 	maxiter 200
|  9> end
| 10> %elprop
| 11> 	dipole true
| 12> 	 polar 1
| 13> 	 maxiter 200
| 14> end
| 15> 
| 16> * xyz 0 1
| 17> B 0.0000 0.0000 1.1660
| 18> H 0.0000 0.0000 0.0000
| 19> O 0.0000 0.0000 2.3660
| 20> *
| 21> 
| 22>                          ****END OF INPUT****
================================================================================

                       ****************************
                       * Single Point Calculation *
                       ****************************

---------------------------------
CARTESIAN COORDINATES (ANGSTROEM)
---------------------------------
  B      0.000000    0.000000    1.166000
  H      0.000000    0.000000    0.000000
  O      0.000000    0.000000    2.366000

----------------------------
CARTESIAN COORDINATES (A.U.)
----------------------------
  NO LB      ZA    FRAG     MASS         X           Y           Z
   0 B     5.0000    0    10.810    0.000000    0.000000    2.203421
   1 H     1.0000    0     1.008    0.000000    0.000000    0.000000
   2 O     8.0000    0    15.999    0.000000    0.000000    4.471092

--------------------------------
INTERNAL COORDINATES (ANGSTROEM)
--------------------------------
 B      0   0   0     0.000000000000     0.00000000     0.00000000
 H      1   0   0     1.166000000000     0.00000000     0.00000000
 O      1   2   0     1.200000000000   180.00000000     0.00000000

---------------------------
INTERNAL COORDINATES (A.U.)
---------------------------
 B      0   0   0     0.000000000000     0.00000000     0.00000000
 H      1   0   0     2.203420672152     0.00000000     0.00000000
 O      1   2   0     2.267671360706   180.00000000     0.00000000

---------------------
BASIS SET INFORMATION
---------------------
There are 3 groups of distinct atoms

 Group   1 Type B   : 27s12p7d4f3g2h contracted to 9s8p7d4f3g2h pattern {1191111111/51111111/1111111/1111/111/11}
 Group   2 Type H   : 12s7p4d3f2g contracted to 8s7p4d3f2g pattern {51111111/1111111/1111/111/11}
 Group   3 Type O   : 27s12p7d4f3g2h contracted to 9s8p7d4f3g2h pattern {1191111111/51111111/1111111/1111/111/11}

Atom   0B    basis set group =>   1
Atom   1H    basis set group =>   2
Atom   2O    basis set group =>   3
------------------------------------------------------------------------------
                           ORCA GTO INTEGRAL CALCULATION
------------------------------------------------------------------------------

                         BASIS SET STATISTICS AND STARTUP INFO

 # of primitive gaussian shells          ...  138
 # of primitive gaussian functions       ...  442
 # of contracted shells                  ...   90
 # of contracted basis functions         ...  378
 Highest angular momentum                ...    5
 Maximum contraction depth               ...   11
 Integral package used                   ... LIBINT
 Integral threshhold            Thresh   ...  1.000e-12
 Primitive cut-off              TCut     ...  1.000e-14


------------------------------ INTEGRAL EVALUATION ----------------------------


 * One electron integrals 
 Pre-screening matrix                    ... done
 Shell pair data                         ... done (   0.001 sec)

-------------------------------------------------------------------------------
                                 ORCA SCF
-------------------------------------------------------------------------------

------------
SCF SETTINGS
------------
Hamiltonian:
 Density Functional     Method          .... DFT(GTOs)
 Exchange Functional    Exchange        .... PBE
   PBE kappa parameter   XKappa         ....  0.804000
   PBE mue parameter    XMuePBE         ....  0.219520
 Correlation Functional Correlation     .... PBE
   PBE beta parameter  CBetaPBE         ....  0.066725
 LDA part of GGA corr.  LDAOpt          .... PW91-LDA
 Gradients option       PostSCFGGA      .... off
   Density functional embedding theory  .... OFF
   NL short-range parameter             ....  6.400000


General Settings:
 Integral files         IntName         .... hbo_pbe
 Hartree-Fock type      HFTyp           .... UHF
 Total Charge           Charge          ....    0
 Multiplicity           Mult            ....    1
 Number of Electrons    NEL             ....   14
 Basis Dimension        Dim             ....  378
 Nuclear Repulsion      ENuc            ....     21.6977113315 Eh

Convergence Acceleration:
 DIIS                   CNVDIIS         .... on
   Start iteration      DIISMaxIt       ....    12
   Startup error        DIISStart       ....  0.200000
   # of expansion vecs  DIISMaxEq       ....     5
   Bias factor          DIISBfac        ....   1.050
   Max. coefficient     DIISMaxC        ....  10.000
 Newton-Raphson         CNVNR           .... off
 SOSCF                  CNVSOSCF        .... off
 Level Shifting         CNVShift        .... on
   Level shift para.    LevelShift      ....    0.2500
   Turn off err/grad.   ShiftErr        ....    0.0010
 Zerner damping         CNVZerner       .... off
 Static damping         CNVDamp         .... on
   Fraction old density DampFac         ....    0.7000
   Max. Damping (<1)    DampMax         ....    0.9800
   Min. Damping (>=0)   DampMin         ....    0.0000
   Turn off err/grad.   DampErr         ....    0.1000
 Fernandez-Rico         CNVRico         .... off

SCF Procedure:
 Maximum # iterations   MaxIter         ....   200
 SCF integral mode      SCFMode         .... Direct
   Integral package                     .... LIBINT
 Reset frequency        DirectResetFreq ....    20
 Integral Threshold     Thresh          ....  1.000e-12 Eh
 Primitive CutOff       TCut            ....  1.000e-14 Eh

Convergence Tolerance:
 Convergence Check Mode ConvCheckMode   .... Total+1el-Energy
 Convergence forced     ConvForced      .... 0
 Energy Change          TolE            ....  1.000e-09 Eh
 1-El. energy change                    ....  1.000e-06 Eh
 DIIS Error             TolErr          ....  1.000e-08


Diagonalization of the overlap matrix:
Smallest eigenvalue                        ... 7.424e-07
Time for diagonalization                   ...    0.107 sec
Threshold for overlap eigenvalues          ... 1.000e-08
Number of eigenvalues below threshold      ... 0
Time for construction of square roots      ...    0.020 sec
Total time needed                          ...    0.128 sec

-------------------
DFT GRID GENERATION
-------------------

General Integration Accuracy     IntAcc      ...  5.670
Radial Grid Type                 RadialGrid  ... Gauss-Chebyshev
Angular Grid (max. acc.)         AngularGrid ... Lebedev-770
Angular grid pruning method      GridPruning ... 3 (G Style)
Weight generation scheme         WeightScheme... Becke
Basis function cutoff            BFCut       ...    1.0000e-12
Integration weight cutoff        WCut        ...    1.0000e-14
Grids for H and He will be reduced by one unit

# of grid points (after initial pruning)     ...  67736 (   0.0 sec)
# of grid points (after weights+screening)   ...  66913 (   0.0 sec)
nearest neighbour list constructed           ...    0.0 sec
Grid point re-assignment to atoms done       ...    0.0 sec
Grid point division into batches done        ...    1.4 sec
Reduced shell lists constructed in    2.2 sec

Total number of grid points                  ...    66913
Total number of batches                      ...     1046
Average number of points per batch           ...       63
Average number of grid points per atom       ...    22304
Average number of shells per batch           ...    65.92 (73.25%)
Average number of basis functions per batch  ...   285.39 (75.50%)
Average number of large shells per batch     ...    59.28 (89.92%)
Average number of large basis fcns per batch ...   257.79 (90.33%)
Maximum spatial batch extension              ...  24.06, 24.06, 18.81 au
Average spatial batch extension              ...   2.72,  2.70,  2.26 au

Time for grid setup =    2.206 sec

------------------------------
INITIAL GUESS: MODEL POTENTIAL
------------------------------
Loading Hartree-Fock densities                     ... done
Calculating cut-offs                               ... done
Setting up the integral package                    ... done
Initializing the effective Hamiltonian             ... done
Starting the Coulomb interaction                   ... done (   0.1 sec)
Reading the grid                                   ... done
Mapping shells                                     ... done
Starting the XC term evaluation                    ... done (   4.4 sec)
  promolecular density results
     # of electrons  =     13.999510515
     EX              =    -12.167969887
     EC              =     -0.424046798
     EX+EC           =    -12.592016685
Transforming the Hamiltonian                       ... done (   0.0 sec)
Diagonalizing the Hamiltonian                      ... done (   0.0 sec)
Back transforming the eigenvectors                 ... done (   0.0 sec)
Now organizing SCF variables                       ... done
                      ------------------
                      INITIAL GUESS DONE (   6.8 sec)
                      ------------------
--------------
SCF ITERATIONS
--------------
ITER       Energy         Delta-E        Max-DP      RMS-DP      [F,P]     Damp
               ***  Starting incremental Fock matrix formation  ***
  0   -100.5072147482   0.000000000000 0.02022177  0.00020351  0.3408165 0.7000
  1   -100.5784178471  -0.071203098917 0.00940029  0.00010924  0.0730261 0.7000
                               ***Turning on DIIS***
  2   -100.5880154233  -0.009597576149 0.01363594  0.00015227  0.0594912 0.0000
  3   -100.6352337756  -0.047218352372 0.00926524  0.00006130  0.0332292 0.0000
  4   -100.6368519496  -0.001618174006 0.00238299  0.00002209  0.0188039 0.0000
  5   -100.6372543160  -0.000402366326 0.00165536  0.00001420  0.0047665 0.0000
  6   -100.6372854071  -0.000031091114 0.00063601  0.00000471  0.0017079 0.0000
  7   -100.6372885548  -0.000003147745 0.00010323  0.00000161  0.0004805 0.0000
  8   -100.6372888676  -0.000000312821 0.00003037  0.00000020  0.0000775 0.0000
  9   -100.6372888735  -0.000000005910 0.00000504  0.00000005  0.0000172 0.0000
 10   -100.6372888739  -0.000000000318 0.00000892  0.00000009  0.0000022 0.0000
 11   -100.6372888739  -0.000000000010 0.00002474  0.00000019  0.0000004 0.0000
 12   -100.6372888739  -0.000000000005 0.00005102  0.00000046  0.0000001 0.0000
                 **** Energy Check signals convergence ****

               *****************************************************
               *                     SUCCESS                       *
               *           SCF CONVERGED AFTER  13 CYCLES          *
               *****************************************************


----------------
TOTAL SCF ENERGY
----------------

Total Energy       :         -100.63728887 Eh           -2738.47985 eV

Components:
Nuclear Repulsion  :           21.69771133 Eh             590.42474 eV
Electronic Energy  :         -122.33500021 Eh           -3328.90459 eV
One Electron Energy:         -180.09896871 Eh           -4900.74209 eV
Two Electron Energy:           57.76396850 Eh            1571.83749 eV

Virial components:
Potential Energy   :         -200.95504513 Eh           -5468.26478 eV
Kinetic Energy     :          100.31775625 Eh            2729.78493 eV
Virial Ratio       :            2.00318521


DFT components:
N(Alpha)           :        7.000000258276 electrons
N(Beta)            :        7.000000258276 electrons
N(Total)           :       14.000000516551 electrons
E(X)               :      -12.435819565266 Eh       
E(C)               :       -0.433985809737 Eh       
E(XC)              :      -12.869805375003 Eh       
DFET-embed. en.    :        0.000000000000 Eh       

---------------
SCF CONVERGENCE
---------------

  Last Energy change         ...   -2.3306e-12  Tolerance :   1.0000e-09
  Last MAX-Density change    ...    1.4273e-04  Tolerance :   1.0000e-08
  Last RMS-Density change    ...    1.0960e-06  Tolerance :   1.0000e-09
  Last DIIS Error            ...    1.1667e-08  Tolerance :   1.0000e-08

             **** THE GBW FILE WAS UPDATED (hbo_pbe.gbw) ****
             **** DENSITY FILE WAS UPDATED (hbo_pbe.scfp.tmp) ****
             **** ENERGY FILE WAS UPDATED (hbo_pbe.en.tmp) ****
----------------------
UHF SPIN CONTAMINATION
----------------------

Warning: in a DFT calculation there is little theoretical justification to 
         calculate <S**2> as in Hartree-Fock theory. We will do it anyways
         but you should keep in mind that the values have only limited relevance

Expectation value of <S**2>     :    -0.000000
Ideal value S*(S+1) for S=0.0   :     0.000000
Deviation                       :    -0.000000

----------------
ORBITAL ENERGIES
----------------
                 SPIN UP ORBITALS
  NO   OCC          E(Eh)            E(eV) 
   0   1.0000     -18.761048      -510.5141 
   1   1.0000      -6.543794      -178.0657 
   2   1.0000      -0.909262       -24.7423 
   3   1.0000      -0.444790       -12.1034 
   4   1.0000      -0.366852        -9.9826 
   5   1.0000      -0.328066        -8.9271 
   6   1.0000      -0.328066        -8.9271 
   7   0.0000      -0.042779        -1.1641 
   8   0.0000      -0.042779        -1.1641 
   9   0.0000      -0.007559        -0.2057 
  10   0.0000      -0.002494        -0.0679 
  11   0.0000       0.017574         0.4782 
  12   0.0000       0.017574         0.4782 
  13   0.0000       0.024279         0.6607 
  14   0.0000       0.040284         1.0962 
  15   0.0000       0.054408         1.4805 
  16   0.0000       0.054408         1.4805 
  17   0.0000       0.055812         1.5187 
  18   0.0000       0.060804         1.6546 
  19   0.0000       0.060804         1.6546 
  20   0.0000       0.062446         1.6992 
  21   0.0000       0.062446         1.6992 
  22   0.0000       0.072709         1.9785 
  23   0.0000       0.088331         2.4036 
  24   0.0000       0.093972         2.5571 
  25   0.0000       0.093972         2.5571 
  26   0.0000       0.123450         3.3592 
  27   0.0000       0.131662         3.5827 
  28   0.0000       0.131662         3.5827 
  29   0.0000       0.146178         3.9777 
  30   0.0000       0.146178         3.9777 
  31   0.0000       0.149637         4.0718 
  32   0.0000       0.151392         4.1196 
  33   0.0000       0.151392         4.1196 
  34   0.0000       0.153514         4.1773 
  35   0.0000       0.153514         4.1773 
  36   0.0000       0.164324         4.4715 
  37   0.0000       0.164324         4.4715 
  38   0.0000       0.169257         4.6057 
  39   0.0000       0.174138         4.7385 
  40   0.0000       0.189476         5.1559 
  41   0.0000       0.189476         5.1559 
  42   0.0000       0.201329         5.4784 
  43   0.0000       0.210008         5.7146 
  44   0.0000       0.210008         5.7146 
  45   0.0000       0.214082         5.8255 
  46   0.0000       0.214082         5.8255 
  47   0.0000       0.234392         6.3781 
  48   0.0000       0.234392         6.3781 
  49   0.0000       0.246421         6.7055 
  50   0.0000       0.246421         6.7055 
  51   0.0000       0.267631         7.2826 
  52   0.0000       0.300960         8.1895 
  53   0.0000       0.301770         8.2116 
  54   0.0000       0.301770         8.2116 
  55   0.0000       0.304483         8.2854 
  56   0.0000       0.304483         8.2854 
  57   0.0000       0.314994         8.5714 
  58   0.0000       0.314995         8.5714 
  59   0.0000       0.321607         8.7514 
  60   0.0000       0.321607         8.7514 
  61   0.0000       0.329433         8.9643 
  62   0.0000       0.334035         9.0896 
  63   0.0000       0.341797         9.3008 
  64   0.0000       0.341797         9.3008 
  65   0.0000       0.342213         9.3121 
  66   0.0000       0.342213         9.3121 
  67   0.0000       0.350850         9.5471 
  68   0.0000       0.350850         9.5471 
  69   0.0000       0.355078         9.6622 
  70   0.0000       0.362157         9.8548 
  71   0.0000       0.362157         9.8548 
  72   0.0000       0.375790        10.2258 
  73   0.0000       0.375790        10.2258 
  74   0.0000       0.384788        10.4706 
  75   0.0000       0.384788        10.4706 
  76   0.0000       0.389146        10.5892 
  77   0.0000       0.395336        10.7577 
  78   0.0000       0.395336        10.7577 
  79   0.0000       0.433967        11.8089 
  80   0.0000       0.433968        11.8089 
  81   0.0000       0.463772        12.6199 
  82   0.0000       0.463772        12.6199 
  83   0.0000       0.507134        13.7998 
  84   0.0000       0.541298        14.7295 
  85   0.0000       0.541298        14.7295 
  86   0.0000       0.551675        15.0119 
  87   0.0000       0.551676        15.0119 
  88   0.0000       0.574946        15.6451 
  89   0.0000       0.595215        16.1966 
  90   0.0000       0.613058        16.6822 
  91   0.0000       0.613058        16.6822 
  92   0.0000       0.614549        16.7227 
  93   0.0000       0.614549        16.7227 
  94   0.0000       0.615397        16.7458 
  95   0.0000       0.615397        16.7458 
  96   0.0000       0.622450        16.9377 
  97   0.0000       0.648457        17.6454 
  98   0.0000       0.648457        17.6454 
  99   0.0000       0.649442        17.6722 
 100   0.0000       0.649442        17.6722 
 101   0.0000       0.654321        17.8050 
 102   0.0000       0.657857        17.9012 
 103   0.0000       0.657857        17.9012 
 104   0.0000       0.666814        18.1449 
 105   0.0000       0.681784        18.5523 
 106   0.0000       0.681784        18.5523 
 107   0.0000       0.702929        19.1277 
 108   0.0000       0.715315        19.4647 
 109   0.0000       0.715315        19.4647 
 110   0.0000       0.723994        19.7009 
 111   0.0000       0.723994        19.7009 
 112   0.0000       0.771509        20.9938 
 113   0.0000       0.771509        20.9938 
 114   0.0000       0.774447        21.0738 
 115   0.0000       0.774447        21.0738 
 116   0.0000       0.801544        21.8111 
 117   0.0000       0.801544        21.8111 
 118   0.0000       0.837054        22.7774 
 119   0.0000       0.869176        23.6515 
 120   0.0000       0.869176        23.6515 
 121   0.0000       0.897259        24.4157 
 122   0.0000       0.907206        24.6863 
 123   0.0000       0.907206        24.6863 
 124   0.0000       0.938248        25.5310 
 125   0.0000       0.938248        25.5310 
 126   0.0000       0.941150        25.6100 
 127   0.0000       0.941150        25.6100 
 128   0.0000       0.943460        25.6729 
 129   0.0000       0.943460        25.6729 
 130   0.0000       0.969958        26.3939 
 131   0.0000       0.969958        26.3939 
 132   0.0000       0.974531        26.5183 
 133   0.0000       0.994270        27.0554 
 134   0.0000       0.994270        27.0554 
 135   0.0000       1.018331        27.7102 
 136   0.0000       1.083090        29.4724 
 137   0.0000       1.083090        29.4724 
 138   0.0000       1.174198        31.9515 
 139   0.0000       1.174198        31.9515 
 140   0.0000       1.174448        31.9584 
 141   0.0000       1.184360        32.2281 
 142   0.0000       1.193367        32.4732 
 143   0.0000       1.193367        32.4732 
 144   0.0000       1.195139        32.5214 
 145   0.0000       1.195139        32.5214 
 146   0.0000       1.221589        33.2411 
 147   0.0000       1.382123        37.6095 
 148   0.0000       1.428501        38.8715 
 149   0.0000       1.428501        38.8715 
 150   0.0000       1.431942        38.9651 
 151   0.0000       1.449241        39.4358 
 152   0.0000       1.449241        39.4358 
 153   0.0000       1.493751        40.6470 
 154   0.0000       1.493751        40.6470 
 155   0.0000       1.556479        42.3539 
 156   0.0000       1.557225        42.3742 
 157   0.0000       1.557225        42.3743 
 158   0.0000       1.624048        44.1926 
 159   0.0000       1.624048        44.1926 
 160   0.0000       1.766675        48.0737 
 161   0.0000       1.766675        48.0737 
 162   0.0000       1.801802        49.0295 
 163   0.0000       1.801802        49.0295 
 164   0.0000       1.813336        49.3434 
 165   0.0000       1.858333        50.5678 
 166   0.0000       1.858333        50.5678 
 167   0.0000       1.971498        53.6472 
 168   0.0000       1.982602        53.9493 
 169   0.0000       1.982602        53.9493 
 170   0.0000       1.986364        54.0517 
 171   0.0000       1.986364        54.0517 
 172   0.0000       2.114741        57.5450 
 173   0.0000       2.172527        59.1175 
 174   0.0000       2.172527        59.1175 
 175   0.0000       2.204646        59.9915 
 176   0.0000       2.358270        64.1718 
 177   0.0000       2.497720        67.9664 
 178   0.0000       2.497720        67.9664 
 179   0.0000       2.534245        68.9603 
 180   0.0000       2.674795        72.7849 
 181   0.0000       2.674795        72.7849 
 182   0.0000       2.778013        75.5936 
 183   0.0000       2.778013        75.5936 
 184   0.0000       2.800765        76.2127 
 185   0.0000       2.926764        79.6413 
 186   0.0000       2.926764        79.6413 
 187   0.0000       2.962764        80.6209 
 188   0.0000       3.131349        85.2083 
 189   0.0000       3.131349        85.2083 
 190   0.0000       3.148481        85.6745 
 191   0.0000       3.148481        85.6745 
 192   0.0000       3.192603        86.8751 
 193   0.0000       3.192603        86.8751 
 194   0.0000       3.332241        90.6749 
 195   0.0000       3.332241        90.6749 
 196   0.0000       3.431167        93.3668 
 197   0.0000       3.560208        96.8782 
 198   0.0000       3.560208        96.8782 
 199   0.0000       3.597105        97.8822 
 200   0.0000       3.658439        99.5512 
 201   0.0000       3.658439        99.5512 
 202   0.0000       3.690281       100.4176 
 203   0.0000       3.690281       100.4176 
 204   0.0000       3.690452       100.4223 
 205   0.0000       3.690452       100.4223 
 206   0.0000       3.888792       105.8194 
 207   0.0000       3.902282       106.1865 
 208   0.0000       3.902283       106.1865 
 209   0.0000       3.905493       106.2739 
 210   0.0000       3.905493       106.2739 
 211   0.0000       4.069636       110.7404 
 212   0.0000       4.069636       110.7404 
 213   0.0000       4.150707       112.9465 
 214   0.0000       4.159116       113.1753 
 215   0.0000       4.159116       113.1753 
 216   0.0000       4.228968       115.0761 
 217   0.0000       4.343184       118.1841 
 218   0.0000       4.343184       118.1841 
 219   0.0000       4.529836       123.2631 
 220   0.0000       4.529836       123.2631 
 221   0.0000       4.635472       126.1376 
 222   0.0000       4.770788       129.8197 
 223   0.0000       4.937006       134.3428 
 224   0.0000       4.937006       134.3428 
 225   0.0000       5.016644       136.5098 
 226   0.0000       5.016644       136.5098 
 227   0.0000       5.146442       140.0418 
 228   0.0000       5.146442       140.0418 
 229   0.0000       5.175941       140.8445 
 230   0.0000       5.398191       146.8923 
 231   0.0000       5.451964       148.3555 
 232   0.0000       5.451964       148.3555 
 233   0.0000       5.760260       156.7446 
 234   0.0000       5.857765       159.3979 
 235   0.0000       5.857765       159.3979 
 236   0.0000       5.957146       162.1022 
 237   0.0000       5.957146       162.1022 
 238   0.0000       5.959439       162.1646 
 239   0.0000       5.962798       162.2560 
 240   0.0000       5.962798       162.2560 
 241   0.0000       6.372036       173.3919 
 242   0.0000       6.372036       173.3919 
 243   0.0000       6.693858       182.1491 
 244   0.0000       6.693858       182.1491 
 245   0.0000       6.800162       185.0418 
 246   0.0000       7.306910       198.8311 
 247   0.0000       7.306910       198.8311 
 248   0.0000       7.438828       202.4208 
 249   0.0000       7.739216       210.5948 
 250   0.0000       7.739216       210.5948 
 251   0.0000       7.764324       211.2780 
 252   0.0000       8.149420       221.7570 
 253   0.0000       8.220134       223.6812 
 254   0.0000       8.220134       223.6812 
 255   0.0000       8.279052       225.2845 
 256   0.0000       8.279052       225.2845 
 257   0.0000       8.725149       237.4234 
 258   0.0000       8.725149       237.4234 
 259   0.0000       8.807878       239.6745 
 260   0.0000       8.807878       239.6745 
 261   0.0000       9.123983       248.2762 
 262   0.0000       9.258957       251.9490 
 263   0.0000       9.258957       251.9490 
 264   0.0000       9.272861       252.3274 
 265   0.0000       9.272861       252.3274 
 266   0.0000       9.293037       252.8764 
 267   0.0000       9.293037       252.8764 
 268   0.0000       9.399365       255.7697 
 269   0.0000       9.399366       255.7697 
 270   0.0000       9.400710       255.8063 
 271   0.0000       9.400710       255.8063 
 272   0.0000       9.412538       256.1282 
 273   0.0000       9.412538       256.1282 
 274   0.0000       9.738063       264.9862 
 275   0.0000       9.758524       265.5429 
 276   0.0000       9.758524       265.5429 
 277   0.0000       9.791945       266.4524 
 278   0.0000       9.791945       266.4524 
 279   0.0000       9.984598       271.6947 
 280   0.0000      10.136038       275.8156 
 281   0.0000      10.136038       275.8156 
 282   0.0000      10.167983       276.6849 
 283   0.0000      10.167983       276.6849 
 284   0.0000      10.215608       277.9808 
 285   0.0000      10.215608       277.9808 
 286   0.0000      10.334672       281.2207 
 287   0.0000      10.334672       281.2207 
 288   0.0000      10.591896       288.2201 
 289   0.0000      10.794563       293.7350 
 290   0.0000      10.794563       293.7350 
 291   0.0000      10.965301       298.3810 
 292   0.0000      10.965301       298.3810 
 293   0.0000      11.084737       301.6310 
 294   0.0000      11.202851       304.8451 
 295   0.0000      11.277550       306.8777 
 296   0.0000      11.277550       306.8777 
 297   0.0000      11.480233       312.3930 
 298   0.0000      11.480233       312.3930 
 299   0.0000      11.755802       319.8916 
 300   0.0000      12.041211       327.6580 
 301   0.0000      12.041211       327.6580 
 302   0.0000      12.181413       331.4731 
 303   0.0000      12.181413       331.4731 
 304   0.0000      12.266796       333.7965 
 305   0.0000      12.266796       333.7965 
 306   0.0000      12.401529       337.4628 
 307   0.0000      12.603000       342.9451 
 308   0.0000      12.603000       342.9451 
 309   0.0000      12.635320       343.8245 
 310   0.0000      12.882746       350.5573 
 311   0.0000      12.882746       350.5573 
 312   0.0000      13.020585       354.3081 
 313   0.0000      13.020585       354.3081 
 314   0.0000      13.111227       356.7746 
 315   0.0000      13.111227       356.7746 
 316   0.0000      13.118686       356.9776 
 317   0.0000      13.118686       356.9776 
 318   0.0000      13.371609       363.8600 
 319   0.0000      13.371609       363.8600 
 320   0.0000      13.814297       375.9061 
 321   0.0000      13.939654       379.3173 
 322   0.0000      15.023442       408.8086 
 323   0.0000      15.023442       408.8086 
 324   0.0000      15.081702       410.3940 
 325   0.0000      15.081702       410.3940 
 326   0.0000      15.157217       412.4488 
 327   0.0000      15.963936       434.4008 
 328   0.0000      16.691297       454.1933 
 329   0.0000      16.691298       454.1933 
 330   0.0000      16.814217       457.5381 
 331   0.0000      16.814217       457.5381 
 332   0.0000      16.892677       459.6731 
 333   0.0000      16.892677       459.6731 
 334   0.0000      16.998581       462.5549 
 335   0.0000      16.998581       462.5549 
 336   0.0000      17.278935       470.1837 
 337   0.0000      17.278935       470.1837 
 338   0.0000      18.075473       491.8586 
 339   0.0000      18.075473       491.8586 
 340   0.0000      18.098802       492.4934 
 341   0.0000      18.219331       495.7732 
 342   0.0000      18.219331       495.7732 
 343   0.0000      18.820719       512.1378 
 344   0.0000      18.820719       512.1378 
 345   0.0000      19.192521       522.2550 
 346   0.0000      19.567225       532.4513 
 347   0.0000      19.829062       539.5762 
 348   0.0000      19.829062       539.5762 
 349   0.0000      20.280868       551.8705 
 350   0.0000      20.280869       551.8705 
 351   0.0000      21.037246       572.4526 
 352   0.0000      21.426393       583.0418 
 353   0.0000      21.426393       583.0418 
 354   0.0000      23.004120       625.9739 
 355   0.0000      23.004120       625.9739 
 356   0.0000      23.669450       644.0785 
 357   0.0000      23.678069       644.3130 
 358   0.0000      23.678069       644.3130 
 359   0.0000      24.335811       662.2111 
 360   0.0000      24.335811       662.2111 
 361   0.0000      25.173658       685.0101 
 362   0.0000      26.406271       718.5512 
 363   0.0000      30.558783       831.5467 
 364   0.0000      32.080572       872.9567 
 365   0.0000      32.080572       872.9567 
 366   0.0000      34.456985       937.6222 
 367   0.0000      41.324638      1124.5006 
 368   0.0000      66.571826      1811.5115 
 369   0.0000      66.571835      1811.5117 
 370   0.0000      67.394503      1833.8977 
 371   0.0000      67.394503      1833.8977 
 372   0.0000      68.547960      1865.2848 
 373   0.0000      79.695043      2168.6124 
 374   0.0000      91.147176      2480.2407 
 375   0.0000      91.147176      2480.2407 
 376   0.0000      92.198998      2508.8623 
 377   0.0000     144.083741      3920.7179 

                 SPIN DOWN ORBITALS
  NO   OCC          E(Eh)            E(eV) 
   0   1.0000     -18.761048      -510.5141 
   1   1.0000      -6.543794      -178.0657 
   2   1.0000      -0.909262       -24.7423 
   3   1.0000      -0.444790       -12.1034 
   4   1.0000      -0.366852        -9.9826 
   5   1.0000      -0.328066        -8.9271 
   6   1.0000      -0.328066        -8.9271 
   7   0.0000      -0.042779        -1.1641 
   8   0.0000      -0.042779        -1.1641 
   9   0.0000      -0.007559        -0.2057 
  10   0.0000      -0.002494        -0.0679 
  11   0.0000       0.017574         0.4782 
  12   0.0000       0.017574         0.4782 
  13   0.0000       0.024279         0.6607 
  14   0.0000       0.040284         1.0962 
  15   0.0000       0.054408         1.4805 
  16   0.0000       0.054408         1.4805 
  17   0.0000       0.055812         1.5187 
  18   0.0000       0.060804         1.6546 
  19   0.0000       0.060804         1.6546 
  20   0.0000       0.062446         1.6992 
  21   0.0000       0.062446         1.6992 
  22   0.0000       0.072709         1.9785 
  23   0.0000       0.088331         2.4036 
  24   0.0000       0.093972         2.5571 
  25   0.0000       0.093972         2.5571 
  26   0.0000       0.123450         3.3592 
  27   0.0000       0.131662         3.5827 
  28   0.0000       0.131662         3.5827 
  29   0.0000       0.146178         3.9777 
  30   0.0000       0.146178         3.9777 
  31   0.0000       0.149637         4.0718 
  32   0.0000       0.151392         4.1196 
  33   0.0000       0.151392         4.1196 
  34   0.0000       0.153514         4.1773 
  35   0.0000       0.153514         4.1773 
  36   0.0000       0.164324         4.4715 
  37   0.0000       0.164324         4.4715 
  38   0.0000       0.169257         4.6057 
  39   0.0000       0.174138         4.7385 
  40   0.0000       0.189476         5.1559 
  41   0.0000       0.189476         5.1559 
  42   0.0000       0.201329         5.4784 
  43   0.0000       0.210008         5.7146 
  44   0.0000       0.210008         5.7146 
  45   0.0000       0.214082         5.8255 
  46   0.0000       0.214082         5.8255 
  47   0.0000       0.234392         6.3781 
  48   0.0000       0.234392         6.3781 
  49   0.0000       0.246421         6.7055 
  50   0.0000       0.246421         6.7055 
  51   0.0000       0.267631         7.2826 
  52   0.0000       0.300960         8.1895 
  53   0.0000       0.301770         8.2116 
  54   0.0000       0.301770         8.2116 
  55   0.0000       0.304483         8.2854 
  56   0.0000       0.304483         8.2854 
  57   0.0000       0.314994         8.5714 
  58   0.0000       0.314995         8.5714 
  59   0.0000       0.321607         8.7514 
  60   0.0000       0.321607         8.7514 
  61   0.0000       0.329433         8.9643 
  62   0.0000       0.334035         9.0896 
  63   0.0000       0.341797         9.3008 
  64   0.0000       0.341797         9.3008 
  65   0.0000       0.342213         9.3121 
  66   0.0000       0.342213         9.3121 
  67   0.0000       0.350850         9.5471 
  68   0.0000       0.350850         9.5471 
  69   0.0000       0.355078         9.6622 
  70   0.0000       0.362157         9.8548 
  71   0.0000       0.362157         9.8548 
  72   0.0000       0.375790        10.2258 
  73   0.0000       0.375790        10.2258 
  74   0.0000       0.384788        10.4706 
  75   0.0000       0.384788        10.4706 
  76   0.0000       0.389146        10.5892 
  77   0.0000       0.395336        10.7577 
  78   0.0000       0.395336        10.7577 
  79   0.0000       0.433967        11.8089 
  80   0.0000       0.433968        11.8089 
  81   0.0000       0.463772        12.6199 
  82   0.0000       0.463772        12.6199 
  83   0.0000       0.507134        13.7998 
  84   0.0000       0.541298        14.7295 
  85   0.0000       0.541298        14.7295 
  86   0.0000       0.551675        15.0119 
  87   0.0000       0.551676        15.0119 
  88   0.0000       0.574946        15.6451 
  89   0.0000       0.595215        16.1966 
  90   0.0000       0.613058        16.6822 
  91   0.0000       0.613058        16.6822 
  92   0.0000       0.614549        16.7227 
  93   0.0000       0.614549        16.7227 
  94   0.0000       0.615397        16.7458 
  95   0.0000       0.615397        16.7458 
  96   0.0000       0.622450        16.9377 
  97   0.0000       0.648457        17.6454 
  98   0.0000       0.648457        17.6454 
  99   0.0000       0.649442        17.6722 
 100   0.0000       0.649442        17.6722 
 101   0.0000       0.654321        17.8050 
 102   0.0000       0.657857        17.9012 
 103   0.0000       0.657857        17.9012 
 104   0.0000       0.666814        18.1449 
 105   0.0000       0.681784        18.5523 
 106   0.0000       0.681784        18.5523 
 107   0.0000       0.702929        19.1277 
 108   0.0000       0.715315        19.4647 
 109   0.0000       0.715315        19.4647 
 110   0.0000       0.723994        19.7009 
 111   0.0000       0.723994        19.7009 
 112   0.0000       0.771509        20.9938 
 113   0.0000       0.771509        20.9938 
 114   0.0000       0.774447        21.0738 
 115   0.0000       0.774447        21.0738 
 116   0.0000       0.801544        21.8111 
 117   0.0000       0.801544        21.8111 
 118   0.0000       0.837054        22.7774 
 119   0.0000       0.869176        23.6515 
 120   0.0000       0.869176        23.6515 
 121   0.0000       0.897259        24.4157 
 122   0.0000       0.907206        24.6863 
 123   0.0000       0.907206        24.6863 
 124   0.0000       0.938248        25.5310 
 125   0.0000       0.938248        25.5310 
 126   0.0000       0.941150        25.6100 
 127   0.0000       0.941150        25.6100 
 128   0.0000       0.943460        25.6729 
 129   0.0000       0.943460        25.6729 
 130   0.0000       0.969958        26.3939 
 131   0.0000       0.969958        26.3939 
 132   0.0000       0.974531        26.5183 
 133   0.0000       0.994270        27.0554 
 134   0.0000       0.994270        27.0554 
 135   0.0000       1.018331        27.7102 
 136   0.0000       1.083090        29.4724 
 137   0.0000       1.083090        29.4724 
 138   0.0000       1.174198        31.9515 
 139   0.0000       1.174198        31.9515 
 140   0.0000       1.174448        31.9584 
 141   0.0000       1.184360        32.2281 
 142   0.0000       1.193367        32.4732 
 143   0.0000       1.193367        32.4732 
 144   0.0000       1.195139        32.5214 
 145   0.0000       1.195139        32.5214 
 146   0.0000       1.221589        33.2411 
 147   0.0000       1.382123        37.6095 
 148   0.0000       1.428501        38.8715 
 149   0.0000       1.428501        38.8715 
 150   0.0000       1.431942        38.9651 
 151   0.0000       1.449241        39.4358 
 152   0.0000       1.449241        39.4358 
 153   0.0000       1.493751        40.6470 
 154   0.0000       1.493751        40.6470 
 155   0.0000       1.556479        42.3539 
 156   0.0000       1.557225        42.3742 
 157   0.0000       1.557225        42.3743 
 158   0.0000       1.624048        44.1926 
 159   0.0000       1.624048        44.1926 
 160   0.0000       1.766675        48.0737 
 161   0.0000       1.766675        48.0737 
 162   0.0000       1.801802        49.0295 
 163   0.0000       1.801802        49.0295 
 164   0.0000       1.813336        49.3434 
 165   0.0000       1.858333        50.5678 
 166   0.0000       1.858333        50.5678 
 167   0.0000       1.971498        53.6472 
 168   0.0000       1.982602        53.9493 
 169   0.0000       1.982602        53.9493 
 170   0.0000       1.986364        54.0517 
 171   0.0000       1.986364        54.0517 
 172   0.0000       2.114741        57.5450 
 173   0.0000       2.172527        59.1175 
 174   0.0000       2.172527        59.1175 
 175   0.0000       2.204646        59.9915 
 176   0.0000       2.358270        64.1718 
 177   0.0000       2.497720        67.9664 
 178   0.0000       2.497720        67.9664 
 179   0.0000       2.534245        68.9603 
 180   0.0000       2.674795        72.7849 
 181   0.0000       2.674795        72.7849 
 182   0.0000       2.778013        75.5936 
 183   0.0000       2.778013        75.5936 
 184   0.0000       2.800765        76.2127 
 185   0.0000       2.926764        79.6413 
 186   0.0000       2.926764        79.6413 
 187   0.0000       2.962764        80.6209 
 188   0.0000       3.131349        85.2083 
 189   0.0000       3.131349        85.2083 
 190   0.0000       3.148481        85.6745 
 191   0.0000       3.148481        85.6745 
 192   0.0000       3.192603        86.8751 
 193   0.0000       3.192603        86.8751 
 194   0.0000       3.332241        90.6749 
 195   0.0000       3.332241        90.6749 
 196   0.0000       3.431167        93.3668 
 197   0.0000       3.560208        96.8782 
 198   0.0000       3.560208        96.8782 
 199   0.0000       3.597105        97.8822 
 200   0.0000       3.658439        99.5512 
 201   0.0000       3.658439        99.5512 
 202   0.0000       3.690281       100.4176 
 203   0.0000       3.690281       100.4176 
 204   0.0000       3.690452       100.4223 
 205   0.0000       3.690452       100.4223 
 206   0.0000       3.888792       105.8194 
 207   0.0000       3.902282       106.1865 
 208   0.0000       3.902283       106.1865 
 209   0.0000       3.905493       106.2739 
 210   0.0000       3.905493       106.2739 
 211   0.0000       4.069636       110.7404 
 212   0.0000       4.069636       110.7404 
 213   0.0000       4.150707       112.9465 
 214   0.0000       4.159116       113.1753 
 215   0.0000       4.159116       113.1753 
 216   0.0000       4.228968       115.0761 
 217   0.0000       4.343184       118.1841 
 218   0.0000       4.343184       118.1841 
 219   0.0000       4.529836       123.2631 
 220   0.0000       4.529836       123.2631 
 221   0.0000       4.635472       126.1376 
 222   0.0000       4.770788       129.8197 
 223   0.0000       4.937006       134.3428 
 224   0.0000       4.937006       134.3428 
 225   0.0000       5.016644       136.5098 
 226   0.0000       5.016644       136.5098 
 227   0.0000       5.146442       140.0418 
 228   0.0000       5.146442       140.0418 
 229   0.0000       5.175941       140.8445 
 230   0.0000       5.398191       146.8923 
 231   0.0000       5.451964       148.3555 
 232   0.0000       5.451964       148.3555 
 233   0.0000       5.760260       156.7446 
 234   0.0000       5.857765       159.3979 
 235   0.0000       5.857765       159.3979 
 236   0.0000       5.957146       162.1022 
 237   0.0000       5.957146       162.1022 
 238   0.0000       5.959439       162.1646 
 239   0.0000       5.962798       162.2560 
 240   0.0000       5.962798       162.2560 
 241   0.0000       6.372036       173.3919 
 242   0.0000       6.372036       173.3919 
 243   0.0000       6.693858       182.1491 
 244   0.0000       6.693858       182.1491 
 245   0.0000       6.800162       185.0418 
 246   0.0000       7.306910       198.8311 
 247   0.0000       7.306910       198.8311 
 248   0.0000       7.438828       202.4208 
 249   0.0000       7.739216       210.5948 
 250   0.0000       7.739216       210.5948 
 251   0.0000       7.764324       211.2780 
 252   0.0000       8.149420       221.7570 
 253   0.0000       8.220134       223.6812 
 254   0.0000       8.220134       223.6812 
 255   0.0000       8.279052       225.2845 
 256   0.0000       8.279052       225.2845 
 257   0.0000       8.725149       237.4234 
 258   0.0000       8.725149       237.4234 
 259   0.0000       8.807878       239.6745 
 260   0.0000       8.807878       239.6745 
 261   0.0000       9.123983       248.2762 
 262   0.0000       9.258957       251.9490 
 263   0.0000       9.258957       251.9490 
 264   0.0000       9.272861       252.3274 
 265   0.0000       9.272861       252.3274 
 266   0.0000       9.293037       252.8764 
 267   0.0000       9.293037       252.8764 
 268   0.0000       9.399365       255.7697 
 269   0.0000       9.399366       255.7697 
 270   0.0000       9.400710       255.8063 
 271   0.0000       9.400710       255.8063 
 272   0.0000       9.412538       256.1282 
 273   0.0000       9.412538       256.1282 
 274   0.0000       9.738063       264.9862 
 275   0.0000       9.758524       265.5429 
 276   0.0000       9.758524       265.5429 
 277   0.0000       9.791945       266.4524 
 278   0.0000       9.791945       266.4524 
 279   0.0000       9.984598       271.6947 
 280   0.0000      10.136038       275.8156 
 281   0.0000      10.136038       275.8156 
 282   0.0000      10.167983       276.6849 
 283   0.0000      10.167983       276.6849 
 284   0.0000      10.215608       277.9808 
 285   0.0000      10.215608       277.9808 
 286   0.0000      10.334672       281.2207 
 287   0.0000      10.334672       281.2207 
 288   0.0000      10.591896       288.2201 
 289   0.0000      10.794563       293.7350 
 290   0.0000      10.794563       293.7350 
 291   0.0000      10.965301       298.3810 
 292   0.0000      10.965301       298.3810 
 293   0.0000      11.084737       301.6310 
 294   0.0000      11.202851       304.8451 
 295   0.0000      11.277550       306.8777 
 296   0.0000      11.277550       306.8777 
 297   0.0000      11.480233       312.3930 
 298   0.0000      11.480233       312.3930 
 299   0.0000      11.755802       319.8916 
 300   0.0000      12.041211       327.6580 
 301   0.0000      12.041211       327.6580 
 302   0.0000      12.181413       331.4731 
 303   0.0000      12.181413       331.4731 
 304   0.0000      12.266796       333.7965 
 305   0.0000      12.266796       333.7965 
 306   0.0000      12.401529       337.4628 
 307   0.0000      12.603000       342.9451 
 308   0.0000      12.603000       342.9451 
 309   0.0000      12.635320       343.8245 
 310   0.0000      12.882746       350.5573 
 311   0.0000      12.882746       350.5573 
 312   0.0000      13.020585       354.3081 
 313   0.0000      13.020585       354.3081 
 314   0.0000      13.111227       356.7746 
 315   0.0000      13.111227       356.7746 
 316   0.0000      13.118686       356.9776 
 317   0.0000      13.118686       356.9776 
 318   0.0000      13.371609       363.8600 
 319   0.0000      13.371609       363.8600 
 320   0.0000      13.814297       375.9061 
 321   0.0000      13.939654       379.3173 
 322   0.0000      15.023442       408.8086 
 323   0.0000      15.023442       408.8086 
 324   0.0000      15.081702       410.3940 
 325   0.0000      15.081702       410.3940 
 326   0.0000      15.157217       412.4488 
 327   0.0000      15.963936       434.4008 
 328   0.0000      16.691297       454.1933 
 329   0.0000      16.691298       454.1933 
 330   0.0000      16.814217       457.5381 
 331   0.0000      16.814217       457.5381 
 332   0.0000      16.892677       459.6731 
 333   0.0000      16.892677       459.6731 
 334   0.0000      16.998581       462.5549 
 335   0.0000      16.998581       462.5549 
 336   0.0000      17.278935       470.1837 
 337   0.0000      17.278935       470.1837 
 338   0.0000      18.075473       491.8586 
 339   0.0000      18.075473       491.8586 
 340   0.0000      18.098802       492.4934 
 341   0.0000      18.219331       495.7732 
 342   0.0000      18.219331       495.7732 
 343   0.0000      18.820719       512.1378 
 344   0.0000      18.820719       512.1378 
 345   0.0000      19.192521       522.2550 
 346   0.0000      19.567225       532.4513 
 347   0.0000      19.829062       539.5762 
 348   0.0000      19.829062       539.5762 
 349   0.0000      20.280868       551.8705 
 350   0.0000      20.280869       551.8705 
 351   0.0000      21.037246       572.4526 
 352   0.0000      21.426393       583.0418 
 353   0.0000      21.426393       583.0418 
 354   0.0000      23.004120       625.9739 
 355   0.0000      23.004120       625.9739 
 356   0.0000      23.669450       644.0785 
 357   0.0000      23.678069       644.3130 
 358   0.0000      23.678069       644.3130 
 359   0.0000      24.335811       662.2111 
 360   0.0000      24.335811       662.2111 
 361   0.0000      25.173658       685.0101 
 362   0.0000      26.406271       718.5512 
 363   0.0000      30.558783       831.5467 
 364   0.0000      32.080572       872.9567 
 365   0.0000      32.080572       872.9567 
 366   0.0000      34.456985       937.6222 
 367   0.0000      41.324638      1124.5006 
 368   0.0000      66.571826      1811.5115 
 369   0.0000      66.571835      1811.5117 
 370   0.0000      67.394503      1833.8977 
 371   0.0000      67.394503      1833.8977 
 372   0.0000      68.547960      1865.2848 
 373   0.0000      79.695043      2168.6124 
 374   0.0000      91.147176      2480.2407 
 375   0.0000      91.147176      2480.2407 
 376   0.0000      92.198998      2508.8623 
 377   0.0000     144.083741      3920.7179 

                    ********************************
                    * MULLIKEN POPULATION ANALYSIS *
                    ********************************

--------------------------------------------
MULLIKEN ATOMIC CHARGES AND SPIN POPULATIONS
--------------------------------------------
   0 B :    0.191542   -0.000000
   1 H :    0.128707   -0.000000
   2 O :   -0.320249    0.000000
Sum of atomic charges         :   -0.0000000
Sum of atomic spin populations:    0.0000000

-----------------------------------------------------
MULLIKEN REDUCED ORBITAL CHARGES AND SPIN POPULATIONS
-----------------------------------------------------
CHARGE
  0 B s       :     3.172372  s :     3.172372
      pz      :     0.763679  p :     1.542510
      px      :     0.389416
      py      :     0.389416
      dz2     :     0.035499  d :     0.071340
      dxz     :     0.017920
      dyz     :     0.017920
      dx2y2   :     0.000000
      dxy     :     0.000000
      f0      :     0.005867  f :     0.019501
      f+1     :     0.006817
      f-1     :     0.006817
      f+2     :     0.000000
      f-2     :     0.000000
      f+3     :     0.000000
      f-3     :     0.000000
      g0      :     0.000652  g :     0.002596
      g+1     :     0.000972
      g-1     :     0.000972
      g+2     :     0.000000
      g-2     :     0.000000
      g+3     :     0.000000
      g-3     :     0.000000
      g+4     :     0.000000
      g-4     :     0.000000
      h0      :     0.000034  h :     0.000139
      h+1     :     0.000053
      h-1     :     0.000053
      h+2     :     0.000000
      h-2     :     0.000000
      h+3     :     0.000000
      h-3     :     0.000000
      h+4     :     0.000000
      h-4     :     0.000000
      h+5     :     0.000000
      h-5     :     0.000000
  1 H s       :     0.852512  s :     0.852512
      pz      :    -0.006799  p :     0.011482
      px      :     0.009140
      py      :     0.009140
      dz2     :    -0.000833  d :     0.007745
      dxz     :     0.004289
      dyz     :     0.004289
      dx2y2   :    -0.000000
      dxy     :    -0.000000
      f0      :    -0.000374  f :    -0.000284
      f+1     :     0.000045
      f-1     :     0.000045
      f+2     :     0.000000
      f-2     :    -0.000000
      f+3     :    -0.000000
      f-3     :    -0.000000
      g0      :    -0.000038  g :    -0.000162
      g+1     :    -0.000062
      g-1     :    -0.000062
      g+2     :     0.000000
      g-2     :     0.000000
      g+3     :    -0.000000
      g-3     :    -0.000000
      g+4     :    -0.000000
      g-4     :     0.000000
  2 O s       :     3.815719  s :     3.815719
      pz      :     1.372534  p :     4.483716
      px      :     1.555591
      py      :     1.555591
      dz2     :    -0.009538  d :     0.020867
      dxz     :     0.015203
      dyz     :     0.015203
      dx2y2   :     0.000000
      dxy     :     0.000000
      f0      :    -0.001100  f :     0.000204
      f+1     :     0.000652
      f-1     :     0.000652
      f+2     :    -0.000000
      f-2     :     0.000000
      f+3     :     0.000000
      f-3     :     0.000000
      g0      :    -0.000156  g :    -0.000212
      g+1     :    -0.000028
      g-1     :    -0.000028
      g+2     :    -0.000000
      g-2     :    -0.000000
      g+3     :     0.000000
      g-3     :     0.000000
      g+4     :     0.000000
      g-4     :    -0.000000
      h0      :    -0.000031  h :    -0.000046
      h+1     :    -0.000008
      h-1     :    -0.000008
      h+2     :    -0.000000
      h-2     :     0.000000
      h+3     :     0.000000
      h-3     :     0.000000
      h+4     :     0.000000
      h-4     :     0.000000
      h+5     :     0.000000
      h-5     :     0.000000

SPIN
  0 B s       :     0.000000  s :     0.000000
      pz      :    -0.000000  p :    -0.000000
      px      :     0.000000
      py      :    -0.000000
      dz2     :    -0.000000  d :    -0.000000
      dxz     :     0.000000
      dyz     :    -0.000000
      dx2y2   :     0.000000
      dxy     :    -0.000000
      f0      :    -0.000000  f :    -0.000000
      f+1     :     0.000000
      f-1     :     0.000000
      f+2     :    -0.000000
      f-2     :    -0.000000
      f+3     :    -0.000000
      f-3     :     0.000000
      g0      :     0.000000  g :     0.000000
      g+1     :     0.000000
      g-1     :    -0.000000
      g+2     :     0.000000
      g-2     :    -0.000000
      g+3     :     0.000000
      g-3     :     0.000000
      g+4     :     0.000000
      g-4     :    -0.000000
      h0      :    -0.000000  h :    -0.000000
      h+1     :    -0.000000
      h-1     :     0.000000
      h+2     :    -0.000000
      h-2     :     0.000000
      h+3     :    -0.000000
      h-3     :     0.000000
      h+4     :    -0.000000
      h-4     :    -0.000000
      h+5     :     0.000000
      h-5     :     0.000000
  1 H s       :    -0.000000  s :    -0.000000
      pz      :    -0.000000  p :    -0.000000
      px      :    -0.000000
      py      :    -0.000000
      dz2     :    -0.000000  d :    -0.000000
      dxz     :    -0.000000
      dyz     :     0.000000
      dx2y2   :    -0.000000
      dxy     :     0.000000
      f0      :    -0.000000  f :    -0.000000
      f+1     :     0.000000
      f-1     :    -0.000000
      f+2     :    -0.000000
      f-2     :    -0.000000
      f+3     :    -0.000000
      f-3     :     0.000000
      g0      :    -0.000000  g :    -0.000000
      g+1     :     0.000000
      g-1     :     0.000000
      g+2     :    -0.000000
      g-2     :    -0.000000
      g+3     :    -0.000000
      g-3     :     0.000000
      g+4     :     0.000000
      g-4     :     0.000000
  2 O s       :     0.000000  s :     0.000000
      pz      :    -0.000000  p :    -0.000000
      px      :    -0.000000
      py      :     0.000000
      dz2     :    -0.000000  d :    -0.000000
      dxz     :    -0.000000
      dyz     :     0.000000
      dx2y2   :     0.000000
      dxy     :     0.000000
      f0      :     0.000000  f :     0.000000
      f+1     :    -0.000000
      f-1     :     0.000000
      f+2     :    -0.000000
      f-2     :    -0.000000
      f+3     :    -0.000000
      f-3     :    -0.000000
      g0      :     0.000000  g :     0.000000
      g+1     :    -0.000000
      g-1     :     0.000000
      g+2     :    -0.000000
      g-2     :    -0.000000
      g+3     :    -0.000000
      g-3     :    -0.000000
      g+4     :    -0.000000
      g-4     :     0.000000
      h0      :    -0.000000  h :    -0.000000
      h+1     :    -0.000000
      h-1     :    -0.000000
      h+2     :    -0.000000
      h-2     :    -0.000000
      h+3     :     0.000000
      h-3     :    -0.000000
      h+4     :     0.000000
      h-4     :    -0.000000
      h+5     :    -0.000000
      h-5     :    -0.000000


                     *******************************
                     * LOEWDIN POPULATION ANALYSIS *
                     *******************************

-------------------------------------------
LOEWDIN ATOMIC CHARGES AND SPIN POPULATIONS
-------------------------------------------
   0 B :    0.000858   -0.000000
   1 H :   -0.389302   -0.000000
   2 O :    0.388444    0.000000

----------------------------------------------------
LOEWDIN REDUCED ORBITAL CHARGES AND SPIN POPULATIONS
----------------------------------------------------
CHARGE
  0 B s       :     2.509626  s :     2.509626
      pz      :     0.948291  p :     1.731382
      px      :     0.391546
      py      :     0.391546
      dz2     :     0.247864  d :     0.492528
      dxz     :     0.122332
      dyz     :     0.122332
      dx2y2   :     0.000000
      dxy     :     0.000000
      f0      :     0.080837  f :     0.195235
      f+1     :     0.057199
      f-1     :     0.057199
      f+2     :     0.000000
      f-2     :     0.000000
      f+3     :     0.000000
      f-3     :     0.000000
      g0      :     0.016035  g :     0.065745
      g+1     :     0.024855
      g-1     :     0.024855
      g+2     :     0.000000
      g-2     :     0.000000
      g+3     :     0.000000
      g-3     :     0.000000
      g+4     :     0.000000
      g-4     :     0.000000
      h0      :     0.001542  h :     0.004626
      h+1     :     0.001542
      h-1     :     0.001542
      h+2     :     0.000000
      h-2     :     0.000000
      h+3     :     0.000000
      h-3     :     0.000000
      h+4     :     0.000000
      h-4     :     0.000000
      h+5     :     0.000000
      h-5     :     0.000000
  1 H s       :     0.855969  s :     0.855969
      pz      :     0.120411  p :     0.184101
      px      :     0.031845
      py      :     0.031845
      dz2     :     0.067181  d :     0.149414
      dxz     :     0.041117
      dyz     :     0.041117
      dx2y2   :     0.000000
      dxy     :     0.000000
      f0      :     0.049916  f :     0.113706
      f+1     :     0.031895
      f-1     :     0.031895
      f+2     :     0.000000
      f-2     :     0.000000
      f+3     :     0.000000
      f-3     :     0.000000
      g0      :     0.035379  g :     0.086112
      g+1     :     0.025366
      g-1     :     0.025366
      g+2     :     0.000000
      g-2     :     0.000000
      g+3     :     0.000000
      g-3     :     0.000000
      g+4     :     0.000000
      g-4     :     0.000000
  2 O s       :     3.213844  s :     3.213844
      pz      :     1.649281  p :     4.123583
      px      :     1.237151
      py      :     1.237151
      dz2     :     0.108472  d :     0.149934
      dxz     :     0.020731
      dyz     :     0.020731
      dx2y2   :     0.000000
      dxy     :     0.000000
      f0      :     0.061203  f :     0.084786
      f+1     :     0.011792
      f-1     :     0.011792
      f+2     :     0.000000
      f-2     :     0.000000
      f+3     :     0.000000
      f-3     :     0.000000
      g0      :     0.024538  g :     0.029478
      g+1     :     0.002470
      g-1     :     0.002470
      g+2     :     0.000000
      g-2     :     0.000000
      g+3     :     0.000000
      g-3     :     0.000000
      g+4     :     0.000000
      g-4     :     0.000000
      h0      :     0.009613  h :     0.009931
      h+1     :     0.000159
      h-1     :     0.000159
      h+2     :     0.000000
      h-2     :     0.000000
      h+3     :     0.000000
      h-3     :     0.000000
      h+4     :     0.000000
      h-4     :     0.000000
      h+5     :     0.000000
      h-5     :     0.000000

SPIN
  0 B s       :     0.000000  s :     0.000000
      pz      :    -0.000000  p :    -0.000000
      px      :     0.000000
      py      :    -0.000000
      dz2     :     0.000000  d :    -0.000000
      dxz     :    -0.000000
      dyz     :     0.000000
      dx2y2   :    -0.000000
      dxy     :    -0.000000
      f0      :    -0.000000  f :    -0.000000
      f+1     :     0.000000
      f-1     :     0.000000
      f+2     :    -0.000000
      f-2     :     0.000000
      f+3     :    -0.000000
      f-3     :     0.000000
      g0      :    -0.000000  g :    -0.000000
      g+1     :     0.000000
      g-1     :    -0.000000
      g+2     :     0.000000
      g-2     :    -0.000000
      g+3     :     0.000000
      g-3     :     0.000000
      g+4     :     0.000000
      g-4     :    -0.000000
      h0      :     0.000000  h :     0.000000
      h+1     :    -0.000000
      h-1     :     0.000000
      h+2     :     0.000000
      h-2     :     0.000000
      h+3     :    -0.000000
      h-3     :     0.000000
      h+4     :    -0.000000
      h-4     :    -0.000000
      h+5     :     0.000000
      h-5     :     0.000000
  1 H s       :    -0.000000  s :    -0.000000
      pz      :     0.000000  p :     0.000000
      px      :     0.000000
      py      :    -0.000000
      dz2     :    -0.000000  d :    -0.000000
      dxz     :     0.000000
      dyz     :     0.000000
      dx2y2   :    -0.000000
      dxy     :    -0.000000
      f0      :    -0.000000  f :    -0.000000
      f+1     :    -0.000000
      f-1     :    -0.000000
      f+2     :    -0.000000
      f-2     :    -0.000000
      f+3     :     0.000000
      f-3     :     0.000000
      g0      :    -0.000000  g :    -0.000000
      g+1     :    -0.000000
      g-1     :    -0.000000
      g+2     :    -0.000000
      g-2     :    -0.000000
      g+3     :    -0.000000
      g-3     :    -0.000000
      g+4     :     0.000000
      g-4     :     0.000000
  2 O s       :     0.000000  s :     0.000000
      pz      :    -0.000000  p :    -0.000000
      px      :     0.000000
      py      :     0.000000
      dz2     :     0.000000  d :     0.000000
      dxz     :     0.000000
      dyz     :     0.000000
      dx2y2   :     0.000000
      dxy     :     0.000000
      f0      :     0.000000  f :     0.000000
      f+1     :    -0.000000
      f-1     :    -0.000000
      f+2     :    -0.000000
      f-2     :    -0.000000
      f+3     :    -0.000000
      f-3     :     0.000000
      g0      :    -0.000000  g :    -0.000000
      g+1     :     0.000000
      g-1     :    -0.000000
      g+2     :     0.000000
      g-2     :     0.000000
      g+3     :    -0.000000
      g-3     :    -0.000000
      g+4     :    -0.000000
      g-4     :     0.000000
      h0      :     0.000000  h :     0.000000
      h+1     :     0.000000
      h-1     :    -0.000000
      h+2     :     0.000000
      h-2     :    -0.000000
      h+3     :     0.000000
      h-3     :    -0.000000
      h+4     :     0.000000
      h-4     :    -0.000000
      h+5     :    -0.000000
      h-5     :    -0.000000


                      *****************************
                      * MAYER POPULATION ANALYSIS *
                      *****************************

  NA   - Mulliken gross atomic population
  ZA   - Total nuclear charge
  QA   - Mulliken gross atomic charge
  VA   - Mayer's total valence
  BVA  - Mayer's bonded valence
  FA   - Mayer's free valence

  ATOM       NA         ZA         QA         VA         BVA        FA
  0 B      4.8085     5.0000     0.1915     3.0617     3.0617    -0.0000
  1 H      0.8713     1.0000     0.1287     1.0017     1.0017    -0.0000
  2 O      8.3202     8.0000    -0.3202     1.9584     1.9584    -0.0000

  Mayer bond orders larger than 0.1
B(  0-B ,  1-H ) :   1.0525 B(  0-B ,  2-O ) :   2.0092 

-------
TIMINGS
-------

Total SCF time: 0 days 0 hours 53 min 31 sec 

Total time                  ....    3211.322 sec
Sum of individual times     ....    3210.510 sec  (100.0%)

Fock matrix formation       ....    3201.642 sec  ( 99.7%)
  XC integration            ....     115.657 sec  (  3.6% of F)
    Basis function eval.    ....       8.010 sec  (  6.9% of XC)
    Density eval.           ....      25.169 sec  ( 21.8% of XC)
    XC-Functional eval.     ....       1.151 sec  (  1.0% of XC)
    XC-Potential eval.      ....      80.422 sec  ( 69.5% of XC)
Diagonalization             ....       1.302 sec  (  0.0%)
Density matrix formation    ....       0.024 sec  (  0.0%)
Population analysis         ....       0.100 sec  (  0.0%)
Initial guess               ....       4.613 sec  (  0.1%)
Orbital Transformation      ....       0.000 sec  (  0.0%)
Orbital Orthonormalization  ....       0.000 sec  (  0.0%)
DIIS solution               ....       0.623 sec  (  0.0%)
Grid generation             ....       2.206 sec  (  0.1%)

-------------------------   --------------------
FINAL SINGLE POINT ENERGY      -100.637288873880
-------------------------   --------------------


                            ***************************************
                            *     ORCA property calculations      *
                            ***************************************

                                    ---------------------
                                    Active property flags
                                    ---------------------
   (+) Dipole Moment
   (+) Polarizability


------------------------------------------------------------------------------
                       ORCA ELECTRIC PROPERTIES CALCULATION
------------------------------------------------------------------------------

Dipole Moment Calculation                       ... on
Quadrupole Moment Calculation                   ... off
Polarizability Calculation                      ... Analytic (CP-SCF)
GBWName                                         ... hbo_pbe.gbw
Electron density file                           ... hbo_pbe.scfp.tmp
The origin for moment calculation is the CENTER OF MASS  = ( 0.000000,  0.000000  3.427831)

-------------
DIPOLE MOMENT
-------------
                                X             Y             Z
Electronic contribution:     -0.00000       0.00000       0.18660
Nuclear contribution   :      0.00000       0.00000      -1.20380
                        -----------------------------------------
Total Dipole Moment    :     -0.00000       0.00000      -1.01720
                        -----------------------------------------
Magnitude (a.u.)       :      1.01720
Magnitude (Debye)      :      2.58551



--------------------
Rotational spectrum 
--------------------
 
Rotational constants in cm-1:     0.000000     1.324137     1.324137 
Rotational constants in MHz :     0.000000 39696.630725 39696.630725 

 Dipole components along the rotational axes: 
x,y,z [a.u.] :    -1.017198     0.000000    -0.000000 
x,y,z [Debye]:    -2.585512     0.000000    -0.000000 

 
Transforming and storing MO dipole integrals   ... done

                ... starting polarizability calculation

Opening the Dipole integral file               ... (hbo_pbe.dmo.tmp) done
Reading Dipole-MO integrals                    ... done
Solving CP-SCF equations                       ... 
------------------------------------------------------------------------------
                           ORCA CP-SCF CALCULATION
------------------------------------------------------------------------------

Input orbitals are from        ... hbo_pbe.gbw
Input Perturbation             ... hbo_pbe.cpv.tmp
Wavefunction output            ... hbo_pbe.cpu.tmp
Perturbation mode              ... Real perturbation (singlet)
Solver                         ... POPLE
Max. number of iterations      ... 200
Convergence tolerance          ... 1.000e-06
Integral handling              ... Direct
Number of perturbations        ... 3
Number of operators            ... 2
Orbital ranges used for CP-SCF:
 Operator 0:  Orbitals   0...  6  to   7...377
 Operator 1:  Orbitals   0...  6  to   7...377
DFT calculation                         ... on
Exchange functional (SCF)               ... PBE
Exchange functional (CP-SCF)            ... PBE
   PBE kappa parameter  XKappa (SCF)    ...  0.804000
   PBE kappa parameter  XKappa (CP-SCF) ...  0.804000
   PBE mue parameter   XMuePBE (SCF)    ...  0.219520
   PBE mue parameter   XMuePBE (CP-SCF) ...  0.219520
Correlation functional (SCF)            ... PBE
Correlation functional (CP-SCF)         ... PBE
   PBE beta parameter CBetaPBE (SCF)    ...  0.066725
   PBE beta parameter CBetaPBE (CP-SCF) ...  0.066725
 LDA part of GGA corr.  LDAOpt (SCF)    ... PW91-LDA
 LDA part of GGA corr.  LDAOpt (CP-SCF) ... PW91-LDA
Variables per vector in CP-SCF ... 5194
Number of vectors sought       ... 3
Recalculating density on grid  ... done
Calculating the xc-kernel      ... done
     CP-SCF ITERATION   0: 
     CP-SCF ITERATION   1:      0.188060751926
     CP-SCF ITERATION   2:      0.003152073480
     CP-SCF ITERATION   3:      0.000155583244
     CP-SCF ITERATION   4:      0.000000889228
done
Reading CP-SCF coefficients                    ... done
Doing the polarizability tensor   ... done
Cleaning up                                    ... done

-------------------------
THE POLARIZABILITY TENSOR
-------------------------

The raw cartesian tensor (atomic units):
   15.14028     -0.00000      0.00000  
   -0.00000     15.14028     -0.00000  
    0.00000     -0.00000     22.21439  
diagonalized tensor: 
   15.14028     15.14028     22.21439  

    0.75558      0.65505      0.00000  
    0.65505     -0.75558     -0.00000  
    0.00000     -0.00000      1.00000  

Isotropic polarizability :  17.49832


Timings for individual modules:

Sum of individual times         ...     5078.461 sec (=  84.641 min)
GTO integral calculation        ...        5.044 sec (=   0.084 min)   0.1 %
SCF iterations                  ...     3214.618 sec (=  53.577 min)  63.3 %
Solution of CP-SCF eqns.        ...     1858.799 sec (=  30.980 min)  36.6 %
                             ****ORCA TERMINATED NORMALLY****
TOTAL RUN TIME: 0 days 1 hours 24 minutes 39 seconds 856 msec
