
                                 *****************
                                 * O   R   C   A *
                                 *****************

           --- An Ab Initio, DFT and Semiempirical electronic structure package ---

                  #######################################################
                  #                        -***-                        #
                  #          Department of theory and spectroscopy      #
                  #               Directorship: Frank Neese             #
                  #        Max Planck Institute fuer Kohlenforschung    #
                  #                Kaiser Wilhelm Platz 1               #
                  #                 D-45470 Muelheim/Ruhr               #
                  #                      Germany                        #
                  #                                                     #
                  #                  All rights reserved                #
                  #                        -***-                        #
                  #######################################################


                         Program Version 4.1.2  - RELEASE  -


 With contributions from (in alphabetic order):
   Daniel Aravena         : Magnetic Properties
   Michael Atanasov       : Ab Initio Ligand Field Theory
   Alexander A. Auer      : GIAO ZORA
   Ute Becker             : Parallelization
   Giovanni Bistoni       : ED, Open-shell LED
   Martin Brehm           : Molecular dynamics
   Dmytro Bykov           : SCF Hessian
   Vijay G. Chilkuri      : MRCI spin determinant printing
   Dipayan Datta          : RHF DLPNO-CCSD density
   Achintya Kumar Dutta   : EOM-CC, STEOM-CC
   Dmitry Ganyushin       : Spin-Orbit,Spin-Spin,Magnetic field MRCI
   Miquel Garcia          : C-PCM Hessian
   Yang Guo               : DLPNO-NEVPT2, CIM, IAO-localization
   Andreas Hansen         : Spin unrestricted coupled pair/coupled cluster methods
   Benjamin Helmich-Paris : CASSCF linear response (MC-RPA)
   Lee Huntington         : MR-EOM, pCC
   Robert Izsak           : Overlap fitted RIJCOSX, COSX-SCS-MP3, EOM
   Christian Kollmar      : KDIIS, OOCD, Brueckner-CCSD(T), CCSD density
   Simone Kossmann        : Meta GGA functionals, TD-DFT gradient, OOMP2, MP2 Hessian
   Martin Krupicka        : AUTO-CI
   Lucas Lang             : DCDCAS
   Dagmar Lenk            : GEPOL surface, SMD
   Dimitrios Liakos       : Extrapolation schemes; parallel MDCI
   Dimitrios Manganas     : ROCIS; embedding schemes
   Dimitrios Pantazis     : SARC Basis sets
   Taras Petrenko         : DFT Hessian,TD-DFT gradient, ASA, ECA, R-Raman, ABS, FL, XAS/XES, NRVS
   Peter Pinski           : DLPNO-MP2, DLPNO-MP2 Gradient
   Christoph Reimann      : Effective Core Potentials
   Marius Retegan         : Local ZFS, SOC
   Christoph Riplinger    : Optimizer, TS searches, QM/MM, DLPNO-CCSD(T), (RO)-DLPNO pert. Triples
   Tobias Risthaus        : Range-separated hybrids, TD-DFT gradient, RPA, STAB
   Michael Roemelt        : Restricted open shell CIS
   Masaaki Saitow         : Open-shell DLPNO
   Barbara Sandhoefer     : DKH picture change effects
   Avijit Sen             : IP-ROCIS
   Kantharuban Sivalingam : CASSCF convergence, NEVPT2, FIC-MRCI
   Bernardo de Souza      : ESD, SOC TD-DFT
   Georgi Stoychev        : AutoAux, RI-MP2 NMR
   Willem Van den Heuvel  : Paramagnetic NMR
   Boris Wezisla          : Elementary symmetry handling
   Frank Wennmohs         : Technical directorship


 We gratefully acknowledge several colleagues who have allowed us to
 interface, adapt or use parts of their codes:
   Stefan Grimme, W. Hujo, H. Kruse,             : VdW corrections, initial TS optimization,
                  C. Bannwarth                     DFT functionals, gCP, sTDA/sTD-DF
   Ed Valeev                                     : LibInt (2-el integral package), F12 methods
   Garnet Chan, S. Sharma, J. Yang, R. Olivares  : DMRG
   Ulf Ekstrom                                   : XCFun DFT Library
   Mihaly Kallay                                 : mrcc  (arbitrary order and MRCC methods)
   Andreas Klamt, Michael Diedenhofen            : otool_cosmo (COSMO solvation model)
   Jiri Pittner, Ondrej Demel                    : Mk-CCSD
   Frank Weinhold                                : gennbo (NPA and NBO analysis)
   Christopher J. Cramer and Donald G. Truhlar   : smd solvation model
   Lars Goerigk                                  : TD-DFT with DH, B97 family of functionals
   V. Asgeirsson, H. Jonsson                     : NEB implementation
   FAccTs GmbH                                   : IRC, NEB, NEB-TS, Multilevel


 Your calculation uses the libint2 library for the computation of 2-el integrals
 For citations please refer to: http://libint.valeyev.net

 This ORCA versions uses:
   CBLAS   interface :  Fast vector & matrix operations
   LAPACKE interface :  Fast linear algebra routines
   SCALAPACK package :  Parallel linear algebra routines


----- Orbital basis set information -----
Your calculation utilizes the basis: aug-pc-4
   H, C-F              : F. Jensen, J. Chem. Phys. 115, 9113 (2001).
                         F. Jensen, J. Chem. Phys. 116, 7372 (2002).
                         F. Jensen, J. Chem. Phys. 117, 9234 (2002).
   Si-Cl               : F. Jensen, T. Helgaker, J. Chem. Phys. 121, 3463 (2004).
   He-B, Ne-Mg, Al, Ar : F. Jensen, J. Phys. Chem. A 111, 11198 (2007).
   K, Ca, Ga-Kr        : F. Jensen, J. Chem. Phys. 136, 094110 (2012).
   Sc-Zn               : F. Jensen, J. Chem. Phys. 138, 014107 (2013).

================================================================================
                                        WARNINGS
                       Please study these warnings very carefully!
================================================================================


INFO   : the flag for use of LIBINT has been found!

================================================================================
                                       INPUT FILE
================================================================================
NAME = hcccl_pbe.inp
|  1> !uks pbe nori aug-pc-4 grid7 nofinalgrid verytightscf
|  2> 
|  3> %maxcore 1500
|  4> 
|  5> %pal nprocs 4 end
|  6> 
|  7> %scf
|  8> 	maxiter 200
|  9> end
| 10> %elprop
| 11> 	dipole true
| 12> 	 polar 1
| 13> 	 maxiter 200
| 14> end
| 15> 
| 16> * xyz 0 1
| 17> C 0.0000 0.0000 -1.8149
| 18> C 0.0000 0.0000 -0.6116
| 19> Cl 0.0000 0.0000 1.0252
| 20> H 0.0000 0.0000 -2.8699
| 21> *
| 22> 
| 23>                          ****END OF INPUT****
================================================================================

                       ****************************
                       * Single Point Calculation *
                       ****************************

---------------------------------
CARTESIAN COORDINATES (ANGSTROEM)
---------------------------------
  C      0.000000    0.000000   -1.814900
  C      0.000000    0.000000   -0.611600
  Cl     0.000000    0.000000    1.025200
  H      0.000000    0.000000   -2.869900

----------------------------
CARTESIAN COORDINATES (A.U.)
----------------------------
  NO LB      ZA    FRAG     MASS         X           Y           Z
   0 C     6.0000    0    12.011    0.000000    0.000000   -3.429664
   1 C     6.0000    0    12.011    0.000000    0.000000   -1.155757
   2 Cl   17.0000    0    35.453    0.000000    0.000000    1.937347
   3 H     1.0000    0     1.008    0.000000    0.000000   -5.423325

--------------------------------
INTERNAL COORDINATES (ANGSTROEM)
--------------------------------
 C      0   0   0     0.000000000000     0.00000000     0.00000000
 C      1   0   0     1.203300000000     0.00000000     0.00000000
 Cl     2   1   0     1.636800000000   180.00000000     0.00000000
 H      1   2   3     1.055000000000   179.99999809     0.00000000

---------------------------
INTERNAL COORDINATES (A.U.)
---------------------------
 C      0   0   0     0.000000000000     0.00000000     0.00000000
 C      1   0   0     2.273907456947     0.00000000     0.00000000
 Cl     2   1   0     3.093103736002   180.00000000     0.00000000
 H      1   2   3     1.993661071287   179.99999809     0.00000000

---------------------
BASIS SET INFORMATION
---------------------
There are 3 groups of distinct atoms

 Group   1 Type C   : 28s12p7d4f3g2h contracted to 9s8p7d4f3g2h pattern {11101111111/51111111/1111111/1111/111/11}
 Group   2 Type Cl  : 44s27p7d4f3g2h contracted to 8s7p7d4f3g2h pattern {15121211111/111111111/1111111/1111/111/11}
 Group   3 Type H   : 12s7p4d3f2g contracted to 8s7p4d3f2g pattern {51111111/1111111/1111/111/11}

Atom   0C    basis set group =>   1
Atom   1C    basis set group =>   1
Atom   2Cl   basis set group =>   2
Atom   3H    basis set group =>   3


           ************************************************************
           *        Program running with 4 parallel MPI-processes     *
           *              working on a common directory               *
           ************************************************************
------------------------------------------------------------------------------
                           ORCA GTO INTEGRAL CALCULATION
------------------------------------------------------------------------------

                         BASIS SET STATISTICS AND STARTUP INFO

 # of primitive gaussian shells          ...  227
 # of primitive gaussian functions       ...  681
 # of contracted shells                  ...  121
 # of contracted basis functions         ...  519
 Highest angular momentum                ...    5
 Maximum contraction depth               ...   15
 Integral package used                   ... LIBINT
 Integral threshhold            Thresh   ...  1.000e-12
 Primitive cut-off              TCut     ...  1.000e-14


------------------------------ INTEGRAL EVALUATION ----------------------------


 * One electron integrals 
 Pre-screening matrix                    ... done
 Shell pair data                         ... done (   0.003 sec)



           ************************************************************
           *        Program running with 4 parallel MPI-processes     *
           *              working on a common directory               *
           ************************************************************
-------------------------------------------------------------------------------
                                 ORCA SCF
-------------------------------------------------------------------------------

------------
SCF SETTINGS
------------
Hamiltonian:
 Density Functional     Method          .... DFT(GTOs)
 Exchange Functional    Exchange        .... PBE
   PBE kappa parameter   XKappa         ....  0.804000
   PBE mue parameter    XMuePBE         ....  0.219520
 Correlation Functional Correlation     .... PBE
   PBE beta parameter  CBetaPBE         ....  0.066725
 LDA part of GGA corr.  LDAOpt          .... PW91-LDA
 Gradients option       PostSCFGGA      .... off
   Density functional embedding theory  .... OFF
   NL short-range parameter             ....  6.400000


General Settings:
 Integral files         IntName         .... hcccl_pbe
 Hartree-Fock type      HFTyp           .... UHF
 Total Charge           Charge          ....    0
 Multiplicity           Mult            ....    1
 Number of Electrons    NEL             ....   30
 Basis Dimension        Dim             ....  519
 Nuclear Repulsion      ENuc            ....     74.5384186223 Eh

Convergence Acceleration:
 DIIS                   CNVDIIS         .... on
   Start iteration      DIISMaxIt       ....    12
   Startup error        DIISStart       ....  0.200000
   # of expansion vecs  DIISMaxEq       ....     5
   Bias factor          DIISBfac        ....   1.050
   Max. coefficient     DIISMaxC        ....  10.000
 Newton-Raphson         CNVNR           .... off
 SOSCF                  CNVSOSCF        .... off
 Level Shifting         CNVShift        .... on
   Level shift para.    LevelShift      ....    0.2500
   Turn off err/grad.   ShiftErr        ....    0.0010
 Zerner damping         CNVZerner       .... off
 Static damping         CNVDamp         .... on
   Fraction old density DampFac         ....    0.7000
   Max. Damping (<1)    DampMax         ....    0.9800
   Min. Damping (>=0)   DampMin         ....    0.0000
   Turn off err/grad.   DampErr         ....    0.1000
 Fernandez-Rico         CNVRico         .... off

SCF Procedure:
 Maximum # iterations   MaxIter         ....   200
 SCF integral mode      SCFMode         .... Direct
   Integral package                     .... LIBINT
 Reset frequency        DirectResetFreq ....    20
 Integral Threshold     Thresh          ....  1.000e-12 Eh
 Primitive CutOff       TCut            ....  1.000e-14 Eh

Convergence Tolerance:
 Convergence Check Mode ConvCheckMode   .... Total+1el-Energy
 Convergence forced     ConvForced      .... 0
 Energy Change          TolE            ....  1.000e-09 Eh
 1-El. energy change                    ....  1.000e-06 Eh
 DIIS Error             TolErr          ....  1.000e-08


Diagonalization of the overlap matrix:
Smallest eigenvalue                        ... 3.935e-08
Time for diagonalization                   ...    0.148 sec
Threshold for overlap eigenvalues          ... 1.000e-08
Number of eigenvalues below threshold      ... 0
Time for construction of square roots      ...    0.056 sec
Total time needed                          ...    0.205 sec

-------------------
DFT GRID GENERATION
-------------------

General Integration Accuracy     IntAcc      ...  5.670
Radial Grid Type                 RadialGrid  ... Gauss-Chebyshev
Angular Grid (max. acc.)         AngularGrid ... Lebedev-770
Angular grid pruning method      GridPruning ... 3 (G Style)
Weight generation scheme         WeightScheme... Becke
Basis function cutoff            BFCut       ...    1.0000e-12
Integration weight cutoff        WCut        ...    1.0000e-14
Grids for H and He will be reduced by one unit

# of grid points (after initial pruning)     ...  95252 (   0.0 sec)
# of grid points (after weights+screening)   ...  93444 (   0.0 sec)
nearest neighbour list constructed           ...    0.0 sec
Grid point re-assignment to atoms done       ...    0.0 sec
Grid point division into batches done        ...    1.9 sec
Reduced shell lists constructed in    2.2 sec

Total number of grid points                  ...    93444
Total number of batches                      ...     1462
Average number of points per batch           ...       63
Average number of grid points per atom       ...    23361
Average number of shells per batch           ...    90.53 (74.81%)
Average number of basis functions per batch  ...   397.90 (76.67%)
Average number of large shells per batch     ...    80.57 (89.00%)
Average number of large basis fcns per batch ...   353.75 (88.90%)
Maximum spatial batch extension              ...  20.36, 20.36,  2.66 au
Average spatial batch extension              ...   0.58,  0.57,  0.31 au

Time for grid setup =    2.308 sec

------------------------------
INITIAL GUESS: MODEL POTENTIAL
------------------------------
Loading Hartree-Fock densities                     ... done
Calculating cut-offs                               ... done
Setting up the integral package                    ... done
Initializing the effective Hamiltonian             ... done
Starting the Coulomb interaction                   ... done (   0.1 sec)
Reading the grid                                   ... done
Mapping shells                                     ... done
Starting the XC term evaluation                    ... done (   2.2 sec)
  promolecular density results
     # of electrons  =     29.999509896
     EX              =    -37.854632790
     EC              =     -1.072679625
     EX+EC           =    -38.927312414
Transforming the Hamiltonian                       ... done (   0.0 sec)
Diagonalizing the Hamiltonian                      ... done (   0.1 sec)
Back transforming the eigenvectors                 ... done (   0.0 sec)
Now organizing SCF variables                       ... done
                      ------------------
                      INITIAL GUESS DONE (   4.8 sec)
                      ------------------
--------------
SCF ITERATIONS
--------------
ITER       Energy         Delta-E        Max-DP      RMS-DP      [F,P]     Damp
               ***  Starting incremental Fock matrix formation  ***
  0   -536.6047559282   0.000000000000 0.04404853  0.00029200  0.1870072 0.7000
  1   -536.6568063764  -0.052050448235 0.02109286  0.00015978  0.0753692 0.7000
                               ***Turning on DIIS***
  2   -536.6708556753  -0.014049298870 0.02958162  0.00027119  0.0277979 0.0000
  3   -536.6934059624  -0.022550287052 0.01892116  0.00013411  0.0481833 0.0000
  4   -536.7015934475  -0.008187485089 0.02489035  0.00009580  0.0235174 0.0000
  5   -536.7025973046  -0.001003857149 0.01255845  0.00005941  0.0047896 0.0000
  6   -536.7026723786  -0.000075074043 0.01049621  0.00003838  0.0012636 0.0000
  7   -536.7026765899  -0.000004211210 0.00572006  0.00002222  0.0003527 0.0000
  8   -536.7026768575  -0.000000267635 0.00142488  0.00000546  0.0001687 0.0000
  9   -536.7026769428  -0.000000085299 0.00018602  0.00000122  0.0001035 0.0000
 10   -536.7026769668  -0.000000024039 0.00068768  0.00000310  0.0000290 0.0000
 11   -536.7026769688  -0.000000002020 0.00040742  0.00000356  0.0000042 0.0000
 12   -536.7026769688  -0.000000000004 0.00075818  0.00000302  0.0000047 0.0000
 13   -536.7026769689  -0.000000000030 0.00070340  0.00000333  0.0000004 0.0000
                 **** Energy Check signals convergence ****

               *****************************************************
               *                     SUCCESS                       *
               *           SCF CONVERGED AFTER  14 CYCLES          *
               *****************************************************


----------------
TOTAL SCF ENERGY
----------------

Total Energy       :         -536.70267697 Eh          -14604.42231 eV

Components:
Nuclear Repulsion  :           74.53841862 Eh            2028.29349 eV
Electronic Energy  :         -611.24109559 Eh          -16632.71580 eV
One Electron Energy:         -885.50612575 Eh          -24095.84669 eV
Two Electron Energy:          274.26503016 Eh            7463.13089 eV

Virial components:
Potential Energy   :        -1072.72663193 Eh          -29190.37566 eV
Kinetic Energy     :          536.02395496 Eh           14585.95335 eV
Virial Ratio       :            2.00126622


DFT components:
N(Alpha)           :       14.999999847448 electrons
N(Beta)            :       14.999999847448 electrons
N(Total)           :       29.999999694896 electrons
E(X)               :      -38.034921971040 Eh       
E(C)               :       -1.077270071398 Eh       
E(XC)              :      -39.112192042437 Eh       
DFET-embed. en.    :        0.000000000000 Eh       

---------------
SCF CONVERGENCE
---------------

  Last Energy change         ...   -9.8908e-12  Tolerance :   1.0000e-09
  Last MAX-Density change    ...    9.1173e-04  Tolerance :   1.0000e-08
  Last RMS-Density change    ...    8.2879e-06  Tolerance :   1.0000e-09
  Last DIIS Error            ...    1.0292e-07  Tolerance :   1.0000e-08

             **** THE GBW FILE WAS UPDATED (hcccl_pbe.gbw) ****
             **** DENSITY FILE WAS UPDATED (hcccl_pbe.scfp.tmp) ****
             **** ENERGY FILE WAS UPDATED (hcccl_pbe.en.tmp) ****
----------------------
UHF SPIN CONTAMINATION
----------------------

Warning: in a DFT calculation there is little theoretical justification to 
         calculate <S**2> as in Hartree-Fock theory. We will do it anyways
         but you should keep in mind that the values have only limited relevance

Expectation value of <S**2>     :    -0.000000
Ideal value S*(S+1) for S=0.0   :     0.000000
Deviation                       :    -0.000000

----------------
ORBITAL ENERGIES
----------------
                 SPIN UP ORBITALS
  NO   OCC          E(Eh)            E(eV) 
   0   1.0000    -100.703871     -2740.2916 
   1   1.0000      -9.943198      -270.5682 
   2   1.0000      -9.898234      -269.3446 
   3   1.0000      -9.226277      -251.0598 
   4   1.0000      -7.049656      -191.8309 
   5   1.0000      -7.038607      -191.5302 
   6   1.0000      -7.038607      -191.5302 
   7   1.0000      -0.839028       -22.8311 
   8   1.0000      -0.682031       -18.5590 
   9   1.0000      -0.510128       -13.8813 
  10   1.0000      -0.460624       -12.5342 
  11   1.0000      -0.361344        -9.8327 
  12   1.0000      -0.361344        -9.8327 
  13   1.0000      -0.249259        -6.7827 
  14   1.0000      -0.249259        -6.7827 
  15   0.0000      -0.030670        -0.8346 
  16   0.0000      -0.017741        -0.4828 
  17   0.0000      -0.017741        -0.4828 
  18   0.0000      -0.005018        -0.1365 
  19   0.0000       0.004451         0.1211 
  20   0.0000       0.019897         0.5414 
  21   0.0000       0.019897         0.5414 
  22   0.0000       0.029480         0.8022 
  23   0.0000       0.033848         0.9210 
  24   0.0000       0.033848         0.9210 
  25   0.0000       0.041956         1.1417 
  26   0.0000       0.045675         1.2429 
  27   0.0000       0.059581         1.6213 
  28   0.0000       0.064932         1.7669 
  29   0.0000       0.064932         1.7669 
  30   0.0000       0.071142         1.9359 
  31   0.0000       0.071142         1.9359 
  32   0.0000       0.075293         2.0488 
  33   0.0000       0.080261         2.1840 
  34   0.0000       0.080261         2.1840 
  35   0.0000       0.098737         2.6868 
  36   0.0000       0.098737         2.6868 
  37   0.0000       0.110362         3.0031 
  38   0.0000       0.110362         3.0031 
  39   0.0000       0.112700         3.0667 
  40   0.0000       0.129813         3.5324 
  41   0.0000       0.138741         3.7753 
  42   0.0000       0.141664         3.8549 
  43   0.0000       0.145170         3.9503 
  44   0.0000       0.145170         3.9503 
  45   0.0000       0.162894         4.4326 
  46   0.0000       0.162894         4.4326 
  47   0.0000       0.169389         4.6093 
  48   0.0000       0.178403         4.8546 
  49   0.0000       0.178403         4.8546 
  50   0.0000       0.182850         4.9756 
  51   0.0000       0.182850         4.9756 
  52   0.0000       0.206892         5.6298 
  53   0.0000       0.206892         5.6298 
  54   0.0000       0.207961         5.6589 
  55   0.0000       0.207962         5.6589 
  56   0.0000       0.216918         5.9026 
  57   0.0000       0.220432         5.9983 
  58   0.0000       0.220432         5.9983 
  59   0.0000       0.222698         6.0599 
  60   0.0000       0.222699         6.0599 
  61   0.0000       0.236419         6.4333 
  62   0.0000       0.239331         6.5125 
  63   0.0000       0.239331         6.5125 
  64   0.0000       0.245653         6.6846 
  65   0.0000       0.245653         6.6846 
  66   0.0000       0.270037         7.3481 
  67   0.0000       0.279285         7.5997 
  68   0.0000       0.279807         7.6139 
  69   0.0000       0.279807         7.6139 
  70   0.0000       0.291660         7.9365 
  71   0.0000       0.291660         7.9365 
  72   0.0000       0.298949         8.1348 
  73   0.0000       0.304826         8.2947 
  74   0.0000       0.324791         8.8380 
  75   0.0000       0.324791         8.8380 
  76   0.0000       0.329157         8.9568 
  77   0.0000       0.329157         8.9568 
  78   0.0000       0.337272         9.1776 
  79   0.0000       0.347426         9.4539 
  80   0.0000       0.347426         9.4539 
  81   0.0000       0.348961         9.4957 
  82   0.0000       0.348961         9.4957 
  83   0.0000       0.357208         9.7201 
  84   0.0000       0.357208         9.7201 
  85   0.0000       0.370858        10.0915 
  86   0.0000       0.370858        10.0915 
  87   0.0000       0.371810        10.1175 
  88   0.0000       0.371811        10.1175 
  89   0.0000       0.397156        10.8072 
  90   0.0000       0.397156        10.8072 
  91   0.0000       0.404629        11.0105 
  92   0.0000       0.442209        12.0331 
  93   0.0000       0.442209        12.0331 
  94   0.0000       0.451035        12.2733 
  95   0.0000       0.451035        12.2733 
  96   0.0000       0.451947        12.2981 
  97   0.0000       0.458458        12.4753 
  98   0.0000       0.458458        12.4753 
  99   0.0000       0.460850        12.5404 
 100   0.0000       0.460852        12.5404 
 101   0.0000       0.471230        12.8228 
 102   0.0000       0.471230        12.8228 
 103   0.0000       0.482322        13.1246 
 104   0.0000       0.489795        13.3280 
 105   0.0000       0.489795        13.3280 
 106   0.0000       0.494355        13.4521 
 107   0.0000       0.494355        13.4521 
 108   0.0000       0.494658        13.4603 
 109   0.0000       0.495307        13.4780 
 110   0.0000       0.495307        13.4780 
 111   0.0000       0.507247        13.8029 
 112   0.0000       0.540424        14.7057 
 113   0.0000       0.551609        15.0100 
 114   0.0000       0.551609        15.0100 
 115   0.0000       0.555521        15.1165 
 116   0.0000       0.555521        15.1165 
 117   0.0000       0.557618        15.1736 
 118   0.0000       0.565132        15.3780 
 119   0.0000       0.565132        15.3780 
 120   0.0000       0.573190        15.5973 
 121   0.0000       0.573190        15.5973 
 122   0.0000       0.575140        15.6503 
 123   0.0000       0.575141        15.6504 
 124   0.0000       0.583682        15.8828 
 125   0.0000       0.603020        16.4090 
 126   0.0000       0.603020        16.4090 
 127   0.0000       0.610844        16.6219 
 128   0.0000       0.610845        16.6219 
 129   0.0000       0.617158        16.7937 
 130   0.0000       0.617158        16.7937 
 131   0.0000       0.635706        17.2984 
 132   0.0000       0.663018        18.0416 
 133   0.0000       0.663018        18.0416 
 134   0.0000       0.679821        18.4989 
 135   0.0000       0.679821        18.4989 
 136   0.0000       0.679831        18.4991 
 137   0.0000       0.679831        18.4991 
 138   0.0000       0.713219        19.4077 
 139   0.0000       0.714181        19.4339 
 140   0.0000       0.714181        19.4339 
 141   0.0000       0.723739        19.6940 
 142   0.0000       0.723739        19.6940 
 143   0.0000       0.727417        19.7940 
 144   0.0000       0.727418        19.7941 
 145   0.0000       0.743574        20.2337 
 146   0.0000       0.743574        20.2337 
 147   0.0000       0.761038        20.7089 
 148   0.0000       0.761038        20.7089 
 149   0.0000       0.772675        21.0255 
 150   0.0000       0.785013        21.3613 
 151   0.0000       0.785013        21.3613 
 152   0.0000       0.814323        22.1588 
 153   0.0000       0.814327        22.1590 
 154   0.0000       0.823660        22.4129 
 155   0.0000       0.836908        22.7734 
 156   0.0000       0.836908        22.7734 
 157   0.0000       0.837896        22.8003 
 158   0.0000       0.837896        22.8003 
 159   0.0000       0.842910        22.9368 
 160   0.0000       0.854007        23.2387 
 161   0.0000       0.854008        23.2387 
 162   0.0000       0.855391        23.2764 
 163   0.0000       0.855391        23.2764 
 164   0.0000       0.863761        23.5041 
 165   0.0000       0.865867        23.5614 
 166   0.0000       0.865867        23.5614 
 167   0.0000       0.878289        23.8995 
 168   0.0000       0.878289        23.8995 
 169   0.0000       0.904432        24.6109 
 170   0.0000       0.904432        24.6109 
 171   0.0000       0.918374        24.9902 
 172   0.0000       0.918374        24.9902 
 173   0.0000       0.919977        25.0338 
 174   0.0000       0.930420        25.3180 
 175   0.0000       0.970771        26.4160 
 176   0.0000       0.982052        26.7230 
 177   0.0000       0.982052        26.7230 
 178   0.0000       0.998007        27.1571 
 179   0.0000       0.998007        27.1572 
 180   0.0000       0.998856        27.1802 
 181   0.0000       1.008804        27.4509 
 182   0.0000       1.008804        27.4509 
 183   0.0000       1.014888        27.6165 
 184   0.0000       1.014889        27.6165 
 185   0.0000       1.017950        27.6998 
 186   0.0000       1.031954        28.0809 
 187   0.0000       1.031955        28.0809 
 188   0.0000       1.048480        28.5306 
 189   0.0000       1.048480        28.5306 
 190   0.0000       1.085642        29.5418 
 191   0.0000       1.085642        29.5418 
 192   0.0000       1.086959        29.5777 
 193   0.0000       1.114962        30.3397 
 194   0.0000       1.114962        30.3397 
 195   0.0000       1.126871        30.6637 
 196   0.0000       1.126871        30.6637 
 197   0.0000       1.161466        31.6051 
 198   0.0000       1.161466        31.6051 
 199   0.0000       1.191461        32.4213 
 200   0.0000       1.247496        33.9461 
 201   0.0000       1.253702        34.1150 
 202   0.0000       1.253704        34.1150 
 203   0.0000       1.290161        35.1071 
 204   0.0000       1.290161        35.1071 
 205   0.0000       1.345666        36.6174 
 206   0.0000       1.350501        36.7490 
 207   0.0000       1.350501        36.7490 
 208   0.0000       1.388241        37.7759 
 209   0.0000       1.388241        37.7759 
 210   0.0000       1.394003        37.9327 
 211   0.0000       1.394004        37.9328 
 212   0.0000       1.414512        38.4908 
 213   0.0000       1.442897        39.2632 
 214   0.0000       1.442898        39.2632 
 215   0.0000       1.513618        41.1876 
 216   0.0000       1.532501        41.7015 
 217   0.0000       1.532503        41.7015 
 218   0.0000       1.549708        42.1697 
 219   0.0000       1.549708        42.1697 
 220   0.0000       1.559652        42.4403 
 221   0.0000       1.559652        42.4403 
 222   0.0000       1.574543        42.8455 
 223   0.0000       1.611977        43.8641 
 224   0.0000       1.655025        45.0355 
 225   0.0000       1.655025        45.0355 
 226   0.0000       1.733158        47.1616 
 227   0.0000       1.827557        49.7303 
 228   0.0000       1.840503        50.0826 
 229   0.0000       1.840503        50.0826 
 230   0.0000       1.911508        52.0148 
 231   0.0000       1.911509        52.0148 
 232   0.0000       1.922985        52.3271 
 233   0.0000       1.922985        52.3271 
 234   0.0000       1.951496        53.1029 
 235   0.0000       2.032117        55.2967 
 236   0.0000       2.032117        55.2967 
 237   0.0000       2.073056        56.4107 
 238   0.0000       2.086169        56.7675 
 239   0.0000       2.086169        56.7676 
 240   0.0000       2.136151        58.1276 
 241   0.0000       2.147447        58.4350 
 242   0.0000       2.147448        58.4350 
 243   0.0000       2.260776        61.5189 
 244   0.0000       2.260777        61.5189 
 245   0.0000       2.297836        62.5273 
 246   0.0000       2.297836        62.5273 
 247   0.0000       2.307003        62.7768 
 248   0.0000       2.307003        62.7768 
 249   0.0000       2.330496        63.4160 
 250   0.0000       2.389274        65.0155 
 251   0.0000       2.389274        65.0155 
 252   0.0000       2.472466        67.2792 
 253   0.0000       2.533237        68.9329 
 254   0.0000       2.533237        68.9329 
 255   0.0000       2.560637        69.6785 
 256   0.0000       2.635046        71.7032 
 257   0.0000       2.650683        72.1288 
 258   0.0000       2.650683        72.1288 
 259   0.0000       2.712391        73.8079 
 260   0.0000       2.754351        74.9497 
 261   0.0000       2.754351        74.9497 
 262   0.0000       2.783871        75.7530 
 263   0.0000       2.783872        75.7530 
 264   0.0000       2.850259        77.5595 
 265   0.0000       2.850259        77.5595 
 266   0.0000       2.858705        77.7893 
 267   0.0000       2.859802        77.8192 
 268   0.0000       2.859802        77.8192 
 269   0.0000       3.020870        82.2021 
 270   0.0000       3.020871        82.2021 
 271   0.0000       3.101220        84.3885 
 272   0.0000       3.101220        84.3885 
 273   0.0000       3.253097        88.5213 
 274   0.0000       3.297822        89.7383 
 275   0.0000       3.339455        90.8712 
 276   0.0000       3.339456        90.8712 
 277   0.0000       3.472640        94.4953 
 278   0.0000       3.500397        95.2506 
 279   0.0000       3.500397        95.2506 
 280   0.0000       3.553398        96.6929 
 281   0.0000       3.553398        96.6929 
 282   0.0000       3.587640        97.6247 
 283   0.0000       3.587640        97.6247 
 284   0.0000       3.657048        99.5133 
 285   0.0000       3.704018       100.7914 
 286   0.0000       3.704018       100.7915 
 287   0.0000       3.775659       102.7409 
 288   0.0000       3.775659       102.7409 
 289   0.0000       3.889511       105.8390 
 290   0.0000       3.889511       105.8390 
 291   0.0000       3.937745       107.1515 
 292   0.0000       3.937745       107.1515 
 293   0.0000       3.958653       107.7204 
 294   0.0000       3.958653       107.7204 
 295   0.0000       4.027201       109.5857 
 296   0.0000       4.027201       109.5857 
 297   0.0000       4.052910       110.2853 
 298   0.0000       4.148913       112.8977 
 299   0.0000       4.148913       112.8977 
 300   0.0000       4.191693       114.0618 
 301   0.0000       4.212702       114.6335 
 302   0.0000       4.212702       114.6335 
 303   0.0000       4.258816       115.8883 
 304   0.0000       4.258816       115.8883 
 305   0.0000       4.274737       116.3215 
 306   0.0000       4.274737       116.3215 
 307   0.0000       4.304218       117.1237 
 308   0.0000       4.304218       117.1237 
 309   0.0000       4.343410       118.1902 
 310   0.0000       4.371500       118.9546 
 311   0.0000       4.538899       123.5097 
 312   0.0000       4.538899       123.5097 
 313   0.0000       4.588113       124.8489 
 314   0.0000       4.591357       124.9372 
 315   0.0000       4.591357       124.9372 
 316   0.0000       4.629087       125.9639 
 317   0.0000       4.629087       125.9639 
 318   0.0000       4.724902       128.5711 
 319   0.0000       4.728733       128.6754 
 320   0.0000       4.728733       128.6754 
 321   0.0000       4.835691       131.5858 
 322   0.0000       4.835691       131.5858 
 323   0.0000       4.963133       135.0537 
 324   0.0000       4.963133       135.0537 
 325   0.0000       5.025876       136.7610 
 326   0.0000       5.057958       137.6340 
 327   0.0000       5.057958       137.6340 
 328   0.0000       5.076778       138.1462 
 329   0.0000       5.076778       138.1462 
 330   0.0000       5.181320       140.9909 
 331   0.0000       5.181320       140.9909 
 332   0.0000       5.208444       141.7290 
 333   0.0000       5.244953       142.7224 
 334   0.0000       5.458050       148.5211 
 335   0.0000       5.458050       148.5211 
 336   0.0000       5.510939       149.9603 
 337   0.0000       5.581590       151.8828 
 338   0.0000       5.581590       151.8828 
 339   0.0000       5.649380       153.7275 
 340   0.0000       5.649380       153.7275 
 341   0.0000       5.651365       153.7815 
 342   0.0000       5.651365       153.7815 
 343   0.0000       5.876373       159.9042 
 344   0.0000       5.912043       160.8749 
 345   0.0000       5.912043       160.8749 
 346   0.0000       5.923228       161.1792 
 347   0.0000       5.923228       161.1792 
 348   0.0000       6.077652       165.3813 
 349   0.0000       6.083301       165.5350 
 350   0.0000       6.083301       165.5350 
 351   0.0000       6.293605       171.2577 
 352   0.0000       6.293605       171.2577 
 353   0.0000       6.393224       173.9685 
 354   0.0000       6.393224       173.9685 
 355   0.0000       6.452259       175.5749 
 356   0.0000       6.452259       175.5749 
 357   0.0000       6.508045       177.0929 
 358   0.0000       6.623252       180.2278 
 359   0.0000       6.915658       188.1846 
 360   0.0000       6.915658       188.1846 
 361   0.0000       6.916044       188.1951 
 362   0.0000       7.090271       192.9361 
 363   0.0000       7.090271       192.9361 
 364   0.0000       7.306162       198.8108 
 365   0.0000       7.416870       201.8233 
 366   0.0000       7.416870       201.8233 
 367   0.0000       7.809682       212.5122 
 368   0.0000       7.843997       213.4460 
 369   0.0000       7.843997       213.4460 
 370   0.0000       8.164500       222.1673 
 371   0.0000       8.370052       227.7607 
 372   0.0000       8.370052       227.7607 
 373   0.0000       8.409807       228.8425 
 374   0.0000       8.790236       239.1945 
 375   0.0000       8.839822       240.5438 
 376   0.0000       8.839822       240.5438 
 377   0.0000       9.046929       246.1795 
 378   0.0000       9.046929       246.1795 
 379   0.0000       9.069876       246.8039 
 380   0.0000       9.069876       246.8039 
 381   0.0000       9.098386       247.5797 
 382   0.0000       9.098386       247.5797 
 383   0.0000       9.390413       255.5261 
 384   0.0000       9.390414       255.5262 
 385   0.0000       9.677924       263.3497 
 386   0.0000       9.848750       267.9981 
 387   0.0000       9.949016       270.7265 
 388   0.0000       9.949016       270.7265 
 389   0.0000      10.095500       274.7125 
 390   0.0000      10.095500       274.7125 
 391   0.0000      10.114167       275.2205 
 392   0.0000      10.114167       275.2205 
 393   0.0000      10.205777       277.7133 
 394   0.0000      10.205777       277.7133 
 395   0.0000      10.253621       279.0152 
 396   0.0000      10.253621       279.0152 
 397   0.0000      10.324005       280.9305 
 398   0.0000      10.324005       280.9305 
 399   0.0000      10.363346       282.0010 
 400   0.0000      10.363346       282.0010 
 401   0.0000      10.522800       286.3400 
 402   0.0000      10.663363       290.1649 
 403   0.0000      10.663363       290.1649 
 404   0.0000      10.702872       291.2399 
 405   0.0000      10.702872       291.2399 
 406   0.0000      10.835244       294.8420 
 407   0.0000      10.835244       294.8420 
 408   0.0000      10.849570       295.2318 
 409   0.0000      10.849570       295.2318 
 410   0.0000      10.961669       298.2822 
 411   0.0000      11.274872       306.8049 
 412   0.0000      11.274873       306.8049 
 413   0.0000      11.328801       308.2723 
 414   0.0000      11.368006       309.3392 
 415   0.0000      11.368007       309.3392 
 416   0.0000      11.540155       314.0236 
 417   0.0000      11.540155       314.0236 
 418   0.0000      11.576412       315.0102 
 419   0.0000      11.576412       315.0102 
 420   0.0000      11.678467       317.7873 
 421   0.0000      11.678468       317.7873 
 422   0.0000      11.681663       317.8742 
 423   0.0000      11.681664       317.8742 
 424   0.0000      11.686736       318.0122 
 425   0.0000      11.686736       318.0122 
 426   0.0000      11.787542       320.7553 
 427   0.0000      11.787542       320.7553 
 428   0.0000      11.843707       322.2837 
 429   0.0000      11.843708       322.2837 
 430   0.0000      11.933346       324.7228 
 431   0.0000      11.963598       325.5460 
 432   0.0000      11.963598       325.5461 
 433   0.0000      12.065815       328.3275 
 434   0.0000      12.065815       328.3275 
 435   0.0000      12.096122       329.1522 
 436   0.0000      12.096122       329.1522 
 437   0.0000      12.299733       334.6927 
 438   0.0000      12.299733       334.6927 
 439   0.0000      12.348234       336.0125 
 440   0.0000      12.688527       345.2724 
 441   0.0000      12.722936       346.2087 
 442   0.0000      12.722936       346.2087 
 443   0.0000      12.805604       348.4582 
 444   0.0000      12.805606       348.4582 
 445   0.0000      12.838158       349.3440 
 446   0.0000      12.838158       349.3440 
 447   0.0000      12.852536       349.7353 
 448   0.0000      12.852536       349.7353 
 449   0.0000      13.060012       355.3810 
 450   0.0000      13.060013       355.3810 
 451   0.0000      13.177816       358.5866 
 452   0.0000      13.177816       358.5866 
 453   0.0000      13.288483       361.5980 
 454   0.0000      13.626029       370.7831 
 455   0.0000      13.640877       371.1871 
 456   0.0000      13.640877       371.1871 
 457   0.0000      13.787663       375.1814 
 458   0.0000      13.787663       375.1814 
 459   0.0000      13.959499       379.8573 
 460   0.0000      14.192141       386.1878 
 461   0.0000      14.192141       386.1878 
 462   0.0000      14.730407       400.8347 
 463   0.0000      15.152183       412.3119 
 464   0.0000      15.152183       412.3119 
 465   0.0000      15.425879       419.7595 
 466   0.0000      16.162162       439.7948 
 467   0.0000      16.162162       439.7948 
 468   0.0000      16.677787       453.8257 
 469   0.0000      16.707874       454.6444 
 470   0.0000      16.707874       454.6444 
 471   0.0000      17.043023       463.7642 
 472   0.0000      17.043023       463.7642 
 473   0.0000      17.200285       468.0436 
 474   0.0000      17.200285       468.0436 
 475   0.0000      17.511469       476.5113 
 476   0.0000      17.699305       481.6226 
 477   0.0000      17.699306       481.6226 
 478   0.0000      17.919812       487.6229 
 479   0.0000      18.041339       490.9298 
 480   0.0000      18.041339       490.9298 
 481   0.0000      18.210561       495.5346 
 482   0.0000      18.210561       495.5346 
 483   0.0000      18.457394       502.2512 
 484   0.0000      19.052847       518.4543 
 485   0.0000      19.052847       518.4543 
 486   0.0000      19.409810       528.1678 
 487   0.0000      19.600405       533.3541 
 488   0.0000      19.600405       533.3541 
 489   0.0000      20.782896       565.5314 
 490   0.0000      21.461527       583.9978 
 491   0.0000      21.461527       583.9978 
 492   0.0000      21.899605       595.9186 
 493   0.0000      23.954845       651.8445 
 494   0.0000      23.954845       651.8445 
 495   0.0000      24.478028       666.0810 
 496   0.0000      26.254735       714.4277 
 497   0.0000      31.891324       867.8070 
 498   0.0000      31.891328       867.8072 
 499   0.0000      32.054481       872.2468 
 500   0.0000      32.054485       872.2469 
 501   0.0000      32.313778       879.3026 
 502   0.0000      32.313778       879.3026 
 503   0.0000      33.429149       909.6534 
 504   0.0000      33.429149       909.6534 
 505   0.0000      33.913053       922.8211 
 506   0.0000      35.639589       969.8025 
 507   0.0000      41.573593      1131.2750 
 508   0.0000      43.550324      1185.0646 
 509   0.0000      65.831076      1791.3547 
 510   0.0000      65.831078      1791.3547 
 511   0.0000      66.002888      1796.0299 
 512   0.0000      66.002888      1796.0299 
 513   0.0000      66.504323      1809.6746 
 514   0.0000      76.117121      2071.2522 
 515   0.0000      77.283828      2102.9999 
 516   0.0000      91.296762      2484.3112 
 517   0.0000      91.296762      2484.3112 
 518   0.0000      92.665859      2521.5662 

                 SPIN DOWN ORBITALS
  NO   OCC          E(Eh)            E(eV) 
   0   1.0000    -100.703871     -2740.2916 
   1   1.0000      -9.943198      -270.5682 
   2   1.0000      -9.898234      -269.3446 
   3   1.0000      -9.226277      -251.0598 
   4   1.0000      -7.049656      -191.8309 
   5   1.0000      -7.038607      -191.5302 
   6   1.0000      -7.038607      -191.5302 
   7   1.0000      -0.839028       -22.8311 
   8   1.0000      -0.682031       -18.5590 
   9   1.0000      -0.510128       -13.8813 
  10   1.0000      -0.460624       -12.5342 
  11   1.0000      -0.361344        -9.8327 
  12   1.0000      -0.361344        -9.8327 
  13   1.0000      -0.249259        -6.7827 
  14   1.0000      -0.249259        -6.7827 
  15   0.0000      -0.030670        -0.8346 
  16   0.0000      -0.017741        -0.4828 
  17   0.0000      -0.017741        -0.4828 
  18   0.0000      -0.005018        -0.1365 
  19   0.0000       0.004451         0.1211 
  20   0.0000       0.019897         0.5414 
  21   0.0000       0.019897         0.5414 
  22   0.0000       0.029480         0.8022 
  23   0.0000       0.033848         0.9210 
  24   0.0000       0.033848         0.9210 
  25   0.0000       0.041956         1.1417 
  26   0.0000       0.045675         1.2429 
  27   0.0000       0.059581         1.6213 
  28   0.0000       0.064932         1.7669 
  29   0.0000       0.064932         1.7669 
  30   0.0000       0.071142         1.9359 
  31   0.0000       0.071142         1.9359 
  32   0.0000       0.075293         2.0488 
  33   0.0000       0.080261         2.1840 
  34   0.0000       0.080261         2.1840 
  35   0.0000       0.098737         2.6868 
  36   0.0000       0.098737         2.6868 
  37   0.0000       0.110362         3.0031 
  38   0.0000       0.110362         3.0031 
  39   0.0000       0.112700         3.0667 
  40   0.0000       0.129813         3.5324 
  41   0.0000       0.138741         3.7753 
  42   0.0000       0.141664         3.8549 
  43   0.0000       0.145170         3.9503 
  44   0.0000       0.145170         3.9503 
  45   0.0000       0.162894         4.4326 
  46   0.0000       0.162894         4.4326 
  47   0.0000       0.169389         4.6093 
  48   0.0000       0.178403         4.8546 
  49   0.0000       0.178403         4.8546 
  50   0.0000       0.182850         4.9756 
  51   0.0000       0.182850         4.9756 
  52   0.0000       0.206892         5.6298 
  53   0.0000       0.206892         5.6298 
  54   0.0000       0.207961         5.6589 
  55   0.0000       0.207962         5.6589 
  56   0.0000       0.216918         5.9026 
  57   0.0000       0.220432         5.9983 
  58   0.0000       0.220432         5.9983 
  59   0.0000       0.222698         6.0599 
  60   0.0000       0.222699         6.0599 
  61   0.0000       0.236419         6.4333 
  62   0.0000       0.239331         6.5125 
  63   0.0000       0.239331         6.5125 
  64   0.0000       0.245653         6.6846 
  65   0.0000       0.245653         6.6846 
  66   0.0000       0.270037         7.3481 
  67   0.0000       0.279285         7.5997 
  68   0.0000       0.279807         7.6139 
  69   0.0000       0.279807         7.6139 
  70   0.0000       0.291660         7.9365 
  71   0.0000       0.291660         7.9365 
  72   0.0000       0.298949         8.1348 
  73   0.0000       0.304826         8.2947 
  74   0.0000       0.324791         8.8380 
  75   0.0000       0.324791         8.8380 
  76   0.0000       0.329157         8.9568 
  77   0.0000       0.329157         8.9568 
  78   0.0000       0.337272         9.1776 
  79   0.0000       0.347426         9.4539 
  80   0.0000       0.347426         9.4539 
  81   0.0000       0.348961         9.4957 
  82   0.0000       0.348961         9.4957 
  83   0.0000       0.357208         9.7201 
  84   0.0000       0.357208         9.7201 
  85   0.0000       0.370858        10.0915 
  86   0.0000       0.370858        10.0915 
  87   0.0000       0.371810        10.1175 
  88   0.0000       0.371811        10.1175 
  89   0.0000       0.397156        10.8072 
  90   0.0000       0.397156        10.8072 
  91   0.0000       0.404629        11.0105 
  92   0.0000       0.442209        12.0331 
  93   0.0000       0.442209        12.0331 
  94   0.0000       0.451035        12.2733 
  95   0.0000       0.451035        12.2733 
  96   0.0000       0.451947        12.2981 
  97   0.0000       0.458458        12.4753 
  98   0.0000       0.458458        12.4753 
  99   0.0000       0.460850        12.5404 
 100   0.0000       0.460852        12.5404 
 101   0.0000       0.471230        12.8228 
 102   0.0000       0.471230        12.8228 
 103   0.0000       0.482322        13.1246 
 104   0.0000       0.489795        13.3280 
 105   0.0000       0.489795        13.3280 
 106   0.0000       0.494355        13.4521 
 107   0.0000       0.494355        13.4521 
 108   0.0000       0.494658        13.4603 
 109   0.0000       0.495307        13.4780 
 110   0.0000       0.495307        13.4780 
 111   0.0000       0.507247        13.8029 
 112   0.0000       0.540424        14.7057 
 113   0.0000       0.551609        15.0100 
 114   0.0000       0.551609        15.0100 
 115   0.0000       0.555521        15.1165 
 116   0.0000       0.555521        15.1165 
 117   0.0000       0.557618        15.1736 
 118   0.0000       0.565132        15.3780 
 119   0.0000       0.565132        15.3780 
 120   0.0000       0.573190        15.5973 
 121   0.0000       0.573190        15.5973 
 122   0.0000       0.575140        15.6503 
 123   0.0000       0.575141        15.6504 
 124   0.0000       0.583682        15.8828 
 125   0.0000       0.603020        16.4090 
 126   0.0000       0.603020        16.4090 
 127   0.0000       0.610844        16.6219 
 128   0.0000       0.610845        16.6219 
 129   0.0000       0.617158        16.7937 
 130   0.0000       0.617158        16.7937 
 131   0.0000       0.635706        17.2984 
 132   0.0000       0.663018        18.0416 
 133   0.0000       0.663018        18.0416 
 134   0.0000       0.679821        18.4989 
 135   0.0000       0.679821        18.4989 
 136   0.0000       0.679831        18.4991 
 137   0.0000       0.679831        18.4991 
 138   0.0000       0.713219        19.4077 
 139   0.0000       0.714181        19.4339 
 140   0.0000       0.714181        19.4339 
 141   0.0000       0.723739        19.6940 
 142   0.0000       0.723739        19.6940 
 143   0.0000       0.727417        19.7940 
 144   0.0000       0.727418        19.7941 
 145   0.0000       0.743574        20.2337 
 146   0.0000       0.743574        20.2337 
 147   0.0000       0.761038        20.7089 
 148   0.0000       0.761038        20.7089 
 149   0.0000       0.772675        21.0255 
 150   0.0000       0.785013        21.3613 
 151   0.0000       0.785013        21.3613 
 152   0.0000       0.814323        22.1588 
 153   0.0000       0.814327        22.1590 
 154   0.0000       0.823660        22.4129 
 155   0.0000       0.836908        22.7734 
 156   0.0000       0.836908        22.7734 
 157   0.0000       0.837896        22.8003 
 158   0.0000       0.837896        22.8003 
 159   0.0000       0.842910        22.9368 
 160   0.0000       0.854007        23.2387 
 161   0.0000       0.854008        23.2387 
 162   0.0000       0.855391        23.2764 
 163   0.0000       0.855391        23.2764 
 164   0.0000       0.863761        23.5041 
 165   0.0000       0.865867        23.5614 
 166   0.0000       0.865867        23.5614 
 167   0.0000       0.878289        23.8995 
 168   0.0000       0.878289        23.8995 
 169   0.0000       0.904432        24.6109 
 170   0.0000       0.904432        24.6109 
 171   0.0000       0.918374        24.9902 
 172   0.0000       0.918374        24.9902 
 173   0.0000       0.919977        25.0338 
 174   0.0000       0.930420        25.3180 
 175   0.0000       0.970771        26.4160 
 176   0.0000       0.982052        26.7230 
 177   0.0000       0.982052        26.7230 
 178   0.0000       0.998007        27.1571 
 179   0.0000       0.998007        27.1572 
 180   0.0000       0.998856        27.1802 
 181   0.0000       1.008804        27.4509 
 182   0.0000       1.008804        27.4509 
 183   0.0000       1.014888        27.6165 
 184   0.0000       1.014889        27.6165 
 185   0.0000       1.017950        27.6998 
 186   0.0000       1.031954        28.0809 
 187   0.0000       1.031955        28.0809 
 188   0.0000       1.048480        28.5306 
 189   0.0000       1.048480        28.5306 
 190   0.0000       1.085642        29.5418 
 191   0.0000       1.085642        29.5418 
 192   0.0000       1.086959        29.5777 
 193   0.0000       1.114962        30.3397 
 194   0.0000       1.114962        30.3397 
 195   0.0000       1.126871        30.6637 
 196   0.0000       1.126871        30.6637 
 197   0.0000       1.161466        31.6051 
 198   0.0000       1.161466        31.6051 
 199   0.0000       1.191461        32.4213 
 200   0.0000       1.247496        33.9461 
 201   0.0000       1.253702        34.1150 
 202   0.0000       1.253704        34.1150 
 203   0.0000       1.290161        35.1071 
 204   0.0000       1.290161        35.1071 
 205   0.0000       1.345666        36.6174 
 206   0.0000       1.350501        36.7490 
 207   0.0000       1.350501        36.7490 
 208   0.0000       1.388241        37.7759 
 209   0.0000       1.388241        37.7759 
 210   0.0000       1.394003        37.9327 
 211   0.0000       1.394004        37.9328 
 212   0.0000       1.414512        38.4908 
 213   0.0000       1.442897        39.2632 
 214   0.0000       1.442898        39.2632 
 215   0.0000       1.513618        41.1876 
 216   0.0000       1.532501        41.7015 
 217   0.0000       1.532503        41.7015 
 218   0.0000       1.549708        42.1697 
 219   0.0000       1.549708        42.1697 
 220   0.0000       1.559652        42.4403 
 221   0.0000       1.559652        42.4403 
 222   0.0000       1.574543        42.8455 
 223   0.0000       1.611977        43.8641 
 224   0.0000       1.655025        45.0355 
 225   0.0000       1.655025        45.0355 
 226   0.0000       1.733158        47.1616 
 227   0.0000       1.827557        49.7303 
 228   0.0000       1.840503        50.0826 
 229   0.0000       1.840503        50.0826 
 230   0.0000       1.911508        52.0148 
 231   0.0000       1.911509        52.0148 
 232   0.0000       1.922985        52.3271 
 233   0.0000       1.922985        52.3271 
 234   0.0000       1.951496        53.1029 
 235   0.0000       2.032117        55.2967 
 236   0.0000       2.032117        55.2967 
 237   0.0000       2.073056        56.4107 
 238   0.0000       2.086169        56.7675 
 239   0.0000       2.086169        56.7676 
 240   0.0000       2.136151        58.1276 
 241   0.0000       2.147447        58.4350 
 242   0.0000       2.147448        58.4350 
 243   0.0000       2.260776        61.5189 
 244   0.0000       2.260777        61.5189 
 245   0.0000       2.297836        62.5273 
 246   0.0000       2.297836        62.5273 
 247   0.0000       2.307003        62.7768 
 248   0.0000       2.307003        62.7768 
 249   0.0000       2.330496        63.4160 
 250   0.0000       2.389274        65.0155 
 251   0.0000       2.389274        65.0155 
 252   0.0000       2.472466        67.2792 
 253   0.0000       2.533237        68.9329 
 254   0.0000       2.533237        68.9329 
 255   0.0000       2.560637        69.6785 
 256   0.0000       2.635046        71.7032 
 257   0.0000       2.650683        72.1288 
 258   0.0000       2.650683        72.1288 
 259   0.0000       2.712391        73.8079 
 260   0.0000       2.754351        74.9497 
 261   0.0000       2.754351        74.9497 
 262   0.0000       2.783871        75.7530 
 263   0.0000       2.783872        75.7530 
 264   0.0000       2.850259        77.5595 
 265   0.0000       2.850259        77.5595 
 266   0.0000       2.858705        77.7893 
 267   0.0000       2.859802        77.8192 
 268   0.0000       2.859802        77.8192 
 269   0.0000       3.020870        82.2021 
 270   0.0000       3.020871        82.2021 
 271   0.0000       3.101220        84.3885 
 272   0.0000       3.101220        84.3885 
 273   0.0000       3.253097        88.5213 
 274   0.0000       3.297822        89.7383 
 275   0.0000       3.339455        90.8712 
 276   0.0000       3.339456        90.8712 
 277   0.0000       3.472640        94.4953 
 278   0.0000       3.500397        95.2506 
 279   0.0000       3.500397        95.2506 
 280   0.0000       3.553398        96.6929 
 281   0.0000       3.553398        96.6929 
 282   0.0000       3.587640        97.6247 
 283   0.0000       3.587640        97.6247 
 284   0.0000       3.657048        99.5133 
 285   0.0000       3.704018       100.7914 
 286   0.0000       3.704018       100.7915 
 287   0.0000       3.775659       102.7409 
 288   0.0000       3.775659       102.7409 
 289   0.0000       3.889511       105.8390 
 290   0.0000       3.889511       105.8390 
 291   0.0000       3.937745       107.1515 
 292   0.0000       3.937745       107.1515 
 293   0.0000       3.958653       107.7204 
 294   0.0000       3.958653       107.7204 
 295   0.0000       4.027201       109.5857 
 296   0.0000       4.027201       109.5857 
 297   0.0000       4.052910       110.2853 
 298   0.0000       4.148913       112.8977 
 299   0.0000       4.148913       112.8977 
 300   0.0000       4.191693       114.0618 
 301   0.0000       4.212702       114.6335 
 302   0.0000       4.212702       114.6335 
 303   0.0000       4.258816       115.8883 
 304   0.0000       4.258816       115.8883 
 305   0.0000       4.274737       116.3215 
 306   0.0000       4.274737       116.3215 
 307   0.0000       4.304218       117.1237 
 308   0.0000       4.304218       117.1237 
 309   0.0000       4.343410       118.1902 
 310   0.0000       4.371500       118.9546 
 311   0.0000       4.538899       123.5097 
 312   0.0000       4.538899       123.5097 
 313   0.0000       4.588113       124.8489 
 314   0.0000       4.591357       124.9372 
 315   0.0000       4.591357       124.9372 
 316   0.0000       4.629087       125.9639 
 317   0.0000       4.629087       125.9639 
 318   0.0000       4.724902       128.5711 
 319   0.0000       4.728733       128.6754 
 320   0.0000       4.728733       128.6754 
 321   0.0000       4.835691       131.5858 
 322   0.0000       4.835691       131.5858 
 323   0.0000       4.963133       135.0537 
 324   0.0000       4.963133       135.0537 
 325   0.0000       5.025876       136.7610 
 326   0.0000       5.057958       137.6340 
 327   0.0000       5.057958       137.6340 
 328   0.0000       5.076778       138.1462 
 329   0.0000       5.076778       138.1462 
 330   0.0000       5.181320       140.9909 
 331   0.0000       5.181320       140.9909 
 332   0.0000       5.208444       141.7290 
 333   0.0000       5.244953       142.7224 
 334   0.0000       5.458050       148.5211 
 335   0.0000       5.458050       148.5211 
 336   0.0000       5.510939       149.9603 
 337   0.0000       5.581590       151.8828 
 338   0.0000       5.581590       151.8828 
 339   0.0000       5.649380       153.7275 
 340   0.0000       5.649380       153.7275 
 341   0.0000       5.651365       153.7815 
 342   0.0000       5.651365       153.7815 
 343   0.0000       5.876373       159.9042 
 344   0.0000       5.912043       160.8749 
 345   0.0000       5.912043       160.8749 
 346   0.0000       5.923228       161.1792 
 347   0.0000       5.923228       161.1792 
 348   0.0000       6.077652       165.3813 
 349   0.0000       6.083301       165.5350 
 350   0.0000       6.083301       165.5350 
 351   0.0000       6.293605       171.2577 
 352   0.0000       6.293605       171.2577 
 353   0.0000       6.393224       173.9685 
 354   0.0000       6.393224       173.9685 
 355   0.0000       6.452259       175.5749 
 356   0.0000       6.452259       175.5749 
 357   0.0000       6.508045       177.0929 
 358   0.0000       6.623252       180.2278 
 359   0.0000       6.915658       188.1846 
 360   0.0000       6.915658       188.1846 
 361   0.0000       6.916044       188.1951 
 362   0.0000       7.090271       192.9361 
 363   0.0000       7.090271       192.9361 
 364   0.0000       7.306162       198.8108 
 365   0.0000       7.416870       201.8233 
 366   0.0000       7.416870       201.8233 
 367   0.0000       7.809682       212.5122 
 368   0.0000       7.843997       213.4460 
 369   0.0000       7.843997       213.4460 
 370   0.0000       8.164500       222.1673 
 371   0.0000       8.370052       227.7607 
 372   0.0000       8.370052       227.7607 
 373   0.0000       8.409807       228.8425 
 374   0.0000       8.790236       239.1945 
 375   0.0000       8.839822       240.5438 
 376   0.0000       8.839822       240.5438 
 377   0.0000       9.046929       246.1795 
 378   0.0000       9.046929       246.1795 
 379   0.0000       9.069876       246.8039 
 380   0.0000       9.069876       246.8039 
 381   0.0000       9.098386       247.5797 
 382   0.0000       9.098386       247.5797 
 383   0.0000       9.390413       255.5261 
 384   0.0000       9.390414       255.5262 
 385   0.0000       9.677924       263.3497 
 386   0.0000       9.848750       267.9981 
 387   0.0000       9.949016       270.7265 
 388   0.0000       9.949016       270.7265 
 389   0.0000      10.095500       274.7125 
 390   0.0000      10.095500       274.7125 
 391   0.0000      10.114167       275.2205 
 392   0.0000      10.114167       275.2205 
 393   0.0000      10.205777       277.7133 
 394   0.0000      10.205777       277.7133 
 395   0.0000      10.253621       279.0152 
 396   0.0000      10.253621       279.0152 
 397   0.0000      10.324005       280.9305 
 398   0.0000      10.324005       280.9305 
 399   0.0000      10.363346       282.0010 
 400   0.0000      10.363346       282.0010 
 401   0.0000      10.522800       286.3400 
 402   0.0000      10.663363       290.1649 
 403   0.0000      10.663363       290.1649 
 404   0.0000      10.702872       291.2399 
 405   0.0000      10.702872       291.2399 
 406   0.0000      10.835244       294.8420 
 407   0.0000      10.835244       294.8420 
 408   0.0000      10.849570       295.2318 
 409   0.0000      10.849570       295.2318 
 410   0.0000      10.961669       298.2822 
 411   0.0000      11.274872       306.8049 
 412   0.0000      11.274873       306.8049 
 413   0.0000      11.328801       308.2723 
 414   0.0000      11.368006       309.3392 
 415   0.0000      11.368007       309.3392 
 416   0.0000      11.540155       314.0236 
 417   0.0000      11.540155       314.0236 
 418   0.0000      11.576412       315.0102 
 419   0.0000      11.576412       315.0102 
 420   0.0000      11.678467       317.7873 
 421   0.0000      11.678468       317.7873 
 422   0.0000      11.681663       317.8742 
 423   0.0000      11.681664       317.8742 
 424   0.0000      11.686736       318.0122 
 425   0.0000      11.686736       318.0122 
 426   0.0000      11.787542       320.7553 
 427   0.0000      11.787542       320.7553 
 428   0.0000      11.843707       322.2837 
 429   0.0000      11.843708       322.2837 
 430   0.0000      11.933346       324.7228 
 431   0.0000      11.963598       325.5460 
 432   0.0000      11.963598       325.5461 
 433   0.0000      12.065815       328.3275 
 434   0.0000      12.065815       328.3275 
 435   0.0000      12.096122       329.1522 
 436   0.0000      12.096122       329.1522 
 437   0.0000      12.299733       334.6927 
 438   0.0000      12.299733       334.6927 
 439   0.0000      12.348234       336.0125 
 440   0.0000      12.688527       345.2724 
 441   0.0000      12.722936       346.2087 
 442   0.0000      12.722936       346.2087 
 443   0.0000      12.805604       348.4582 
 444   0.0000      12.805606       348.4582 
 445   0.0000      12.838158       349.3440 
 446   0.0000      12.838158       349.3440 
 447   0.0000      12.852536       349.7353 
 448   0.0000      12.852536       349.7353 
 449   0.0000      13.060012       355.3810 
 450   0.0000      13.060013       355.3810 
 451   0.0000      13.177816       358.5866 
 452   0.0000      13.177816       358.5866 
 453   0.0000      13.288483       361.5980 
 454   0.0000      13.626029       370.7831 
 455   0.0000      13.640877       371.1871 
 456   0.0000      13.640877       371.1871 
 457   0.0000      13.787663       375.1814 
 458   0.0000      13.787663       375.1814 
 459   0.0000      13.959499       379.8573 
 460   0.0000      14.192141       386.1878 
 461   0.0000      14.192141       386.1878 
 462   0.0000      14.730407       400.8347 
 463   0.0000      15.152183       412.3119 
 464   0.0000      15.152183       412.3119 
 465   0.0000      15.425879       419.7595 
 466   0.0000      16.162162       439.7948 
 467   0.0000      16.162162       439.7948 
 468   0.0000      16.677787       453.8257 
 469   0.0000      16.707874       454.6444 
 470   0.0000      16.707874       454.6444 
 471   0.0000      17.043023       463.7642 
 472   0.0000      17.043023       463.7642 
 473   0.0000      17.200285       468.0436 
 474   0.0000      17.200285       468.0436 
 475   0.0000      17.511469       476.5113 
 476   0.0000      17.699305       481.6226 
 477   0.0000      17.699306       481.6226 
 478   0.0000      17.919812       487.6229 
 479   0.0000      18.041339       490.9298 
 480   0.0000      18.041339       490.9298 
 481   0.0000      18.210561       495.5346 
 482   0.0000      18.210561       495.5346 
 483   0.0000      18.457394       502.2512 
 484   0.0000      19.052847       518.4543 
 485   0.0000      19.052847       518.4543 
 486   0.0000      19.409810       528.1678 
 487   0.0000      19.600405       533.3541 
 488   0.0000      19.600405       533.3541 
 489   0.0000      20.782896       565.5314 
 490   0.0000      21.461527       583.9978 
 491   0.0000      21.461527       583.9978 
 492   0.0000      21.899605       595.9186 
 493   0.0000      23.954845       651.8445 
 494   0.0000      23.954845       651.8445 
 495   0.0000      24.478028       666.0810 
 496   0.0000      26.254735       714.4277 
 497   0.0000      31.891324       867.8070 
 498   0.0000      31.891328       867.8072 
 499   0.0000      32.054481       872.2468 
 500   0.0000      32.054485       872.2469 
 501   0.0000      32.313778       879.3026 
 502   0.0000      32.313778       879.3026 
 503   0.0000      33.429149       909.6534 
 504   0.0000      33.429149       909.6534 
 505   0.0000      33.913053       922.8211 
 506   0.0000      35.639589       969.8025 
 507   0.0000      41.573593      1131.2750 
 508   0.0000      43.550324      1185.0646 
 509   0.0000      65.831076      1791.3547 
 510   0.0000      65.831078      1791.3547 
 511   0.0000      66.002888      1796.0299 
 512   0.0000      66.002888      1796.0299 
 513   0.0000      66.504323      1809.6746 
 514   0.0000      76.117121      2071.2522 
 515   0.0000      77.283828      2102.9999 
 516   0.0000      91.296762      2484.3112 
 517   0.0000      91.296762      2484.3112 
 518   0.0000      92.665859      2521.5662 

                    ********************************
                    * MULLIKEN POPULATION ANALYSIS *
                    ********************************

--------------------------------------------
MULLIKEN ATOMIC CHARGES AND SPIN POPULATIONS
--------------------------------------------
   0 C :   -0.008725   -0.000000
   1 C :    0.006358   -0.000000
   2 Cl:   -0.007271    0.000000
   3 H :    0.009637    0.000000
Sum of atomic charges         :   -0.0000000
Sum of atomic spin populations:   -0.0000000

-----------------------------------------------------
MULLIKEN REDUCED ORBITAL CHARGES AND SPIN POPULATIONS
-----------------------------------------------------
CHARGE
  0 C s       :     2.935324  s :     2.935324
      pz      :     0.983562  p :     2.913564
      px      :     0.965001
      py      :     0.965001
      dz2     :     0.047481  d :     0.118998
      dxz     :     0.035758
      dyz     :     0.035759
      dx2y2   :     0.000000
      dxy     :     0.000000
      f0      :     0.002782  f :     0.036469
      f+1     :     0.016843
      f-1     :     0.016843
      f+2     :    -0.000000
      f-2     :    -0.000000
      f+3     :     0.000000
      f-3     :     0.000000
      g0      :    -0.002016  g :     0.004989
      g+1     :     0.003503
      g-1     :     0.003503
      g+2     :    -0.000000
      g-2     :    -0.000000
      g+3     :     0.000000
      g-3     :     0.000000
      g+4     :     0.000000
      g-4     :     0.000000
      h0      :    -0.000930  h :    -0.000619
      h+1     :     0.000155
      h-1     :     0.000155
      h+2     :     0.000000
      h-2     :     0.000000
      h+3     :     0.000000
      h-3     :     0.000000
      h+4     :     0.000000
      h-4     :    -0.000000
      h+5     :     0.000000
      h-5     :     0.000000
  1 C s       :     3.162534  s :     3.162534
      pz      :     0.759775  p :     2.595508
      px      :     0.917867
      py      :     0.917866
      dz2     :     0.022462  d :     0.205171
      dxz     :     0.091354
      dyz     :     0.091355
      dx2y2   :    -0.000000
      dxy     :    -0.000000
      f0      :     0.003714  f :     0.026922
      f+1     :     0.011604
      f-1     :     0.011604
      f+2     :     0.000000
      f-2     :     0.000000
      f+3     :     0.000000
      f-3     :     0.000000
      g0      :     0.001426  g :     0.000767
      g+1     :    -0.000329
      g-1     :    -0.000329
      g+2     :     0.000000
      g-2     :     0.000000
      g+3     :     0.000000
      g-3     :     0.000000
      g+4     :     0.000000
      g-4     :     0.000000
      h0      :     0.001063  h :     0.002739
      h+1     :     0.000838
      h-1     :     0.000838
      h+2     :     0.000000
      h-2     :     0.000000
      h+3     :     0.000000
      h-3     :     0.000000
      h+4     :     0.000000
      h-4     :    -0.000000
      h+5     :     0.000000
      h-5     :     0.000000
  2 Cls       :     5.965814  s :     5.965814
      pz      :     3.145705  p :    10.862011
      px      :     3.858153
      py      :     3.858153
      dz2     :     0.042949  d :     0.162102
      dxz     :     0.059577
      dyz     :     0.059577
      dx2y2   :     0.000000
      dxy     :    -0.000000
      f0      :     0.005194  f :     0.019189
      f+1     :     0.006997
      f-1     :     0.006997
      f+2     :    -0.000000
      f-2     :     0.000000
      f+3     :     0.000000
      f-3     :     0.000000
      g0      :     0.001248  g :    -0.000889
      g+1     :    -0.001068
      g-1     :    -0.001068
      g+2     :    -0.000000
      g-2     :    -0.000000
      g+3     :     0.000000
      g-3     :     0.000000
      g+4     :     0.000000
      g-4     :     0.000000
      h0      :     0.000241  h :    -0.000957
      h+1     :    -0.000599
      h-1     :    -0.000599
      h+2     :     0.000000
      h-2     :     0.000000
      h+3     :     0.000000
      h-3     :     0.000000
      h+4     :     0.000000
      h-4     :    -0.000000
      h+5     :     0.000000
      h-5     :     0.000000
  3 H s       :     0.888833  s :     0.888833
      pz      :     0.027201  p :     0.067831
      px      :     0.020315
      py      :     0.020315
      dz2     :     0.003872  d :     0.019009
      dxz     :     0.007568
      dyz     :     0.007568
      dx2y2   :    -0.000000
      dxy     :    -0.000000
      f0      :     0.001698  f :     0.012643
      f+1     :     0.005472
      f-1     :     0.005472
      f+2     :     0.000000
      f-2     :     0.000000
      f+3     :     0.000000
      f-3     :     0.000000
      g0      :     0.000068  g :     0.002047
      g+1     :     0.000989
      g-1     :     0.000989
      g+2     :    -0.000000
      g-2     :    -0.000000
      g+3     :    -0.000000
      g-3     :    -0.000000
      g+4     :     0.000000
      g-4     :     0.000000

SPIN
  0 C s       :    -0.000000  s :    -0.000000
      pz      :    -0.000000  p :    -0.000000
      px      :    -0.000000
      py      :     0.000000
      dz2     :    -0.000000  d :    -0.000000
      dxz     :    -0.000000
      dyz     :     0.000000
      dx2y2   :     0.000000
      dxy     :    -0.000000
      f0      :    -0.000000  f :    -0.000000
      f+1     :     0.000000
      f-1     :    -0.000000
      f+2     :    -0.000000
      f-2     :    -0.000000
      f+3     :    -0.000000
      f-3     :     0.000000
      g0      :    -0.000000  g :     0.000000
      g+1     :     0.000000
      g-1     :    -0.000000
      g+2     :    -0.000000
      g-2     :    -0.000000
      g+3     :    -0.000000
      g-3     :     0.000000
      g+4     :     0.000000
      g-4     :    -0.000000
      h0      :    -0.000000  h :     0.000000
      h+1     :     0.000000
      h-1     :    -0.000000
      h+2     :    -0.000000
      h-2     :     0.000000
      h+3     :    -0.000000
      h-3     :     0.000000
      h+4     :    -0.000000
      h-4     :     0.000000
      h+5     :     0.000000
      h-5     :     0.000000
  1 C s       :    -0.000000  s :    -0.000000
      pz      :    -0.000000  p :    -0.000000
      px      :     0.000000
      py      :    -0.000000
      dz2     :    -0.000000  d :    -0.000000
      dxz     :    -0.000000
      dyz     :     0.000000
      dx2y2   :     0.000000
      dxy     :     0.000000
      f0      :    -0.000000  f :    -0.000000
      f+1     :    -0.000000
      f-1     :     0.000000
      f+2     :     0.000000
      f-2     :     0.000000
      f+3     :     0.000000
      f-3     :    -0.000000
      g0      :    -0.000000  g :    -0.000000
      g+1     :     0.000000
      g-1     :    -0.000000
      g+2     :     0.000000
      g-2     :     0.000000
      g+3     :     0.000000
      g-3     :    -0.000000
      g+4     :     0.000000
      g-4     :     0.000000
      h0      :    -0.000000  h :    -0.000000
      h+1     :     0.000000
      h-1     :    -0.000000
      h+2     :    -0.000000
      h-2     :     0.000000
      h+3     :     0.000000
      h-3     :    -0.000000
      h+4     :     0.000000
      h-4     :     0.000000
      h+5     :     0.000000
      h-5     :    -0.000000
  2 Cls       :     0.000000  s :     0.000000
      pz      :     0.000000  p :     0.000000
      px      :     0.000000
      py      :    -0.000000
      dz2     :     0.000000  d :     0.000000
      dxz     :     0.000000
      dyz     :    -0.000000
      dx2y2   :    -0.000000
      dxy     :     0.000000
      f0      :     0.000000  f :     0.000000
      f+1     :     0.000000
      f-1     :    -0.000000
      f+2     :     0.000000
      f-2     :    -0.000000
      f+3     :     0.000000
      f-3     :    -0.000000
      g0      :     0.000000  g :     0.000000
      g+1     :     0.000000
      g-1     :    -0.000000
      g+2     :    -0.000000
      g-2     :     0.000000
      g+3     :    -0.000000
      g-3     :     0.000000
      g+4     :    -0.000000
      g-4     :    -0.000000
      h0      :     0.000000  h :     0.000000
      h+1     :     0.000000
      h-1     :     0.000000
      h+2     :    -0.000000
      h-2     :     0.000000
      h+3     :    -0.000000
      h-3     :     0.000000
      h+4     :    -0.000000
      h-4     :     0.000000
      h+5     :    -0.000000
      h-5     :    -0.000000
  3 H s       :     0.000000  s :     0.000000
      pz      :     0.000000  p :     0.000000
      px      :    -0.000000
      py      :    -0.000000
      dz2     :     0.000000  d :    -0.000000
      dxz     :    -0.000000
      dyz     :    -0.000000
      dx2y2   :     0.000000
      dxy     :     0.000000
      f0      :     0.000000  f :     0.000000
      f+1     :    -0.000000
      f-1     :    -0.000000
      f+2     :     0.000000
      f-2     :     0.000000
      f+3     :    -0.000000
      f-3     :     0.000000
      g0      :     0.000000  g :     0.000000
      g+1     :     0.000000
      g-1     :    -0.000000
      g+2     :    -0.000000
      g-2     :    -0.000000
      g+3     :    -0.000000
      g-3     :     0.000000
      g+4     :     0.000000
      g-4     :    -0.000000


                     *******************************
                     * LOEWDIN POPULATION ANALYSIS *
                     *******************************

-------------------------------------------
LOEWDIN ATOMIC CHARGES AND SPIN POPULATIONS
-------------------------------------------
   0 C :    0.082964   -0.000000
   1 C :   -0.653624   -0.000000
   2 Cl:    1.113244    0.000000
   3 H :   -0.542584    0.000000

----------------------------------------------------
LOEWDIN REDUCED ORBITAL CHARGES AND SPIN POPULATIONS
----------------------------------------------------
CHARGE
  0 C s       :     2.626951  s :     2.626951
      pz      :     1.087694  p :     2.465556
      px      :     0.688931
      py      :     0.688931
      dz2     :     0.150760  d :     0.319094
      dxz     :     0.084167
      dyz     :     0.084167
      dx2y2   :     0.000000
      dxy     :     0.000000
      f0      :     0.080420  f :     0.197458
      f+1     :     0.058519
      f-1     :     0.058519
      f+2     :     0.000000
      f-2     :     0.000000
      f+3     :     0.000000
      f-3     :     0.000000
      g0      :     0.061589  g :     0.175546
      g+1     :     0.056979
      g-1     :     0.056979
      g+2     :     0.000000
      g-2     :     0.000000
      g+3     :     0.000000
      g-3     :     0.000000
      g+4     :     0.000000
      g-4     :     0.000000
      h0      :     0.039801  h :     0.132431
      h+1     :     0.046315
      h-1     :     0.046315
      h+2     :     0.000000
      h-2     :     0.000000
      h+3     :     0.000000
      h-3     :     0.000000
      h+4     :     0.000000
      h-4     :     0.000000
      h+5     :     0.000000
      h-5     :     0.000000
  1 C s       :     2.651690  s :     2.651690
      pz      :     1.133134  p :     2.662886
      px      :     0.764876
      py      :     0.764876
      dz2     :     0.316749  d :     0.897392
      dxz     :     0.290322
      dyz     :     0.290322
      dx2y2   :     0.000000
      dxy     :     0.000000
      f0      :     0.111116  f :     0.260317
      f+1     :     0.074600
      f-1     :     0.074600
      f+2     :     0.000000
      f-2     :     0.000000
      f+3     :     0.000000
      f-3     :     0.000000
      g0      :     0.043459  g :     0.124788
      g+1     :     0.040664
      g-1     :     0.040664
      g+2     :     0.000000
      g-2     :     0.000000
      g+3     :     0.000000
      g-3     :     0.000000
      g+4     :     0.000000
      g-4     :     0.000000
      h0      :     0.023323  h :     0.056551
      h+1     :     0.016614
      h-1     :     0.016614
      h+2     :     0.000000
      h-2     :     0.000000
      h+3     :     0.000000
      h-3     :     0.000000
      h+4     :     0.000000
      h-4     :     0.000000
      h+5     :     0.000000
      h-5     :     0.000000
  2 Cls       :     5.177099  s :     5.177099
      pz      :     3.168969  p :    10.040427
      px      :     3.435729
      py      :     3.435729
      dz2     :     0.127865  d :     0.316971
      dxz     :     0.094553
      dyz     :     0.094553
      dx2y2   :     0.000000
      dxy     :     0.000000
      f0      :     0.056712  f :     0.168288
      f+1     :     0.055788
      f-1     :     0.055788
      f+2     :     0.000000
      f-2     :     0.000000
      f+3     :     0.000000
      f-3     :     0.000000
      g0      :     0.034079  g :     0.112751
      g+1     :     0.039336
      g-1     :     0.039336
      g+2     :     0.000000
      g-2     :     0.000000
      g+3     :     0.000000
      g-3     :     0.000000
      g+4     :     0.000000
      g-4     :     0.000000
      h0      :     0.019543  h :     0.071220
      h+1     :     0.025838
      h-1     :     0.025838
      h+2     :     0.000000
      h-2     :     0.000000
      h+3     :     0.000000
      h-3     :     0.000000
      h+4     :     0.000000
      h-4     :     0.000000
      h+5     :     0.000000
      h-5     :     0.000000
  3 H s       :     0.757077  s :     0.757077
      pz      :     0.171201  p :     0.343102
      px      :     0.085951
      py      :     0.085951
      dz2     :     0.086879  d :     0.247066
      dxz     :     0.080093
      dyz     :     0.080093
      dx2y2   :     0.000000
      dxy     :     0.000000
      f0      :     0.046046  f :     0.119305
      f+1     :     0.036630
      f-1     :     0.036630
      f+2     :     0.000000
      f-2     :     0.000000
      f+3     :     0.000000
      f-3     :     0.000000
      g0      :     0.027844  g :     0.076035
      g+1     :     0.024095
      g-1     :     0.024095
      g+2     :     0.000000
      g-2     :     0.000000
      g+3     :     0.000000
      g-3     :     0.000000
      g+4     :     0.000000
      g-4     :     0.000000

SPIN
  0 C s       :     0.000000  s :     0.000000
      pz      :    -0.000000  p :    -0.000000
      px      :    -0.000000
      py      :     0.000000
      dz2     :    -0.000000  d :    -0.000000
      dxz     :    -0.000000
      dyz     :     0.000000
      dx2y2   :     0.000000
      dxy     :    -0.000000
      f0      :    -0.000000  f :    -0.000000
      f+1     :     0.000000
      f-1     :    -0.000000
      f+2     :     0.000000
      f-2     :    -0.000000
      f+3     :    -0.000000
      f-3     :     0.000000
      g0      :     0.000000  g :     0.000000
      g+1     :     0.000000
      g-1     :    -0.000000
      g+2     :    -0.000000
      g-2     :     0.000000
      g+3     :    -0.000000
      g-3     :     0.000000
      g+4     :     0.000000
      g-4     :    -0.000000
      h0      :     0.000000  h :     0.000000
      h+1     :    -0.000000
      h-1     :     0.000000
      h+2     :    -0.000000
      h-2     :     0.000000
      h+3     :    -0.000000
      h-3     :     0.000000
      h+4     :    -0.000000
      h-4     :     0.000000
      h+5     :     0.000000
      h-5     :     0.000000
  1 C s       :    -0.000000  s :    -0.000000
      pz      :     0.000000  p :     0.000000
      px      :     0.000000
      py      :    -0.000000
      dz2     :    -0.000000  d :    -0.000000
      dxz     :    -0.000000
      dyz     :     0.000000
      dx2y2   :     0.000000
      dxy     :     0.000000
      f0      :     0.000000  f :     0.000000
      f+1     :     0.000000
      f-1     :    -0.000000
      f+2     :     0.000000
      f-2     :     0.000000
      f+3     :     0.000000
      f-3     :    -0.000000
      g0      :    -0.000000  g :    -0.000000
      g+1     :    -0.000000
      g-1     :    -0.000000
      g+2     :     0.000000
      g-2     :     0.000000
      g+3     :    -0.000000
      g-3     :     0.000000
      g+4     :     0.000000
      g-4     :     0.000000
      h0      :     0.000000  h :     0.000000
      h+1     :    -0.000000
      h-1     :    -0.000000
      h+2     :    -0.000000
      h-2     :     0.000000
      h+3     :     0.000000
      h-3     :    -0.000000
      h+4     :     0.000000
      h-4     :    -0.000000
      h+5     :     0.000000
      h-5     :    -0.000000
  2 Cls       :     0.000000  s :     0.000000
      pz      :     0.000000  p :     0.000000
      px      :    -0.000000
      py      :     0.000000
      dz2     :     0.000000  d :     0.000000
      dxz     :     0.000000
      dyz     :     0.000000
      dx2y2   :    -0.000000
      dxy     :     0.000000
      f0      :    -0.000000  f :    -0.000000
      f+1     :    -0.000000
      f-1     :     0.000000
      f+2     :    -0.000000
      f-2     :    -0.000000
      f+3     :     0.000000
      f-3     :    -0.000000
      g0      :     0.000000  g :     0.000000
      g+1     :     0.000000
      g-1     :    -0.000000
      g+2     :     0.000000
      g-2     :     0.000000
      g+3     :    -0.000000
      g-3     :     0.000000
      g+4     :    -0.000000
      g-4     :    -0.000000
      h0      :    -0.000000  h :    -0.000000
      h+1     :     0.000000
      h-1     :    -0.000000
      h+2     :    -0.000000
      h-2     :    -0.000000
      h+3     :    -0.000000
      h-3     :     0.000000
      h+4     :     0.000000
      h-4     :     0.000000
      h+5     :    -0.000000
      h-5     :    -0.000000
  3 H s       :     0.000000  s :     0.000000
      pz      :     0.000000  p :    -0.000000
      px      :    -0.000000
      py      :    -0.000000
      dz2     :    -0.000000  d :    -0.000000
      dxz     :    -0.000000
      dyz     :    -0.000000
      dx2y2   :    -0.000000
      dxy     :     0.000000
      f0      :     0.000000  f :    -0.000000
      f+1     :    -0.000000
      f-1     :    -0.000000
      f+2     :     0.000000
      f-2     :     0.000000
      f+3     :    -0.000000
      f-3     :     0.000000
      g0      :     0.000000  g :     0.000000
      g+1     :     0.000000
      g-1     :     0.000000
      g+2     :     0.000000
      g-2     :     0.000000
      g+3     :    -0.000000
      g-3     :     0.000000
      g+4     :     0.000000
      g-4     :    -0.000000


                      *****************************
                      * MAYER POPULATION ANALYSIS *
                      *****************************

  NA   - Mulliken gross atomic population
  ZA   - Total nuclear charge
  QA   - Mulliken gross atomic charge
  VA   - Mayer's total valence
  BVA  - Mayer's bonded valence
  FA   - Mayer's free valence

  ATOM       NA         ZA         QA         VA         BVA        FA
  0 C      6.0087     6.0000    -0.0087     4.3049     4.3049    -0.0000
  1 C      5.9936     6.0000     0.0064     4.1741     4.1741     0.0000
  2 Cl    17.0073    17.0000    -0.0073     1.6631     1.6631    -0.0000
  3 H      0.9904     1.0000     0.0096     1.1638     1.1638    -0.0000

  Mayer bond orders larger than 0.1
B(  0-C ,  1-C ) :   2.8351 B(  0-C ,  2-Cl) :   0.4768 B(  0-C ,  3-H ) :   0.9930 
B(  1-C ,  2-Cl) :   1.1773 B(  1-C ,  3-H ) :   0.1618 

-------
TIMINGS
-------

Total SCF time: 0 days 0 hours 53 min 0 sec 

Total time                  ....    3180.461 sec
Sum of individual times     ....    3178.926 sec  (100.0%)

Fock matrix formation       ....    3168.736 sec  ( 99.6%)
  XC integration            ....      70.789 sec  (  2.2% of F)
    Basis function eval.    ....       4.657 sec  (  6.6% of XC)
    Density eval.           ....      19.912 sec  ( 28.1% of XC)
    XC-Functional eval.     ....       0.383 sec  (  0.5% of XC)
    XC-Potential eval.      ....      44.874 sec  ( 63.4% of XC)
Diagonalization             ....       3.365 sec  (  0.1%)
Density matrix formation    ....       0.053 sec  (  0.0%)
Population analysis         ....       0.220 sec  (  0.0%)
Initial guess               ....       2.532 sec  (  0.1%)
Orbital Transformation      ....       0.000 sec  (  0.0%)
Orbital Orthonormalization  ....       0.000 sec  (  0.0%)
DIIS solution               ....       1.710 sec  (  0.1%)
Grid generation             ....       2.308 sec  (  0.1%)

-------------------------   --------------------
FINAL SINGLE POINT ENERGY      -536.702676968890
-------------------------   --------------------


                            ***************************************
                            *     ORCA property calculations      *
                            ***************************************

                                    ---------------------
                                    Active property flags
                                    ---------------------
   (+) Dipole Moment
   (+) Polarizability


------------------------------------------------------------------------------
                       ORCA ELECTRIC PROPERTIES CALCULATION
------------------------------------------------------------------------------

Dipole Moment Calculation                       ... on
Quadrupole Moment Calculation                   ... off
Polarizability Calculation                      ... Analytic (CP-SCF)
GBWName                                         ... hcccl_pbe.gbw
Electron density file                           ... hcccl_pbe.scfp.tmp
The origin for moment calculation is the CENTER OF MASS  = ( 0.000000,  0.000000  0.134626)

-------------
DIPOLE MOMENT
-------------
                                X             Y             Z
Electronic contribution:      0.00000      -0.00000       3.93560
Nuclear contribution   :      0.00000       0.00000      -4.03972
                        -----------------------------------------
Total Dipole Moment    :      0.00000      -0.00000      -0.10412
                        -----------------------------------------
Magnitude (a.u.)       :      0.10412
Magnitude (Debye)      :      0.26465



--------------------
Rotational spectrum 
--------------------
 
Rotational constants in cm-1:     0.000000     0.188748     0.188748 
Rotational constants in MHz :     0.000000  5658.524712  5658.524712 

 Dipole components along the rotational axes: 
x,y,z [a.u.] :    -0.104119    -0.000000     0.000000 
x,y,z [Debye]:    -0.264650    -0.000000     0.000000 

 
Transforming and storing MO dipole integrals   ... done

                ... starting polarizability calculation

Opening the Dipole integral file               ... (hcccl_pbe.dmo.tmp) done
Reading Dipole-MO integrals                    ... done
Solving CP-SCF equations                       ... 

           ************************************************************
           *        Program running with 4 parallel MPI-processes     *
           *              working on a common directory               *
           ************************************************************

------------------------------------------------------------------------------
                           ORCA CP-SCF CALCULATION
------------------------------------------------------------------------------

Input orbitals are from        ... hcccl_pbe.gbw
Input Perturbation             ... hcccl_pbe.cpv.tmp
Wavefunction output            ... hcccl_pbe.cpu.tmp
Perturbation mode              ... Real perturbation (singlet)
Solver                         ... POPLE
Max. number of iterations      ... 200
Convergence tolerance          ... 1.000e-06
Integral handling              ... Direct
Number of perturbations        ... 3
Number of operators            ... 2
Orbital ranges used for CP-SCF:
 Operator 0:  Orbitals   0... 14  to  15...518
 Operator 1:  Orbitals   0... 14  to  15...518
DFT calculation                         ... on
Exchange functional (SCF)               ... PBE
Exchange functional (CP-SCF)            ... PBE
   PBE kappa parameter  XKappa (SCF)    ...  0.804000
   PBE kappa parameter  XKappa (CP-SCF) ...  0.804000
   PBE mue parameter   XMuePBE (SCF)    ...  0.219520
   PBE mue parameter   XMuePBE (CP-SCF) ...  0.219520
Correlation functional (SCF)            ... PBE
Correlation functional (CP-SCF)         ... PBE
   PBE beta parameter CBetaPBE (SCF)    ...  0.066725
   PBE beta parameter CBetaPBE (CP-SCF) ...  0.066725
 LDA part of GGA corr.  LDAOpt (SCF)    ... PW91-LDA
 LDA part of GGA corr.  LDAOpt (CP-SCF) ... PW91-LDA
Variables per vector in CP-SCF ... 15120
Number of vectors sought       ... 3
Recalculating density on grid  ... done
Calculating the xc-kernel      ... done
     CP-SCF ITERATION   0: 
     CP-SCF ITERATION   1:      3.561721607659
     CP-SCF ITERATION   2:      0.173889846824
     CP-SCF ITERATION   3:      0.008350178144
     CP-SCF ITERATION   4:      0.000109963862
     CP-SCF ITERATION   5:      0.000002781272
     CP-SCF ITERATION   6:      0.000000146409
done
Reading CP-SCF coefficients                    ... done
Doing the polarizability tensor   ... done
Cleaning up                                    ... done

-------------------------
THE POLARIZABILITY TENSOR
-------------------------

The raw cartesian tensor (atomic units):
   28.40336      0.00000      0.00000  
    0.00000     28.40336     -0.00000  
    0.00000     -0.00000     59.58238  
diagonalized tensor: 
   28.40336     28.40336     59.58238  

    0.99310     -0.11729      0.00000  
   -0.11729     -0.99310     -0.00000  
   -0.00000     -0.00000      1.00000  

Isotropic polarizability :  38.79637


Timings for individual modules:

Sum of individual times         ...     5468.720 sec (=  91.145 min)
GTO integral calculation        ...       11.075 sec (=   0.185 min)   0.2 %
SCF iterations                  ...     3186.947 sec (=  53.116 min)  58.3 %
Solution of CP-SCF eqns.        ...     2270.698 sec (=  37.845 min)  41.5 %
                             ****ORCA TERMINATED NORMALLY****
TOTAL RUN TIME: 0 days 1 hours 31 minutes 9 seconds 801 msec
