
                                 *****************
                                 * O   R   C   A *
                                 *****************

           --- An Ab Initio, DFT and Semiempirical electronic structure package ---

                  #######################################################
                  #                        -***-                        #
                  #          Department of theory and spectroscopy      #
                  #               Directorship: Frank Neese             #
                  #        Max Planck Institute fuer Kohlenforschung    #
                  #                Kaiser Wilhelm Platz 1               #
                  #                 D-45470 Muelheim/Ruhr               #
                  #                      Germany                        #
                  #                                                     #
                  #                  All rights reserved                #
                  #                        -***-                        #
                  #######################################################


                         Program Version 4.1.2  - RELEASE  -


 With contributions from (in alphabetic order):
   Daniel Aravena         : Magnetic Properties
   Michael Atanasov       : Ab Initio Ligand Field Theory
   Alexander A. Auer      : GIAO ZORA
   Ute Becker             : Parallelization
   Giovanni Bistoni       : ED, Open-shell LED
   Martin Brehm           : Molecular dynamics
   Dmytro Bykov           : SCF Hessian
   Vijay G. Chilkuri      : MRCI spin determinant printing
   Dipayan Datta          : RHF DLPNO-CCSD density
   Achintya Kumar Dutta   : EOM-CC, STEOM-CC
   Dmitry Ganyushin       : Spin-Orbit,Spin-Spin,Magnetic field MRCI
   Miquel Garcia          : C-PCM Hessian
   Yang Guo               : DLPNO-NEVPT2, CIM, IAO-localization
   Andreas Hansen         : Spin unrestricted coupled pair/coupled cluster methods
   Benjamin Helmich-Paris : CASSCF linear response (MC-RPA)
   Lee Huntington         : MR-EOM, pCC
   Robert Izsak           : Overlap fitted RIJCOSX, COSX-SCS-MP3, EOM
   Christian Kollmar      : KDIIS, OOCD, Brueckner-CCSD(T), CCSD density
   Simone Kossmann        : Meta GGA functionals, TD-DFT gradient, OOMP2, MP2 Hessian
   Martin Krupicka        : AUTO-CI
   Lucas Lang             : DCDCAS
   Dagmar Lenk            : GEPOL surface, SMD
   Dimitrios Liakos       : Extrapolation schemes; parallel MDCI
   Dimitrios Manganas     : ROCIS; embedding schemes
   Dimitrios Pantazis     : SARC Basis sets
   Taras Petrenko         : DFT Hessian,TD-DFT gradient, ASA, ECA, R-Raman, ABS, FL, XAS/XES, NRVS
   Peter Pinski           : DLPNO-MP2, DLPNO-MP2 Gradient
   Christoph Reimann      : Effective Core Potentials
   Marius Retegan         : Local ZFS, SOC
   Christoph Riplinger    : Optimizer, TS searches, QM/MM, DLPNO-CCSD(T), (RO)-DLPNO pert. Triples
   Tobias Risthaus        : Range-separated hybrids, TD-DFT gradient, RPA, STAB
   Michael Roemelt        : Restricted open shell CIS
   Masaaki Saitow         : Open-shell DLPNO
   Barbara Sandhoefer     : DKH picture change effects
   Avijit Sen             : IP-ROCIS
   Kantharuban Sivalingam : CASSCF convergence, NEVPT2, FIC-MRCI
   Bernardo de Souza      : ESD, SOC TD-DFT
   Georgi Stoychev        : AutoAux, RI-MP2 NMR
   Willem Van den Heuvel  : Paramagnetic NMR
   Boris Wezisla          : Elementary symmetry handling
   Frank Wennmohs         : Technical directorship


 We gratefully acknowledge several colleagues who have allowed us to
 interface, adapt or use parts of their codes:
   Stefan Grimme, W. Hujo, H. Kruse,             : VdW corrections, initial TS optimization,
                  C. Bannwarth                     DFT functionals, gCP, sTDA/sTD-DF
   Ed Valeev                                     : LibInt (2-el integral package), F12 methods
   Garnet Chan, S. Sharma, J. Yang, R. Olivares  : DMRG
   Ulf Ekstrom                                   : XCFun DFT Library
   Mihaly Kallay                                 : mrcc  (arbitrary order and MRCC methods)
   Andreas Klamt, Michael Diedenhofen            : otool_cosmo (COSMO solvation model)
   Jiri Pittner, Ondrej Demel                    : Mk-CCSD
   Frank Weinhold                                : gennbo (NPA and NBO analysis)
   Christopher J. Cramer and Donald G. Truhlar   : smd solvation model
   Lars Goerigk                                  : TD-DFT with DH, B97 family of functionals
   V. Asgeirsson, H. Jonsson                     : NEB implementation
   FAccTs GmbH                                   : IRC, NEB, NEB-TS, Multilevel


 Your calculation uses the libint2 library for the computation of 2-el integrals
 For citations please refer to: http://libint.valeyev.net

 This ORCA versions uses:
   CBLAS   interface :  Fast vector & matrix operations
   LAPACKE interface :  Fast linear algebra routines
   SCALAPACK package :  Parallel linear algebra routines


----- Orbital basis set information -----
Your calculation utilizes the basis: aug-pc-4
   H, C-F              : F. Jensen, J. Chem. Phys. 115, 9113 (2001).
                         F. Jensen, J. Chem. Phys. 116, 7372 (2002).
                         F. Jensen, J. Chem. Phys. 117, 9234 (2002).
   Si-Cl               : F. Jensen, T. Helgaker, J. Chem. Phys. 121, 3463 (2004).
   He-B, Ne-Mg, Al, Ar : F. Jensen, J. Phys. Chem. A 111, 11198 (2007).
   K, Ca, Ga-Kr        : F. Jensen, J. Chem. Phys. 136, 094110 (2012).
   Sc-Zn               : F. Jensen, J. Chem. Phys. 138, 014107 (2013).

================================================================================
                                        WARNINGS
                       Please study these warnings very carefully!
================================================================================


INFO   : the flag for use of LIBINT has been found!

================================================================================
                                       INPUT FILE
================================================================================
NAME = hccf_pbe.inp
|  1> !uks pbe nori aug-pc-4 grid7 nofinalgrid verytightscf
|  2> 
|  3> %maxcore 1500
|  4> 
|  5> %pal nprocs 4 end
|  6> 
|  7> %scf
|  8> 	maxiter 200
|  9> end
| 10> %elprop
| 11> 	dipole true
| 12> 	 polar 1
| 13> 	 maxiter 200
| 14> end
| 15> 
| 16> * xyz 0 1
| 17> C 0.0000000000 0.0000000000 -0.0942000000
| 18> C 0.0000000000 0.0000000000 -1.2922000000
| 19> F 0.0000000000 0.0000000000 1.1848000000
| 20> H 0.0000000000 0.0000000000 -2.3452000000
| 21> *
| 22> 
| 23>                          ****END OF INPUT****
================================================================================

                       ****************************
                       * Single Point Calculation *
                       ****************************

---------------------------------
CARTESIAN COORDINATES (ANGSTROEM)
---------------------------------
  C      0.000000    0.000000   -0.094200
  C      0.000000    0.000000   -1.292200
  F      0.000000    0.000000    1.184800
  H      0.000000    0.000000   -2.345200

----------------------------
CARTESIAN COORDINATES (A.U.)
----------------------------
  NO LB      ZA    FRAG     MASS         X           Y           Z
   0 C     6.0000    0    12.011    0.000000    0.000000   -0.178012
   1 C     6.0000    0    12.011    0.000000    0.000000   -2.441904
   2 F     9.0000    0    18.998    0.000000    0.000000    2.238948
   3 H     1.0000    0     1.008    0.000000    0.000000   -4.431786

--------------------------------
INTERNAL COORDINATES (ANGSTROEM)
--------------------------------
 C      0   0   0     0.000000000000     0.00000000     0.00000000
 C      1   0   0     1.198000000000     0.00000000     0.00000000
 F      1   2   0     1.279000000000   180.00000000     0.00000000
 H      2   1   3     1.053000000000   180.00000000     0.00000000

---------------------------
INTERNAL COORDINATES (A.U.)
---------------------------
 C      0   0   0     0.000000000000     0.00000000     0.00000000
 C      1   0   0     2.263891908438     0.00000000     0.00000000
 F      1   2   0     2.416959725285   180.00000000     0.00000000
 H      2   1   3     1.989881619019   180.00000000     0.00000000

---------------------
BASIS SET INFORMATION
---------------------
There are 3 groups of distinct atoms

 Group   1 Type C   : 28s12p7d4f3g2h contracted to 9s8p7d4f3g2h pattern {11101111111/51111111/1111111/1111/111/11}
 Group   2 Type F   : 27s12p7d4f3g2h contracted to 9s8p7d4f3g2h pattern {1191111111/51111111/1111111/1111/111/11}
 Group   3 Type H   : 12s7p4d3f2g contracted to 8s7p4d3f2g pattern {51111111/1111111/1111/111/11}

Atom   0C    basis set group =>   1
Atom   1C    basis set group =>   1
Atom   2F    basis set group =>   2
Atom   3H    basis set group =>   3


           ************************************************************
           *        Program running with 4 parallel MPI-processes     *
           *              working on a common directory               *
           ************************************************************
------------------------------------------------------------------------------
                           ORCA GTO INTEGRAL CALCULATION
------------------------------------------------------------------------------

                         BASIS SET STATISTICS AND STARTUP INFO

 # of primitive gaussian shells          ...  195
 # of primitive gaussian functions       ...  619
 # of contracted shells                  ...  123
 # of contracted basis functions         ...  523
 Highest angular momentum                ...    5
 Maximum contraction depth               ...   11
 Integral package used                   ... LIBINT
 Integral threshhold            Thresh   ...  1.000e-12
 Primitive cut-off              TCut     ...  1.000e-14


------------------------------ INTEGRAL EVALUATION ----------------------------


 * One electron integrals 
 Pre-screening matrix                    ... done
 Shell pair data                         ... done (   0.003 sec)



           ************************************************************
           *        Program running with 4 parallel MPI-processes     *
           *              working on a common directory               *
           ************************************************************
-------------------------------------------------------------------------------
                                 ORCA SCF
-------------------------------------------------------------------------------

------------
SCF SETTINGS
------------
Hamiltonian:
 Density Functional     Method          .... DFT(GTOs)
 Exchange Functional    Exchange        .... PBE
   PBE kappa parameter   XKappa         ....  0.804000
   PBE mue parameter    XMuePBE         ....  0.219520
 Correlation Functional Correlation     .... PBE
   PBE beta parameter  CBetaPBE         ....  0.066725
 LDA part of GGA corr.  LDAOpt          .... PW91-LDA
 Gradients option       PostSCFGGA      .... off
   Density functional embedding theory  .... OFF
   NL short-range parameter             ....  6.400000


General Settings:
 Integral files         IntName         .... hccf_pbe
 Hartree-Fock type      HFTyp           .... UHF
 Total Charge           Charge          ....    0
 Multiplicity           Mult            ....    1
 Number of Electrons    NEL             ....   22
 Basis Dimension        Dim             ....  523
 Nuclear Repulsion      ENuc            ....     55.5552438622 Eh

Convergence Acceleration:
 DIIS                   CNVDIIS         .... on
   Start iteration      DIISMaxIt       ....    12
   Startup error        DIISStart       ....  0.200000
   # of expansion vecs  DIISMaxEq       ....     5
   Bias factor          DIISBfac        ....   1.050
   Max. coefficient     DIISMaxC        ....  10.000
 Newton-Raphson         CNVNR           .... off
 SOSCF                  CNVSOSCF        .... off
 Level Shifting         CNVShift        .... on
   Level shift para.    LevelShift      ....    0.2500
   Turn off err/grad.   ShiftErr        ....    0.0010
 Zerner damping         CNVZerner       .... off
 Static damping         CNVDamp         .... on
   Fraction old density DampFac         ....    0.7000
   Max. Damping (<1)    DampMax         ....    0.9800
   Min. Damping (>=0)   DampMin         ....    0.0000
   Turn off err/grad.   DampErr         ....    0.1000
 Fernandez-Rico         CNVRico         .... off

SCF Procedure:
 Maximum # iterations   MaxIter         ....   200
 SCF integral mode      SCFMode         .... Direct
   Integral package                     .... LIBINT
 Reset frequency        DirectResetFreq ....    20
 Integral Threshold     Thresh          ....  1.000e-12 Eh
 Primitive CutOff       TCut            ....  1.000e-14 Eh

Convergence Tolerance:
 Convergence Check Mode ConvCheckMode   .... Total+1el-Energy
 Convergence forced     ConvForced      .... 0
 Energy Change          TolE            ....  1.000e-09 Eh
 1-El. energy change                    ....  1.000e-06 Eh
 DIIS Error             TolErr          ....  1.000e-08


Diagonalization of the overlap matrix:
Smallest eigenvalue                        ... 1.764e-08
Time for diagonalization                   ...    0.137 sec
Threshold for overlap eigenvalues          ... 1.000e-08
Number of eigenvalues below threshold      ... 0
Time for construction of square roots      ...    0.075 sec
Total time needed                          ...    0.216 sec

-------------------
DFT GRID GENERATION
-------------------

General Integration Accuracy     IntAcc      ...  5.670
Radial Grid Type                 RadialGrid  ... Gauss-Chebyshev
Angular Grid (max. acc.)         AngularGrid ... Lebedev-770
Angular grid pruning method      GridPruning ... 3 (G Style)
Weight generation scheme         WeightScheme... Becke
Basis function cutoff            BFCut       ...    1.0000e-12
Integration weight cutoff        WCut        ...    1.0000e-14
Grids for H and He will be reduced by one unit

# of grid points (after initial pruning)     ...  93394 (   0.0 sec)
# of grid points (after weights+screening)   ...  91529 (   0.0 sec)
nearest neighbour list constructed           ...    0.0 sec
Grid point re-assignment to atoms done       ...    0.0 sec
Grid point division into batches done        ...    1.8 sec
Reduced shell lists constructed in    2.2 sec

Total number of grid points                  ...    91529
Total number of batches                      ...     1432
Average number of points per batch           ...       63
Average number of grid points per atom       ...    22882
Average number of shells per batch           ...    91.77 (74.61%)
Average number of basis functions per batch  ...   404.24 (77.29%)
Average number of large shells per batch     ...    82.28 (89.65%)
Average number of large basis fcns per batch ...   366.43 (90.65%)
Maximum spatial batch extension              ...  20.36, 20.36,  2.31 au
Average spatial batch extension              ...   0.56,  0.54,  0.29 au

Time for grid setup =    2.294 sec

------------------------------
INITIAL GUESS: MODEL POTENTIAL
------------------------------
Loading Hartree-Fock densities                     ... done
Calculating cut-offs                               ... done
Setting up the integral package                    ... done
Initializing the effective Hamiltonian             ... done
Starting the Coulomb interaction                   ... done (   0.1 sec)
Reading the grid                                   ... done
Mapping shells                                     ... done
Starting the XC term evaluation                    ... done (   2.3 sec)
  promolecular density results
     # of electrons  =     21.999509012
     EX              =    -20.462317389
     EC              =     -0.717662307
     EX+EC           =    -21.179979695
Transforming the Hamiltonian                       ... done (   0.0 sec)
Diagonalizing the Hamiltonian                      ... done (   0.1 sec)
Back transforming the eigenvectors                 ... done (   0.0 sec)
Now organizing SCF variables                       ... done
                      ------------------
                      INITIAL GUESS DONE (   4.9 sec)
                      ------------------
--------------
SCF ITERATIONS
--------------
ITER       Energy         Delta-E        Max-DP      RMS-DP      [F,P]     Damp
               ***  Starting incremental Fock matrix formation  ***
  0   -176.3453551041   0.000000000000 0.05884055  0.00029709  0.2171249 0.7000
  1   -176.3950758679  -0.049720763793 0.05428769  0.00024792  0.0800553 0.7000
                               ***Turning on DIIS***
  2   -176.4080275881  -0.012951720181 0.14191005  0.00060912  0.0378424 0.0000
  3   -176.4347635505  -0.026735962476 0.00686502  0.00007736  0.0444049 0.0000
  4   -176.4385201571  -0.003756606572 0.00263858  0.00003117  0.0351761 0.0000
  5   -176.4403210527  -0.001800895641 0.00319276  0.00002551  0.0103860 0.0000
  6   -176.4404736213  -0.000152568594 0.00106894  0.00000678  0.0026990 0.0000
  7   -176.4404855426  -0.000011921289 0.00028065  0.00000242  0.0008258 0.0000
  8   -176.4404860877  -0.000000545038 0.00014494  0.00000148  0.0008359 0.0000
  9   -176.4404869597  -0.000000872023 0.00118701  0.00000464  0.0001145 0.0000
 10   -176.4404869804  -0.000000020722 0.00208694  0.00000766  0.0000237 0.0000
 11   -176.4404869814  -0.000000001031 0.00066092  0.00000420  0.0000133 0.0000
 12   -176.4404869817  -0.000000000270 0.00921146  0.00003450  0.0000007 0.0000
 13   -176.4404869817   0.000000000008 0.00210321  0.00000898  0.0000004 0.0000
                 **** Energy Check signals convergence ****

               *****************************************************
               *                     SUCCESS                       *
               *           SCF CONVERGED AFTER  14 CYCLES          *
               *****************************************************


----------------
TOTAL SCF ENERGY
----------------

Total Energy       :         -176.44048698 Eh           -4801.18974 eV

Components:
Nuclear Repulsion  :           55.55524386 Eh            1511.73504 eV
Electronic Energy  :         -231.99573084 Eh           -6312.92478 eV
One Electron Energy:         -351.43636948 Eh           -9563.06979 eV
Two Electron Energy:          119.44063864 Eh            3250.14501 eV

Virial components:
Potential Energy   :         -352.33464832 Eh           -9587.51320 eV
Kinetic Energy     :          175.89416134 Eh            4786.32346 eV
Virial Ratio       :            2.00310599


DFT components:
N(Alpha)           :       10.999999739464 electrons
N(Beta)            :       10.999999739464 electrons
N(Total)           :       21.999999478928 electrons
E(X)               :      -20.679739522976 Eh       
E(C)               :       -0.723191704494 Eh       
E(XC)              :      -21.402931227470 Eh       
DFET-embed. en.    :        0.000000000000 Eh       

---------------
SCF CONVERGENCE
---------------

  Last Energy change         ...    3.8085e-12  Tolerance :   1.0000e-09
  Last MAX-Density change    ...    1.4954e-03  Tolerance :   1.0000e-08
  Last RMS-Density change    ...    6.2222e-06  Tolerance :   1.0000e-09
  Last DIIS Error            ...    3.1974e-07  Tolerance :   1.0000e-08

             **** THE GBW FILE WAS UPDATED (hccf_pbe.gbw) ****
             **** DENSITY FILE WAS UPDATED (hccf_pbe.scfp.tmp) ****
             **** ENERGY FILE WAS UPDATED (hccf_pbe.en.tmp) ****
----------------------
UHF SPIN CONTAMINATION
----------------------

Warning: in a DFT calculation there is little theoretical justification to 
         calculate <S**2> as in Hartree-Fock theory. We will do it anyways
         but you should keep in mind that the values have only limited relevance

Expectation value of <S**2>     :    -0.000000
Ideal value S*(S+1) for S=0.0   :     0.000000
Deviation                       :    -0.000000

----------------
ORBITAL ENERGIES
----------------
                 SPIN UP ORBITALS
  NO   OCC          E(Eh)            E(eV) 
   0   1.0000     -24.342261      -662.3866 
   1   1.0000      -9.977782      -271.5093 
   2   1.0000      -9.896196      -269.2892 
   3   1.0000      -1.205003       -32.7898 
   4   1.0000      -0.699338       -19.0299 
   5   1.0000      -0.582119       -15.8403 
   6   1.0000      -0.482335       -13.1250 
   7   1.0000      -0.465396       -12.6641 
   8   1.0000      -0.465396       -12.6641 
   9   1.0000      -0.257522        -7.0075 
  10   1.0000      -0.257522        -7.0075 
  11   0.0000      -0.027300        -0.7429 
  12   0.0000       0.004684         0.1275 
  13   0.0000       0.004684         0.1275 
  14   0.0000       0.004897         0.1333 
  15   0.0000       0.020961         0.5704 
  16   0.0000       0.020961         0.5704 
  17   0.0000       0.027638         0.7521 
  18   0.0000       0.030610         0.8330 
  19   0.0000       0.039276         1.0688 
  20   0.0000       0.039276         1.0688 
  21   0.0000       0.045788         1.2459 
  22   0.0000       0.063974         1.7408 
  23   0.0000       0.075093         2.0434 
  24   0.0000       0.075093         2.0434 
  25   0.0000       0.079584         2.1656 
  26   0.0000       0.079584         2.1656 
  27   0.0000       0.082394         2.2421 
  28   0.0000       0.093195         2.5360 
  29   0.0000       0.095229         2.5913 
  30   0.0000       0.095229         2.5913 
  31   0.0000       0.108541         2.9535 
  32   0.0000       0.108541         2.9536 
  33   0.0000       0.122656         3.3376 
  34   0.0000       0.122656         3.3376 
  35   0.0000       0.133289         3.6270 
  36   0.0000       0.140164         3.8141 
  37   0.0000       0.144882         3.9424 
  38   0.0000       0.160711         4.3732 
  39   0.0000       0.160711         4.3732 
  40   0.0000       0.183361         4.9895 
  41   0.0000       0.183361         4.9895 
  42   0.0000       0.186069         5.0632 
  43   0.0000       0.194044         5.2802 
  44   0.0000       0.210463         5.7270 
  45   0.0000       0.210464         5.7270 
  46   0.0000       0.212857         5.7921 
  47   0.0000       0.212857         5.7921 
  48   0.0000       0.222011         6.0412 
  49   0.0000       0.222011         6.0412 
  50   0.0000       0.226686         6.1684 
  51   0.0000       0.226686         6.1684 
  52   0.0000       0.239504         6.5172 
  53   0.0000       0.239504         6.5172 
  54   0.0000       0.239652         6.5213 
  55   0.0000       0.244619         6.6564 
  56   0.0000       0.244620         6.6564 
  57   0.0000       0.269430         7.3316 
  58   0.0000       0.269431         7.3316 
  59   0.0000       0.272237         7.4079 
  60   0.0000       0.273254         7.4356 
  61   0.0000       0.273254         7.4356 
  62   0.0000       0.275972         7.5096 
  63   0.0000       0.295970         8.0538 
  64   0.0000       0.328686         8.9440 
  65   0.0000       0.328686         8.9440 
  66   0.0000       0.332414         9.0455 
  67   0.0000       0.332999         9.0614 
  68   0.0000       0.332999         9.0614 
  69   0.0000       0.349646         9.5144 
  70   0.0000       0.349646         9.5144 
  71   0.0000       0.370017        10.0687 
  72   0.0000       0.376056        10.2330 
  73   0.0000       0.376056        10.2330 
  74   0.0000       0.379433        10.3249 
  75   0.0000       0.379433        10.3249 
  76   0.0000       0.403614        10.9829 
  77   0.0000       0.403615        10.9829 
  78   0.0000       0.414769        11.2864 
  79   0.0000       0.430844        11.7238 
  80   0.0000       0.430844        11.7239 
  81   0.0000       0.453150        12.3308 
  82   0.0000       0.453150        12.3308 
  83   0.0000       0.454210        12.3597 
  84   0.0000       0.455659        12.3991 
  85   0.0000       0.455659        12.3991 
  86   0.0000       0.458068        12.4647 
  87   0.0000       0.458068        12.4647 
  88   0.0000       0.465521        12.6675 
  89   0.0000       0.465521        12.6675 
  90   0.0000       0.489927        13.3316 
  91   0.0000       0.491827        13.3833 
  92   0.0000       0.491827        13.3833 
  93   0.0000       0.493308        13.4236 
  94   0.0000       0.493308        13.4236 
  95   0.0000       0.498841        13.5742 
  96   0.0000       0.498841        13.5742 
  97   0.0000       0.504147        13.7185 
  98   0.0000       0.517580        14.0841 
  99   0.0000       0.517580        14.0841 
 100   0.0000       0.522053        14.2058 
 101   0.0000       0.523076        14.2336 
 102   0.0000       0.523077        14.2336 
 103   0.0000       0.542046        14.7498 
 104   0.0000       0.562106        15.2957 
 105   0.0000       0.562106        15.2957 
 106   0.0000       0.567662        15.4469 
 107   0.0000       0.567663        15.4469 
 108   0.0000       0.574277        15.6269 
 109   0.0000       0.601504        16.3678 
 110   0.0000       0.601504        16.3678 
 111   0.0000       0.613802        16.7024 
 112   0.0000       0.613802        16.7024 
 113   0.0000       0.622067        16.9273 
 114   0.0000       0.622068        16.9273 
 115   0.0000       0.629424        17.1275 
 116   0.0000       0.629424        17.1275 
 117   0.0000       0.639450        17.4003 
 118   0.0000       0.660761        17.9802 
 119   0.0000       0.660761        17.9802 
 120   0.0000       0.719000        19.5650 
 121   0.0000       0.719000        19.5650 
 122   0.0000       0.724547        19.7159 
 123   0.0000       0.724550        19.7160 
 124   0.0000       0.726654        19.7733 
 125   0.0000       0.728811        19.8320 
 126   0.0000       0.728811        19.8320 
 127   0.0000       0.733226        19.9521 
 128   0.0000       0.733226        19.9521 
 129   0.0000       0.756087        20.5742 
 130   0.0000       0.768584        20.9142 
 131   0.0000       0.768584        20.9142 
 132   0.0000       0.771057        20.9815 
 133   0.0000       0.771057        20.9815 
 134   0.0000       0.771525        20.9943 
 135   0.0000       0.771527        20.9943 
 136   0.0000       0.789654        21.4876 
 137   0.0000       0.789654        21.4876 
 138   0.0000       0.793808        21.6006 
 139   0.0000       0.793810        21.6007 
 140   0.0000       0.801082        21.7986 
 141   0.0000       0.824095        22.4248 
 142   0.0000       0.824096        22.4248 
 143   0.0000       0.840910        22.8823 
 144   0.0000       0.873473        23.7684 
 145   0.0000       0.875761        23.8307 
 146   0.0000       0.875761        23.8307 
 147   0.0000       0.899888        24.4872 
 148   0.0000       0.899891        24.4873 
 149   0.0000       0.908846        24.7310 
 150   0.0000       0.908846        24.7310 
 151   0.0000       0.910039        24.7634 
 152   0.0000       0.931836        25.3565 
 153   0.0000       0.931836        25.3566 
 154   0.0000       0.936938        25.4954 
 155   0.0000       0.936938        25.4954 
 156   0.0000       0.941397        25.6167 
 157   0.0000       0.952956        25.9312 
 158   0.0000       0.970400        26.4059 
 159   0.0000       0.970400        26.4059 
 160   0.0000       0.972143        26.4534 
 161   0.0000       0.972144        26.4534 
 162   0.0000       1.011627        27.5278 
 163   0.0000       1.017955        27.7000 
 164   0.0000       1.017959        27.7001 
 165   0.0000       1.060104        28.8469 
 166   0.0000       1.060104        28.8469 
 167   0.0000       1.072067        29.1724 
 168   0.0000       1.072067        29.1724 
 169   0.0000       1.077745        29.3269 
 170   0.0000       1.083094        29.4725 
 171   0.0000       1.083094        29.4725 
 172   0.0000       1.113448        30.2985 
 173   0.0000       1.113448        30.2985 
 174   0.0000       1.136497        30.9257 
 175   0.0000       1.208428        32.8830 
 176   0.0000       1.208428        32.8830 
 177   0.0000       1.273420        34.6515 
 178   0.0000       1.275598        34.7108 
 179   0.0000       1.275598        34.7108 
 180   0.0000       1.310306        35.6552 
 181   0.0000       1.310306        35.6552 
 182   0.0000       1.318287        35.8724 
 183   0.0000       1.318288        35.8724 
 184   0.0000       1.324908        36.0526 
 185   0.0000       1.328180        36.1416 
 186   0.0000       1.328180        36.1416 
 187   0.0000       1.340218        36.4692 
 188   0.0000       1.340218        36.4692 
 189   0.0000       1.341200        36.4959 
 190   0.0000       1.341200        36.4959 
 191   0.0000       1.396671        38.0053 
 192   0.0000       1.396674        38.0054 
 193   0.0000       1.416499        38.5449 
 194   0.0000       1.416499        38.5449 
 195   0.0000       1.429271        38.8925 
 196   0.0000       1.467470        39.9319 
 197   0.0000       1.467471        39.9319 
 198   0.0000       1.487246        40.4700 
 199   0.0000       1.566748        42.6334 
 200   0.0000       1.566748        42.6334 
 201   0.0000       1.584294        43.1108 
 202   0.0000       1.626555        44.2608 
 203   0.0000       1.628392        44.3108 
 204   0.0000       1.628392        44.3108 
 205   0.0000       1.651304        44.9343 
 206   0.0000       1.651306        44.9343 
 207   0.0000       1.653871        45.0041 
 208   0.0000       1.664691        45.2985 
 209   0.0000       1.664698        45.2987 
 210   0.0000       1.715416        46.6788 
 211   0.0000       1.727148        46.9981 
 212   0.0000       1.727150        46.9981 
 213   0.0000       1.857223        50.5376 
 214   0.0000       1.901132        51.7324 
 215   0.0000       1.901132        51.7324 
 216   0.0000       2.010016        54.6953 
 217   0.0000       2.022495        55.0349 
 218   0.0000       2.022495        55.0349 
 219   0.0000       2.087201        56.7956 
 220   0.0000       2.087201        56.7956 
 221   0.0000       2.095915        57.0328 
 222   0.0000       2.095915        57.0328 
 223   0.0000       2.157140        58.6988 
 224   0.0000       2.207139        60.0593 
 225   0.0000       2.207139        60.0593 
 226   0.0000       2.213260        60.2259 
 227   0.0000       2.213260        60.2259 
 228   0.0000       2.342522        63.7433 
 229   0.0000       2.410686        65.5981 
 230   0.0000       2.410686        65.5981 
 231   0.0000       2.412473        65.6467 
 232   0.0000       2.412473        65.6467 
 233   0.0000       2.431326        66.1597 
 234   0.0000       2.431621        66.1678 
 235   0.0000       2.431621        66.1678 
 236   0.0000       2.526228        68.7422 
 237   0.0000       2.526228        68.7422 
 238   0.0000       2.556056        69.5538 
 239   0.0000       2.589704        70.4694 
 240   0.0000       2.589704        70.4694 
 241   0.0000       2.645635        71.9914 
 242   0.0000       2.645636        71.9914 
 243   0.0000       2.654197        72.2244 
 244   0.0000       2.753532        74.9274 
 245   0.0000       2.820067        76.7379 
 246   0.0000       2.820067        76.7379 
 247   0.0000       2.841179        77.3124 
 248   0.0000       2.961365        80.5828 
 249   0.0000       2.961370        80.5830 
 250   0.0000       3.002359        81.6983 
 251   0.0000       3.065720        83.4225 
 252   0.0000       3.065720        83.4225 
 253   0.0000       3.166067        86.1531 
 254   0.0000       3.166068        86.1531 
 255   0.0000       3.252393        88.5021 
 256   0.0000       3.252393        88.5021 
 257   0.0000       3.263221        88.7968 
 258   0.0000       3.332183        90.6733 
 259   0.0000       3.504392        95.3593 
 260   0.0000       3.504392        95.3593 
 261   0.0000       3.587394        97.6180 
 262   0.0000       3.664929        99.7278 
 263   0.0000       3.664929        99.7278 
 264   0.0000       3.768199       102.5379 
 265   0.0000       3.768200       102.5379 
 266   0.0000       3.832895       104.2984 
 267   0.0000       3.917051       106.5884 
 268   0.0000       3.917051       106.5884 
 269   0.0000       3.997610       108.7805 
 270   0.0000       3.997610       108.7805 
 271   0.0000       4.016222       109.2869 
 272   0.0000       4.016222       109.2869 
 273   0.0000       4.062363       110.5425 
 274   0.0000       4.062363       110.5425 
 275   0.0000       4.173960       113.5792 
 276   0.0000       4.173960       113.5792 
 277   0.0000       4.184414       113.8637 
 278   0.0000       4.242812       115.4528 
 279   0.0000       4.242812       115.4528 
 280   0.0000       4.285860       116.6242 
 281   0.0000       4.293424       116.8300 
 282   0.0000       4.293424       116.8300 
 283   0.0000       4.402088       119.7869 
 284   0.0000       4.402088       119.7869 
 285   0.0000       4.404852       119.8621 
 286   0.0000       4.529324       123.2492 
 287   0.0000       4.529324       123.2492 
 288   0.0000       4.595323       125.0451 
 289   0.0000       4.595324       125.0451 
 290   0.0000       4.650831       126.5556 
 291   0.0000       4.650831       126.5556 
 292   0.0000       4.710845       128.1886 
 293   0.0000       4.736164       128.8776 
 294   0.0000       4.736164       128.8776 
 295   0.0000       4.764112       129.6381 
 296   0.0000       4.764112       129.6381 
 297   0.0000       4.928433       134.1095 
 298   0.0000       4.981833       135.5626 
 299   0.0000       4.981833       135.5626 
 300   0.0000       5.101306       138.8136 
 301   0.0000       5.139500       139.8529 
 302   0.0000       5.139500       139.8529 
 303   0.0000       5.173008       140.7647 
 304   0.0000       5.173008       140.7647 
 305   0.0000       5.276871       143.5910 
 306   0.0000       5.276871       143.5910 
 307   0.0000       5.346424       145.4836 
 308   0.0000       5.578671       151.8034 
 309   0.0000       5.578671       151.8034 
 310   0.0000       5.592225       152.1722 
 311   0.0000       5.592225       152.1722 
 312   0.0000       5.767227       156.9342 
 313   0.0000       5.868268       159.6837 
 314   0.0000       5.885716       160.1585 
 315   0.0000       5.885717       160.1585 
 316   0.0000       6.024346       163.9308 
 317   0.0000       6.024347       163.9308 
 318   0.0000       6.048595       164.5906 
 319   0.0000       6.145759       167.2346 
 320   0.0000       6.145759       167.2346 
 321   0.0000       6.229297       169.5078 
 322   0.0000       6.358121       173.0133 
 323   0.0000       6.358121       173.0133 
 324   0.0000       6.483736       176.4314 
 325   0.0000       6.483736       176.4314 
 326   0.0000       6.570076       178.7808 
 327   0.0000       6.570076       178.7809 
 328   0.0000       6.754015       183.7861 
 329   0.0000       6.830633       185.8710 
 330   0.0000       7.066927       192.3009 
 331   0.0000       7.066928       192.3009 
 332   0.0000       7.091510       192.9698 
 333   0.0000       7.118606       193.7071 
 334   0.0000       7.118606       193.7071 
 335   0.0000       7.125772       193.9021 
 336   0.0000       7.125772       193.9021 
 337   0.0000       7.250295       197.2905 
 338   0.0000       7.250295       197.2906 
 339   0.0000       7.295475       198.5200 
 340   0.0000       7.295475       198.5200 
 341   0.0000       7.599084       206.7816 
 342   0.0000       7.841458       213.3769 
 343   0.0000       7.841458       213.3769 
 344   0.0000       7.859609       213.8708 
 345   0.0000       8.145915       221.6616 
 346   0.0000       8.535507       232.2630 
 347   0.0000       8.630441       234.8462 
 348   0.0000       8.630442       234.8463 
 349   0.0000       8.639605       235.0956 
 350   0.0000       8.639605       235.0956 
 351   0.0000       8.899507       242.1679 
 352   0.0000       8.899507       242.1679 
 353   0.0000       9.030049       245.7201 
 354   0.0000       9.030049       245.7201 
 355   0.0000       9.183182       249.8871 
 356   0.0000       9.595296       261.1013 
 357   0.0000       9.595296       261.1013 
 358   0.0000       9.771092       265.8849 
 359   0.0000      10.047532       273.4072 
 360   0.0000      10.076971       274.2083 
 361   0.0000      10.076971       274.2083 
 362   0.0000      10.137918       275.8668 
 363   0.0000      10.137918       275.8668 
 364   0.0000      10.205686       277.7108 
 365   0.0000      10.205686       277.7108 
 366   0.0000      10.278914       279.7035 
 367   0.0000      10.278914       279.7035 
 368   0.0000      10.299076       280.2521 
 369   0.0000      10.299076       280.2521 
 370   0.0000      10.334119       281.2057 
 371   0.0000      10.439454       284.0720 
 372   0.0000      10.439454       284.0720 
 373   0.0000      10.688869       290.8589 
 374   0.0000      10.688869       290.8589 
 375   0.0000      10.715071       291.5719 
 376   0.0000      10.715071       291.5719 
 377   0.0000      10.818984       294.3995 
 378   0.0000      10.818984       294.3995 
 379   0.0000      10.846639       295.1520 
 380   0.0000      10.846639       295.1520 
 381   0.0000      11.018963       299.8412 
 382   0.0000      11.258408       306.3569 
 383   0.0000      11.258408       306.3569 
 384   0.0000      11.353638       308.9482 
 385   0.0000      11.353638       308.9482 
 386   0.0000      11.498259       312.8835 
 387   0.0000      11.498260       312.8835 
 388   0.0000      11.561895       314.6152 
 389   0.0000      11.561895       314.6152 
 390   0.0000      11.563269       314.6526 
 391   0.0000      11.661717       317.3315 
 392   0.0000      11.661718       317.3315 
 393   0.0000      11.684685       317.9564 
 394   0.0000      11.684685       317.9564 
 395   0.0000      11.691743       318.1485 
 396   0.0000      11.691743       318.1485 
 397   0.0000      11.831338       321.9471 
 398   0.0000      11.831339       321.9471 
 399   0.0000      11.851028       322.4829 
 400   0.0000      11.851028       322.4829 
 401   0.0000      11.884582       323.3959 
 402   0.0000      11.884582       323.3959 
 403   0.0000      11.993628       326.3632 
 404   0.0000      11.997740       326.4751 
 405   0.0000      11.997740       326.4751 
 406   0.0000      12.092908       329.0648 
 407   0.0000      12.092908       329.0648 
 408   0.0000      12.187719       331.6447 
 409   0.0000      12.192785       331.7826 
 410   0.0000      12.192785       331.7826 
 411   0.0000      12.199524       331.9659 
 412   0.0000      12.199524       331.9659 
 413   0.0000      12.312294       335.0346 
 414   0.0000      12.312294       335.0346 
 415   0.0000      12.464570       339.1782 
 416   0.0000      12.551966       341.5564 
 417   0.0000      12.551966       341.5564 
 418   0.0000      12.620597       343.4239 
 419   0.0000      12.620597       343.4239 
 420   0.0000      12.630318       343.6884 
 421   0.0000      12.630318       343.6884 
 422   0.0000      12.660956       344.5221 
 423   0.0000      12.660956       344.5221 
 424   0.0000      12.910212       351.3047 
 425   0.0000      12.910213       351.3047 
 426   0.0000      13.002187       353.8075 
 427   0.0000      13.444775       365.8509 
 428   0.0000      13.444775       365.8509 
 429   0.0000      13.453252       366.0816 
 430   0.0000      13.453253       366.0816 
 431   0.0000      13.573966       369.3664 
 432   0.0000      13.620162       370.6234 
 433   0.0000      13.620162       370.6234 
 434   0.0000      13.639132       371.1396 
 435   0.0000      14.066562       382.7706 
 436   0.0000      14.066562       382.7706 
 437   0.0000      14.178174       385.8077 
 438   0.0000      14.178174       385.8077 
 439   0.0000      14.640175       398.3794 
 440   0.0000      14.763991       401.7486 
 441   0.0000      14.763991       401.7486 
 442   0.0000      14.928139       406.2153 
 443   0.0000      14.970587       407.3704 
 444   0.0000      14.970587       407.3704 
 445   0.0000      15.133922       411.8150 
 446   0.0000      15.133922       411.8150 
 447   0.0000      15.238346       414.6565 
 448   0.0000      15.319382       416.8616 
 449   0.0000      15.319382       416.8616 
 450   0.0000      16.022331       435.9898 
 451   0.0000      16.229969       441.6399 
 452   0.0000      16.229969       441.6399 
 453   0.0000      16.240317       441.9215 
 454   0.0000      16.240317       441.9215 
 455   0.0000      16.245215       442.0548 
 456   0.0000      16.710393       454.7129 
 457   0.0000      16.710393       454.7129 
 458   0.0000      16.771794       456.3837 
 459   0.0000      17.209332       468.2897 
 460   0.0000      17.209332       468.2897 
 461   0.0000      17.214784       468.4381 
 462   0.0000      17.214784       468.4381 
 463   0.0000      17.501719       476.2460 
 464   0.0000      17.501719       476.2460 
 465   0.0000      17.696974       481.5591 
 466   0.0000      18.104625       492.6519 
 467   0.0000      18.514503       503.8052 
 468   0.0000      18.570564       505.3307 
 469   0.0000      18.570564       505.3307 
 470   0.0000      19.119896       520.2788 
 471   0.0000      19.119896       520.2788 
 472   0.0000      20.045070       545.4541 
 473   0.0000      20.045073       545.4542 
 474   0.0000      20.162393       548.6466 
 475   0.0000      20.162393       548.6466 
 476   0.0000      20.193755       549.5000 
 477   0.0000      20.193755       549.5000 
 478   0.0000      20.200152       549.6741 
 479   0.0000      20.828110       566.7617 
 480   0.0000      21.029150       572.2323 
 481   0.0000      21.029150       572.2323 
 482   0.0000      21.516535       585.4947 
 483   0.0000      21.516535       585.4947 
 484   0.0000      22.468287       611.3932 
 485   0.0000      22.468287       611.3932 
 486   0.0000      22.560439       613.9007 
 487   0.0000      23.617617       642.6680 
 488   0.0000      24.001220       653.1064 
 489   0.0000      24.001220       653.1064 
 490   0.0000      24.950379       678.9343 
 491   0.0000      26.277002       715.0336 
 492   0.0000      30.321675       825.0947 
 493   0.0000      30.321678       825.0948 
 494   0.0000      31.156396       847.8086 
 495   0.0000      31.156397       847.8087 
 496   0.0000      31.886098       867.6648 
 497   0.0000      31.886101       867.6649 
 498   0.0000      31.972199       870.0078 
 499   0.0000      32.060313       872.4055 
 500   0.0000      32.060316       872.4055 
 501   0.0000      32.502970       884.4508 
 502   0.0000      32.502970       884.4508 
 503   0.0000      33.491771       911.3574 
 504   0.0000      33.491771       911.3574 
 505   0.0000      34.385942       935.6891 
 506   0.0000      36.237658       986.0768 
 507   0.0000      41.619576      1132.5262 
 508   0.0000      41.946378      1141.4190 
 509   0.0000      41.946379      1141.4190 
 510   0.0000      42.454294      1155.2401 
 511   0.0000      45.009376      1224.7674 
 512   0.0000      77.070403      2097.1923 
 513   0.0000      77.413761      2106.5355 
 514   0.0000      91.233200      2482.5816 
 515   0.0000      91.233203      2482.5817 
 516   0.0000      91.316914      2484.8596 
 517   0.0000      91.316914      2484.8596 
 518   0.0000      91.799575      2497.9934 
 519   0.0000      91.799575      2497.9934 
 520   0.0000      92.565613      2518.8384 
 521   0.0000      92.691416      2522.2617 
 522   0.0000     203.513106      5537.8732 

                 SPIN DOWN ORBITALS
  NO   OCC          E(Eh)            E(eV) 
   0   1.0000     -24.342261      -662.3866 
   1   1.0000      -9.977782      -271.5093 
   2   1.0000      -9.896196      -269.2892 
   3   1.0000      -1.205003       -32.7898 
   4   1.0000      -0.699338       -19.0299 
   5   1.0000      -0.582119       -15.8403 
   6   1.0000      -0.482335       -13.1250 
   7   1.0000      -0.465396       -12.6641 
   8   1.0000      -0.465396       -12.6641 
   9   1.0000      -0.257522        -7.0075 
  10   1.0000      -0.257522        -7.0075 
  11   0.0000      -0.027300        -0.7429 
  12   0.0000       0.004684         0.1275 
  13   0.0000       0.004684         0.1275 
  14   0.0000       0.004897         0.1333 
  15   0.0000       0.020961         0.5704 
  16   0.0000       0.020961         0.5704 
  17   0.0000       0.027638         0.7521 
  18   0.0000       0.030610         0.8330 
  19   0.0000       0.039276         1.0688 
  20   0.0000       0.039276         1.0688 
  21   0.0000       0.045788         1.2459 
  22   0.0000       0.063974         1.7408 
  23   0.0000       0.075093         2.0434 
  24   0.0000       0.075093         2.0434 
  25   0.0000       0.079584         2.1656 
  26   0.0000       0.079584         2.1656 
  27   0.0000       0.082394         2.2421 
  28   0.0000       0.093195         2.5360 
  29   0.0000       0.095229         2.5913 
  30   0.0000       0.095229         2.5913 
  31   0.0000       0.108541         2.9535 
  32   0.0000       0.108541         2.9536 
  33   0.0000       0.122656         3.3376 
  34   0.0000       0.122656         3.3376 
  35   0.0000       0.133289         3.6270 
  36   0.0000       0.140164         3.8141 
  37   0.0000       0.144882         3.9424 
  38   0.0000       0.160711         4.3732 
  39   0.0000       0.160711         4.3732 
  40   0.0000       0.183361         4.9895 
  41   0.0000       0.183361         4.9895 
  42   0.0000       0.186069         5.0632 
  43   0.0000       0.194044         5.2802 
  44   0.0000       0.210463         5.7270 
  45   0.0000       0.210464         5.7270 
  46   0.0000       0.212857         5.7921 
  47   0.0000       0.212857         5.7921 
  48   0.0000       0.222011         6.0412 
  49   0.0000       0.222011         6.0412 
  50   0.0000       0.226686         6.1684 
  51   0.0000       0.226686         6.1684 
  52   0.0000       0.239504         6.5172 
  53   0.0000       0.239504         6.5172 
  54   0.0000       0.239652         6.5213 
  55   0.0000       0.244619         6.6564 
  56   0.0000       0.244620         6.6564 
  57   0.0000       0.269430         7.3316 
  58   0.0000       0.269431         7.3316 
  59   0.0000       0.272237         7.4079 
  60   0.0000       0.273254         7.4356 
  61   0.0000       0.273254         7.4356 
  62   0.0000       0.275972         7.5096 
  63   0.0000       0.295970         8.0538 
  64   0.0000       0.328686         8.9440 
  65   0.0000       0.328686         8.9440 
  66   0.0000       0.332414         9.0455 
  67   0.0000       0.332999         9.0614 
  68   0.0000       0.332999         9.0614 
  69   0.0000       0.349646         9.5144 
  70   0.0000       0.349646         9.5144 
  71   0.0000       0.370017        10.0687 
  72   0.0000       0.376056        10.2330 
  73   0.0000       0.376056        10.2330 
  74   0.0000       0.379433        10.3249 
  75   0.0000       0.379433        10.3249 
  76   0.0000       0.403614        10.9829 
  77   0.0000       0.403615        10.9829 
  78   0.0000       0.414769        11.2864 
  79   0.0000       0.430844        11.7238 
  80   0.0000       0.430844        11.7239 
  81   0.0000       0.453150        12.3308 
  82   0.0000       0.453150        12.3308 
  83   0.0000       0.454210        12.3597 
  84   0.0000       0.455659        12.3991 
  85   0.0000       0.455659        12.3991 
  86   0.0000       0.458068        12.4647 
  87   0.0000       0.458068        12.4647 
  88   0.0000       0.465521        12.6675 
  89   0.0000       0.465521        12.6675 
  90   0.0000       0.489927        13.3316 
  91   0.0000       0.491827        13.3833 
  92   0.0000       0.491827        13.3833 
  93   0.0000       0.493308        13.4236 
  94   0.0000       0.493308        13.4236 
  95   0.0000       0.498841        13.5742 
  96   0.0000       0.498841        13.5742 
  97   0.0000       0.504147        13.7185 
  98   0.0000       0.517580        14.0841 
  99   0.0000       0.517580        14.0841 
 100   0.0000       0.522053        14.2058 
 101   0.0000       0.523076        14.2336 
 102   0.0000       0.523077        14.2336 
 103   0.0000       0.542046        14.7498 
 104   0.0000       0.562106        15.2957 
 105   0.0000       0.562106        15.2957 
 106   0.0000       0.567662        15.4469 
 107   0.0000       0.567663        15.4469 
 108   0.0000       0.574277        15.6269 
 109   0.0000       0.601504        16.3678 
 110   0.0000       0.601504        16.3678 
 111   0.0000       0.613802        16.7024 
 112   0.0000       0.613802        16.7024 
 113   0.0000       0.622067        16.9273 
 114   0.0000       0.622068        16.9273 
 115   0.0000       0.629424        17.1275 
 116   0.0000       0.629424        17.1275 
 117   0.0000       0.639450        17.4003 
 118   0.0000       0.660761        17.9802 
 119   0.0000       0.660761        17.9802 
 120   0.0000       0.719000        19.5650 
 121   0.0000       0.719000        19.5650 
 122   0.0000       0.724547        19.7159 
 123   0.0000       0.724550        19.7160 
 124   0.0000       0.726654        19.7733 
 125   0.0000       0.728811        19.8320 
 126   0.0000       0.728811        19.8320 
 127   0.0000       0.733226        19.9521 
 128   0.0000       0.733226        19.9521 
 129   0.0000       0.756087        20.5742 
 130   0.0000       0.768584        20.9142 
 131   0.0000       0.768584        20.9142 
 132   0.0000       0.771057        20.9815 
 133   0.0000       0.771057        20.9815 
 134   0.0000       0.771525        20.9943 
 135   0.0000       0.771527        20.9943 
 136   0.0000       0.789654        21.4876 
 137   0.0000       0.789654        21.4876 
 138   0.0000       0.793808        21.6006 
 139   0.0000       0.793810        21.6007 
 140   0.0000       0.801082        21.7986 
 141   0.0000       0.824095        22.4248 
 142   0.0000       0.824096        22.4248 
 143   0.0000       0.840910        22.8823 
 144   0.0000       0.873473        23.7684 
 145   0.0000       0.875761        23.8307 
 146   0.0000       0.875761        23.8307 
 147   0.0000       0.899888        24.4872 
 148   0.0000       0.899891        24.4873 
 149   0.0000       0.908846        24.7310 
 150   0.0000       0.908846        24.7310 
 151   0.0000       0.910039        24.7634 
 152   0.0000       0.931836        25.3565 
 153   0.0000       0.931836        25.3566 
 154   0.0000       0.936938        25.4954 
 155   0.0000       0.936938        25.4954 
 156   0.0000       0.941397        25.6167 
 157   0.0000       0.952956        25.9312 
 158   0.0000       0.970400        26.4059 
 159   0.0000       0.970400        26.4059 
 160   0.0000       0.972143        26.4534 
 161   0.0000       0.972144        26.4534 
 162   0.0000       1.011627        27.5278 
 163   0.0000       1.017955        27.7000 
 164   0.0000       1.017959        27.7001 
 165   0.0000       1.060104        28.8469 
 166   0.0000       1.060104        28.8469 
 167   0.0000       1.072067        29.1724 
 168   0.0000       1.072067        29.1724 
 169   0.0000       1.077745        29.3269 
 170   0.0000       1.083094        29.4725 
 171   0.0000       1.083094        29.4725 
 172   0.0000       1.113448        30.2985 
 173   0.0000       1.113448        30.2985 
 174   0.0000       1.136497        30.9257 
 175   0.0000       1.208428        32.8830 
 176   0.0000       1.208428        32.8830 
 177   0.0000       1.273420        34.6515 
 178   0.0000       1.275598        34.7108 
 179   0.0000       1.275598        34.7108 
 180   0.0000       1.310306        35.6552 
 181   0.0000       1.310306        35.6552 
 182   0.0000       1.318287        35.8724 
 183   0.0000       1.318288        35.8724 
 184   0.0000       1.324908        36.0526 
 185   0.0000       1.328180        36.1416 
 186   0.0000       1.328180        36.1416 
 187   0.0000       1.340218        36.4692 
 188   0.0000       1.340218        36.4692 
 189   0.0000       1.341200        36.4959 
 190   0.0000       1.341200        36.4959 
 191   0.0000       1.396671        38.0053 
 192   0.0000       1.396674        38.0054 
 193   0.0000       1.416499        38.5449 
 194   0.0000       1.416499        38.5449 
 195   0.0000       1.429271        38.8925 
 196   0.0000       1.467470        39.9319 
 197   0.0000       1.467471        39.9319 
 198   0.0000       1.487246        40.4700 
 199   0.0000       1.566748        42.6334 
 200   0.0000       1.566748        42.6334 
 201   0.0000       1.584294        43.1108 
 202   0.0000       1.626555        44.2608 
 203   0.0000       1.628392        44.3108 
 204   0.0000       1.628392        44.3108 
 205   0.0000       1.651304        44.9343 
 206   0.0000       1.651306        44.9343 
 207   0.0000       1.653871        45.0041 
 208   0.0000       1.664691        45.2985 
 209   0.0000       1.664698        45.2987 
 210   0.0000       1.715416        46.6788 
 211   0.0000       1.727148        46.9981 
 212   0.0000       1.727150        46.9981 
 213   0.0000       1.857223        50.5376 
 214   0.0000       1.901132        51.7324 
 215   0.0000       1.901132        51.7324 
 216   0.0000       2.010016        54.6953 
 217   0.0000       2.022495        55.0349 
 218   0.0000       2.022495        55.0349 
 219   0.0000       2.087201        56.7956 
 220   0.0000       2.087201        56.7956 
 221   0.0000       2.095915        57.0328 
 222   0.0000       2.095915        57.0328 
 223   0.0000       2.157140        58.6988 
 224   0.0000       2.207139        60.0593 
 225   0.0000       2.207139        60.0593 
 226   0.0000       2.213260        60.2259 
 227   0.0000       2.213260        60.2259 
 228   0.0000       2.342522        63.7433 
 229   0.0000       2.410686        65.5981 
 230   0.0000       2.410686        65.5981 
 231   0.0000       2.412473        65.6467 
 232   0.0000       2.412473        65.6467 
 233   0.0000       2.431326        66.1597 
 234   0.0000       2.431621        66.1678 
 235   0.0000       2.431621        66.1678 
 236   0.0000       2.526228        68.7422 
 237   0.0000       2.526228        68.7422 
 238   0.0000       2.556056        69.5538 
 239   0.0000       2.589704        70.4694 
 240   0.0000       2.589704        70.4694 
 241   0.0000       2.645635        71.9914 
 242   0.0000       2.645636        71.9914 
 243   0.0000       2.654197        72.2244 
 244   0.0000       2.753532        74.9274 
 245   0.0000       2.820067        76.7379 
 246   0.0000       2.820067        76.7379 
 247   0.0000       2.841179        77.3124 
 248   0.0000       2.961365        80.5828 
 249   0.0000       2.961370        80.5830 
 250   0.0000       3.002359        81.6983 
 251   0.0000       3.065720        83.4225 
 252   0.0000       3.065720        83.4225 
 253   0.0000       3.166067        86.1531 
 254   0.0000       3.166068        86.1531 
 255   0.0000       3.252393        88.5021 
 256   0.0000       3.252393        88.5021 
 257   0.0000       3.263221        88.7968 
 258   0.0000       3.332183        90.6733 
 259   0.0000       3.504392        95.3593 
 260   0.0000       3.504392        95.3593 
 261   0.0000       3.587394        97.6180 
 262   0.0000       3.664929        99.7278 
 263   0.0000       3.664929        99.7278 
 264   0.0000       3.768199       102.5379 
 265   0.0000       3.768200       102.5379 
 266   0.0000       3.832895       104.2984 
 267   0.0000       3.917051       106.5884 
 268   0.0000       3.917051       106.5884 
 269   0.0000       3.997610       108.7805 
 270   0.0000       3.997610       108.7805 
 271   0.0000       4.016222       109.2869 
 272   0.0000       4.016222       109.2869 
 273   0.0000       4.062363       110.5425 
 274   0.0000       4.062363       110.5425 
 275   0.0000       4.173960       113.5792 
 276   0.0000       4.173960       113.5792 
 277   0.0000       4.184414       113.8637 
 278   0.0000       4.242812       115.4528 
 279   0.0000       4.242812       115.4528 
 280   0.0000       4.285860       116.6242 
 281   0.0000       4.293424       116.8300 
 282   0.0000       4.293424       116.8300 
 283   0.0000       4.402088       119.7869 
 284   0.0000       4.402088       119.7869 
 285   0.0000       4.404852       119.8621 
 286   0.0000       4.529324       123.2492 
 287   0.0000       4.529324       123.2492 
 288   0.0000       4.595323       125.0451 
 289   0.0000       4.595324       125.0451 
 290   0.0000       4.650831       126.5556 
 291   0.0000       4.650831       126.5556 
 292   0.0000       4.710845       128.1886 
 293   0.0000       4.736164       128.8776 
 294   0.0000       4.736164       128.8776 
 295   0.0000       4.764112       129.6381 
 296   0.0000       4.764112       129.6381 
 297   0.0000       4.928433       134.1095 
 298   0.0000       4.981833       135.5626 
 299   0.0000       4.981833       135.5626 
 300   0.0000       5.101306       138.8136 
 301   0.0000       5.139500       139.8529 
 302   0.0000       5.139500       139.8529 
 303   0.0000       5.173008       140.7647 
 304   0.0000       5.173008       140.7647 
 305   0.0000       5.276871       143.5910 
 306   0.0000       5.276871       143.5910 
 307   0.0000       5.346424       145.4836 
 308   0.0000       5.578671       151.8034 
 309   0.0000       5.578671       151.8034 
 310   0.0000       5.592225       152.1722 
 311   0.0000       5.592225       152.1722 
 312   0.0000       5.767227       156.9342 
 313   0.0000       5.868268       159.6837 
 314   0.0000       5.885716       160.1585 
 315   0.0000       5.885717       160.1585 
 316   0.0000       6.024346       163.9308 
 317   0.0000       6.024347       163.9308 
 318   0.0000       6.048595       164.5906 
 319   0.0000       6.145759       167.2346 
 320   0.0000       6.145759       167.2346 
 321   0.0000       6.229297       169.5078 
 322   0.0000       6.358121       173.0133 
 323   0.0000       6.358121       173.0133 
 324   0.0000       6.483736       176.4314 
 325   0.0000       6.483736       176.4314 
 326   0.0000       6.570076       178.7808 
 327   0.0000       6.570076       178.7809 
 328   0.0000       6.754015       183.7861 
 329   0.0000       6.830633       185.8710 
 330   0.0000       7.066927       192.3009 
 331   0.0000       7.066928       192.3009 
 332   0.0000       7.091510       192.9698 
 333   0.0000       7.118606       193.7071 
 334   0.0000       7.118606       193.7071 
 335   0.0000       7.125772       193.9021 
 336   0.0000       7.125772       193.9021 
 337   0.0000       7.250295       197.2905 
 338   0.0000       7.250295       197.2906 
 339   0.0000       7.295475       198.5200 
 340   0.0000       7.295475       198.5200 
 341   0.0000       7.599084       206.7816 
 342   0.0000       7.841458       213.3769 
 343   0.0000       7.841458       213.3769 
 344   0.0000       7.859609       213.8708 
 345   0.0000       8.145915       221.6616 
 346   0.0000       8.535507       232.2630 
 347   0.0000       8.630441       234.8462 
 348   0.0000       8.630442       234.8463 
 349   0.0000       8.639605       235.0956 
 350   0.0000       8.639605       235.0956 
 351   0.0000       8.899507       242.1679 
 352   0.0000       8.899507       242.1679 
 353   0.0000       9.030049       245.7201 
 354   0.0000       9.030049       245.7201 
 355   0.0000       9.183182       249.8871 
 356   0.0000       9.595296       261.1013 
 357   0.0000       9.595296       261.1013 
 358   0.0000       9.771092       265.8849 
 359   0.0000      10.047532       273.4072 
 360   0.0000      10.076971       274.2083 
 361   0.0000      10.076971       274.2083 
 362   0.0000      10.137918       275.8668 
 363   0.0000      10.137918       275.8668 
 364   0.0000      10.205686       277.7108 
 365   0.0000      10.205686       277.7108 
 366   0.0000      10.278914       279.7035 
 367   0.0000      10.278914       279.7035 
 368   0.0000      10.299076       280.2521 
 369   0.0000      10.299076       280.2521 
 370   0.0000      10.334119       281.2057 
 371   0.0000      10.439454       284.0720 
 372   0.0000      10.439454       284.0720 
 373   0.0000      10.688869       290.8589 
 374   0.0000      10.688869       290.8589 
 375   0.0000      10.715071       291.5719 
 376   0.0000      10.715071       291.5719 
 377   0.0000      10.818984       294.3995 
 378   0.0000      10.818984       294.3995 
 379   0.0000      10.846639       295.1520 
 380   0.0000      10.846639       295.1520 
 381   0.0000      11.018963       299.8412 
 382   0.0000      11.258408       306.3569 
 383   0.0000      11.258408       306.3569 
 384   0.0000      11.353638       308.9482 
 385   0.0000      11.353638       308.9482 
 386   0.0000      11.498259       312.8835 
 387   0.0000      11.498260       312.8835 
 388   0.0000      11.561895       314.6152 
 389   0.0000      11.561895       314.6152 
 390   0.0000      11.563269       314.6526 
 391   0.0000      11.661717       317.3315 
 392   0.0000      11.661718       317.3315 
 393   0.0000      11.684685       317.9564 
 394   0.0000      11.684685       317.9564 
 395   0.0000      11.691743       318.1485 
 396   0.0000      11.691743       318.1485 
 397   0.0000      11.831338       321.9471 
 398   0.0000      11.831339       321.9471 
 399   0.0000      11.851028       322.4829 
 400   0.0000      11.851028       322.4829 
 401   0.0000      11.884582       323.3959 
 402   0.0000      11.884582       323.3959 
 403   0.0000      11.993628       326.3632 
 404   0.0000      11.997740       326.4751 
 405   0.0000      11.997740       326.4751 
 406   0.0000      12.092908       329.0648 
 407   0.0000      12.092908       329.0648 
 408   0.0000      12.187719       331.6447 
 409   0.0000      12.192785       331.7826 
 410   0.0000      12.192785       331.7826 
 411   0.0000      12.199524       331.9659 
 412   0.0000      12.199524       331.9659 
 413   0.0000      12.312294       335.0346 
 414   0.0000      12.312294       335.0346 
 415   0.0000      12.464570       339.1782 
 416   0.0000      12.551966       341.5564 
 417   0.0000      12.551966       341.5564 
 418   0.0000      12.620597       343.4239 
 419   0.0000      12.620597       343.4239 
 420   0.0000      12.630318       343.6884 
 421   0.0000      12.630318       343.6884 
 422   0.0000      12.660956       344.5221 
 423   0.0000      12.660956       344.5221 
 424   0.0000      12.910212       351.3047 
 425   0.0000      12.910213       351.3047 
 426   0.0000      13.002187       353.8075 
 427   0.0000      13.444775       365.8509 
 428   0.0000      13.444775       365.8509 
 429   0.0000      13.453252       366.0816 
 430   0.0000      13.453253       366.0816 
 431   0.0000      13.573966       369.3664 
 432   0.0000      13.620162       370.6234 
 433   0.0000      13.620162       370.6234 
 434   0.0000      13.639132       371.1396 
 435   0.0000      14.066562       382.7706 
 436   0.0000      14.066562       382.7706 
 437   0.0000      14.178174       385.8077 
 438   0.0000      14.178174       385.8077 
 439   0.0000      14.640175       398.3794 
 440   0.0000      14.763991       401.7486 
 441   0.0000      14.763991       401.7486 
 442   0.0000      14.928139       406.2153 
 443   0.0000      14.970587       407.3704 
 444   0.0000      14.970587       407.3704 
 445   0.0000      15.133922       411.8150 
 446   0.0000      15.133922       411.8150 
 447   0.0000      15.238346       414.6565 
 448   0.0000      15.319382       416.8616 
 449   0.0000      15.319382       416.8616 
 450   0.0000      16.022331       435.9898 
 451   0.0000      16.229969       441.6399 
 452   0.0000      16.229969       441.6399 
 453   0.0000      16.240317       441.9215 
 454   0.0000      16.240317       441.9215 
 455   0.0000      16.245215       442.0548 
 456   0.0000      16.710393       454.7129 
 457   0.0000      16.710393       454.7129 
 458   0.0000      16.771794       456.3837 
 459   0.0000      17.209332       468.2897 
 460   0.0000      17.209332       468.2897 
 461   0.0000      17.214784       468.4381 
 462   0.0000      17.214784       468.4381 
 463   0.0000      17.501719       476.2460 
 464   0.0000      17.501719       476.2460 
 465   0.0000      17.696974       481.5591 
 466   0.0000      18.104625       492.6519 
 467   0.0000      18.514503       503.8052 
 468   0.0000      18.570564       505.3307 
 469   0.0000      18.570564       505.3307 
 470   0.0000      19.119896       520.2788 
 471   0.0000      19.119896       520.2788 
 472   0.0000      20.045070       545.4541 
 473   0.0000      20.045073       545.4542 
 474   0.0000      20.162393       548.6466 
 475   0.0000      20.162393       548.6466 
 476   0.0000      20.193755       549.5000 
 477   0.0000      20.193755       549.5000 
 478   0.0000      20.200152       549.6741 
 479   0.0000      20.828110       566.7617 
 480   0.0000      21.029150       572.2323 
 481   0.0000      21.029150       572.2323 
 482   0.0000      21.516535       585.4947 
 483   0.0000      21.516535       585.4947 
 484   0.0000      22.468287       611.3932 
 485   0.0000      22.468287       611.3932 
 486   0.0000      22.560439       613.9007 
 487   0.0000      23.617617       642.6680 
 488   0.0000      24.001220       653.1064 
 489   0.0000      24.001220       653.1064 
 490   0.0000      24.950379       678.9343 
 491   0.0000      26.277002       715.0336 
 492   0.0000      30.321675       825.0947 
 493   0.0000      30.321678       825.0948 
 494   0.0000      31.156396       847.8086 
 495   0.0000      31.156397       847.8087 
 496   0.0000      31.886098       867.6648 
 497   0.0000      31.886101       867.6649 
 498   0.0000      31.972199       870.0078 
 499   0.0000      32.060313       872.4055 
 500   0.0000      32.060316       872.4055 
 501   0.0000      32.502970       884.4508 
 502   0.0000      32.502970       884.4508 
 503   0.0000      33.491771       911.3574 
 504   0.0000      33.491771       911.3574 
 505   0.0000      34.385942       935.6891 
 506   0.0000      36.237658       986.0768 
 507   0.0000      41.619576      1132.5262 
 508   0.0000      41.946378      1141.4190 
 509   0.0000      41.946379      1141.4190 
 510   0.0000      42.454294      1155.2401 
 511   0.0000      45.009376      1224.7674 
 512   0.0000      77.070403      2097.1923 
 513   0.0000      77.413761      2106.5355 
 514   0.0000      91.233200      2482.5816 
 515   0.0000      91.233203      2482.5817 
 516   0.0000      91.316914      2484.8596 
 517   0.0000      91.316914      2484.8596 
 518   0.0000      91.799575      2497.9934 
 519   0.0000      91.799575      2497.9934 
 520   0.0000      92.565613      2518.8384 
 521   0.0000      92.691416      2522.2617 
 522   0.0000     203.513106      5537.8732 

                    ********************************
                    * MULLIKEN POPULATION ANALYSIS *
                    ********************************

--------------------------------------------
MULLIKEN ATOMIC CHARGES AND SPIN POPULATIONS
--------------------------------------------
   0 C :    0.900369    0.000000
   1 C :   -0.308243   -0.000000
   2 F :   -0.678967   -0.000000
   3 H :    0.086841    0.000000
Sum of atomic charges         :   -0.0000000
Sum of atomic spin populations:    0.0000000

-----------------------------------------------------
MULLIKEN REDUCED ORBITAL CHARGES AND SPIN POPULATIONS
-----------------------------------------------------
CHARGE
  0 C s       :     2.612456  s :     2.612456
      pz      :     0.635108  p :     2.416195
      px      :     0.890544
      py      :     0.890543
      dz2     :     0.014315  d :     0.051835
      dxz     :     0.018759
      dyz     :     0.018760
      dx2y2   :     0.000000
      dxy     :     0.000000
      f0      :     0.007367  f :     0.012507
      f+1     :     0.002570
      f-1     :     0.002570
      f+2     :     0.000000
      f-2     :     0.000000
      f+3     :     0.000000
      f-3     :     0.000000
      g0      :     0.001766  g :     0.006261
      g+1     :     0.002247
      g-1     :     0.002247
      g+2     :    -0.000000
      g-2     :    -0.000000
      g+3     :     0.000000
      g-3     :     0.000000
      g+4     :     0.000000
      g-4     :     0.000000
      h0      :     0.000460  h :     0.000377
      h+1     :    -0.000041
      h-1     :    -0.000041
      h+2     :    -0.000000
      h-2     :    -0.000000
      h+3     :     0.000000
      h-3     :     0.000000
      h+4     :     0.000000
      h-4     :    -0.000000
      h+5     :     0.000000
      h-5     :     0.000000
  1 C s       :     3.289909  s :     3.289909
      pz      :     0.902645  p :     2.957397
      px      :     1.027376
      py      :     1.027376
      dz2     :     0.037460  d :     0.045572
      dxz     :     0.004056
      dyz     :     0.004056
      dx2y2   :    -0.000000
      dxy     :    -0.000000
      f0      :     0.000298  f :     0.005427
      f+1     :     0.002564
      f-1     :     0.002564
      f+2     :     0.000000
      f-2     :     0.000000
      f+3     :     0.000000
      f-3     :     0.000000
      g0      :     0.002072  g :     0.007929
      g+1     :     0.002929
      g-1     :     0.002928
      g+2     :     0.000000
      g-2     :    -0.000000
      g+3     :     0.000000
      g-3     :     0.000000
      g+4     :     0.000000
      g-4     :     0.000000
      h0      :    -0.000207  h :     0.002010
      h+1     :     0.001108
      h-1     :     0.001108
      h+2     :     0.000000
      h-2     :     0.000000
      h+3     :     0.000000
      h-3     :     0.000000
      h+4     :     0.000000
      h-4     :    -0.000000
      h+5     :     0.000000
      h-5     :     0.000000
  2 F s       :     4.216354  s :     4.216354
      pz      :     1.532310  p :     5.393020
      px      :     1.930355
      py      :     1.930355
      dz2     :     0.013478  d :     0.064973
      dxz     :     0.025747
      dyz     :     0.025747
      dx2y2   :    -0.000000
      dxy     :     0.000000
      f0      :     0.003952  f :     0.006672
      f+1     :     0.001360
      f-1     :     0.001360
      f+2     :    -0.000000
      f-2     :    -0.000000
      f+3     :     0.000000
      f-3     :     0.000000
      g0      :     0.001104  g :    -0.001490
      g+1     :    -0.001297
      g-1     :    -0.001297
      g+2     :    -0.000000
      g-2     :     0.000000
      g+3     :    -0.000000
      g-3     :    -0.000000
      g+4     :     0.000000
      g-4     :     0.000000
      h0      :     0.000128  h :    -0.000563
      h+1     :    -0.000346
      h-1     :    -0.000346
      h+2     :     0.000000
      h-2     :    -0.000000
      h+3     :     0.000000
      h-3     :     0.000000
      h+4     :     0.000000
      h-4     :    -0.000000
      h+5     :     0.000000
      h-5     :     0.000000
  3 H s       :     0.750202  s :     0.750202
      pz      :    -0.014289  p :     0.113785
      px      :     0.064037
      py      :     0.064037
      dz2     :    -0.007142  d :     0.036950
      dxz     :     0.022046
      dyz     :     0.022046
      dx2y2   :     0.000000
      dxy     :    -0.000000
      f0      :     0.000180  f :     0.011394
      f+1     :     0.005607
      f-1     :     0.005607
      f+2     :     0.000000
      f-2     :     0.000000
      f+3     :     0.000000
      f-3     :     0.000000
      g0      :     0.000072  g :     0.000827
      g+1     :     0.000378
      g-1     :     0.000378
      g+2     :    -0.000000
      g-2     :    -0.000000
      g+3     :    -0.000000
      g-3     :    -0.000000
      g+4     :     0.000000
      g-4     :     0.000000

SPIN
  0 C s       :     0.000000  s :     0.000000
      pz      :     0.000000  p :     0.000000
      px      :    -0.000000
      py      :     0.000000
      dz2     :     0.000000  d :     0.000000
      dxz     :    -0.000000
      dyz     :     0.000000
      dx2y2   :    -0.000000
      dxy     :     0.000000
      f0      :     0.000000  f :     0.000000
      f+1     :    -0.000000
      f-1     :     0.000000
      f+2     :    -0.000000
      f-2     :     0.000000
      f+3     :    -0.000000
      f-3     :     0.000000
      g0      :    -0.000000  g :    -0.000000
      g+1     :     0.000000
      g-1     :    -0.000000
      g+2     :    -0.000000
      g-2     :     0.000000
      g+3     :     0.000000
      g-3     :    -0.000000
      g+4     :     0.000000
      g-4     :     0.000000
      h0      :     0.000000  h :     0.000000
      h+1     :     0.000000
      h-1     :    -0.000000
      h+2     :     0.000000
      h-2     :    -0.000000
      h+3     :    -0.000000
      h-3     :     0.000000
      h+4     :     0.000000
      h-4     :    -0.000000
      h+5     :     0.000000
      h-5     :    -0.000000
  1 C s       :    -0.000000  s :    -0.000000
      pz      :     0.000000  p :     0.000000
      px      :     0.000000
      py      :    -0.000000
      dz2     :     0.000000  d :     0.000000
      dxz     :     0.000000
      dyz     :    -0.000000
      dx2y2   :     0.000000
      dxy     :    -0.000000
      f0      :     0.000000  f :     0.000000
      f+1     :    -0.000000
      f-1     :    -0.000000
      f+2     :     0.000000
      f-2     :    -0.000000
      f+3     :    -0.000000
      f-3     :     0.000000
      g0      :    -0.000000  g :    -0.000000
      g+1     :     0.000000
      g-1     :    -0.000000
      g+2     :     0.000000
      g-2     :    -0.000000
      g+3     :     0.000000
      g-3     :    -0.000000
      g+4     :     0.000000
      g-4     :    -0.000000
      h0      :    -0.000000  h :    -0.000000
      h+1     :     0.000000
      h-1     :    -0.000000
      h+2     :     0.000000
      h-2     :     0.000000
      h+3     :     0.000000
      h-3     :    -0.000000
      h+4     :     0.000000
      h-4     :     0.000000
      h+5     :    -0.000000
      h-5     :    -0.000000
  2 F s       :    -0.000000  s :    -0.000000
      pz      :     0.000000  p :     0.000000
      px      :     0.000000
      py      :    -0.000000
      dz2     :     0.000000  d :     0.000000
      dxz     :     0.000000
      dyz     :    -0.000000
      dx2y2   :    -0.000000
      dxy     :     0.000000
      f0      :    -0.000000  f :    -0.000000
      f+1     :     0.000000
      f-1     :    -0.000000
      f+2     :     0.000000
      f-2     :    -0.000000
      f+3     :     0.000000
      f-3     :    -0.000000
      g0      :    -0.000000  g :    -0.000000
      g+1     :    -0.000000
      g-1     :    -0.000000
      g+2     :     0.000000
      g-2     :    -0.000000
      g+3     :     0.000000
      g-3     :    -0.000000
      g+4     :     0.000000
      g-4     :     0.000000
      h0      :    -0.000000  h :    -0.000000
      h+1     :    -0.000000
      h-1     :    -0.000000
      h+2     :     0.000000
      h-2     :    -0.000000
      h+3     :     0.000000
      h-3     :    -0.000000
      h+4     :    -0.000000
      h-4     :    -0.000000
      h+5     :     0.000000
      h-5     :    -0.000000
  3 H s       :     0.000000  s :     0.000000
      pz      :     0.000000  p :     0.000000
      px      :     0.000000
      py      :    -0.000000
      dz2     :     0.000000  d :     0.000000
      dxz     :    -0.000000
      dyz     :    -0.000000
      dx2y2   :    -0.000000
      dxy     :     0.000000
      f0      :     0.000000  f :     0.000000
      f+1     :    -0.000000
      f-1     :    -0.000000
      f+2     :    -0.000000
      f-2     :     0.000000
      f+3     :     0.000000
      f-3     :    -0.000000
      g0      :     0.000000  g :     0.000000
      g+1     :    -0.000000
      g-1     :    -0.000000
      g+2     :     0.000000
      g-2     :    -0.000000
      g+3     :     0.000000
      g-3     :    -0.000000
      g+4     :     0.000000
      g-4     :    -0.000000


                     *******************************
                     * LOEWDIN POPULATION ANALYSIS *
                     *******************************

-------------------------------------------
LOEWDIN ATOMIC CHARGES AND SPIN POPULATIONS
-------------------------------------------
   0 C :   -0.162587    0.000000
   1 C :    0.446609    0.000000
   2 F :    0.236812   -0.000000
   3 H :   -0.520834    0.000000

----------------------------------------------------
LOEWDIN REDUCED ORBITAL CHARGES AND SPIN POPULATIONS
----------------------------------------------------
CHARGE
  0 C s       :     2.562430  s :     2.562430
      pz      :     0.955085  p :     2.379788
      px      :     0.712351
      py      :     0.712351
      dz2     :     0.309815  d :     0.828951
      dxz     :     0.259568
      dyz     :     0.259568
      dx2y2   :     0.000000
      dxy     :     0.000000
      f0      :     0.124821  f :     0.267981
      f+1     :     0.071580
      f-1     :     0.071580
      f+2     :     0.000000
      f-2     :     0.000000
      f+3     :     0.000000
      f-3     :     0.000000
      g0      :     0.036483  g :     0.104798
      g+1     :     0.034158
      g-1     :     0.034158
      g+2     :     0.000000
      g-2     :     0.000000
      g+3     :     0.000000
      g-3     :     0.000000
      g+4     :     0.000000
      g-4     :     0.000000
      h0      :     0.011577  h :     0.018640
      h+1     :     0.003531
      h-1     :     0.003531
      h+2     :     0.000000
      h-2     :     0.000000
      h+3     :     0.000000
      h-3     :     0.000000
      h+4     :     0.000000
      h-4     :     0.000000
      h+5     :     0.000000
      h-5     :     0.000000
  1 C s       :     2.607016  s :     2.607016
      pz      :     1.033838  p :     2.432503
      px      :     0.699333
      py      :     0.699333
      dz2     :     0.105222  d :     0.235526
      dxz     :     0.065152
      dyz     :     0.065152
      dx2y2   :     0.000000
      dxy     :     0.000000
      f0      :     0.051530  f :     0.121440
      f+1     :     0.034955
      f-1     :     0.034955
      f+2     :     0.000000
      f-2     :     0.000000
      f+3     :     0.000000
      f-3     :     0.000000
      g0      :     0.037774  g :     0.087961
      g+1     :     0.025094
      g-1     :     0.025094
      g+2     :     0.000000
      g-2     :     0.000000
      g+3     :     0.000000
      g-3     :     0.000000
      g+4     :     0.000000
      g-4     :     0.000000
      h0      :     0.028393  h :     0.068945
      h+1     :     0.020276
      h-1     :     0.020276
      h+2     :     0.000000
      h-2     :     0.000000
      h+3     :     0.000000
      h-3     :     0.000000
      h+4     :     0.000000
      h-4     :     0.000000
      h+5     :     0.000000
      h-5     :     0.000000
  2 F s       :     3.335011  s :     3.335011
      pz      :     1.538200  p :     4.801343
      px      :     1.631571
      py      :     1.631571
      dz2     :     0.103812  d :     0.294315
      dxz     :     0.095252
      dyz     :     0.095252
      dx2y2   :     0.000000
      dxy     :     0.000000
      f0      :     0.052935  f :     0.176372
      f+1     :     0.061718
      f-1     :     0.061718
      f+2     :     0.000000
      f-2     :     0.000000
      f+3     :     0.000000
      f-3     :     0.000000
      g0      :     0.027124  g :     0.099705
      g+1     :     0.036291
      g-1     :     0.036291
      g+2     :     0.000000
      g-2     :     0.000000
      g+3     :     0.000000
      g-3     :     0.000000
      g+4     :     0.000000
      g-4     :     0.000000
      h0      :     0.013159  h :     0.056442
      h+1     :     0.021642
      h-1     :     0.021642
      h+2     :     0.000000
      h-2     :     0.000000
      h+3     :     0.000000
      h-3     :     0.000000
      h+4     :     0.000000
      h-4     :     0.000000
      h+5     :     0.000000
      h-5     :     0.000000
  3 H s       :     0.755582  s :     0.755582
      pz      :     0.165890  p :     0.344343
      px      :     0.089227
      py      :     0.089227
      dz2     :     0.080765  d :     0.245403
      dxz     :     0.082319
      dyz     :     0.082319
      dx2y2   :     0.000000
      dxy     :     0.000000
      f0      :     0.041024  f :     0.111736
      f+1     :     0.035356
      f-1     :     0.035356
      f+2     :     0.000000
      f-2     :     0.000000
      f+3     :     0.000000
      f-3     :     0.000000
      g0      :     0.022515  g :     0.063771
      g+1     :     0.020628
      g-1     :     0.020628
      g+2     :     0.000000
      g-2     :     0.000000
      g+3     :     0.000000
      g-3     :     0.000000
      g+4     :     0.000000
      g-4     :     0.000000

SPIN
  0 C s       :    -0.000000  s :    -0.000000
      pz      :     0.000000  p :    -0.000000
      px      :    -0.000000
      py      :    -0.000000
      dz2     :     0.000000  d :     0.000000
      dxz     :    -0.000000
      dyz     :     0.000000
      dx2y2   :     0.000000
      dxy     :    -0.000000
      f0      :     0.000000  f :     0.000000
      f+1     :     0.000000
      f-1     :    -0.000000
      f+2     :    -0.000000
      f-2     :     0.000000
      f+3     :    -0.000000
      f-3     :     0.000000
      g0      :    -0.000000  g :    -0.000000
      g+1     :     0.000000
      g-1     :     0.000000
      g+2     :    -0.000000
      g-2     :     0.000000
      g+3     :     0.000000
      g-3     :    -0.000000
      g+4     :     0.000000
      g-4     :    -0.000000
      h0      :     0.000000  h :     0.000000
      h+1     :     0.000000
      h-1     :    -0.000000
      h+2     :    -0.000000
      h-2     :     0.000000
      h+3     :    -0.000000
      h-3     :     0.000000
      h+4     :     0.000000
      h-4     :    -0.000000
      h+5     :     0.000000
      h-5     :    -0.000000
  1 C s       :    -0.000000  s :    -0.000000
      pz      :     0.000000  p :     0.000000
      px      :     0.000000
      py      :     0.000000
      dz2     :    -0.000000  d :    -0.000000
      dxz     :     0.000000
      dyz     :    -0.000000
      dx2y2   :     0.000000
      dxy     :     0.000000
      f0      :    -0.000000  f :    -0.000000
      f+1     :     0.000000
      f-1     :    -0.000000
      f+2     :     0.000000
      f-2     :     0.000000
      f+3     :    -0.000000
      f-3     :     0.000000
      g0      :     0.000000  g :     0.000000
      g+1     :     0.000000
      g-1     :    -0.000000
      g+2     :     0.000000
      g-2     :     0.000000
      g+3     :     0.000000
      g-3     :    -0.000000
      g+4     :     0.000000
      g-4     :    -0.000000
      h0      :     0.000000  h :     0.000000
      h+1     :    -0.000000
      h-1     :     0.000000
      h+2     :     0.000000
      h-2     :    -0.000000
      h+3     :    -0.000000
      h-3     :    -0.000000
      h+4     :     0.000000
      h-4     :     0.000000
      h+5     :    -0.000000
      h-5     :    -0.000000
  2 F s       :    -0.000000  s :    -0.000000
      pz      :    -0.000000  p :    -0.000000
      px      :     0.000000
      py      :     0.000000
      dz2     :    -0.000000  d :    -0.000000
      dxz     :    -0.000000
      dyz     :    -0.000000
      dx2y2   :    -0.000000
      dxy     :     0.000000
      f0      :    -0.000000  f :    -0.000000
      f+1     :     0.000000
      f-1     :     0.000000
      f+2     :     0.000000
      f-2     :    -0.000000
      f+3     :     0.000000
      f-3     :    -0.000000
      g0      :     0.000000  g :     0.000000
      g+1     :    -0.000000
      g-1     :    -0.000000
      g+2     :     0.000000
      g-2     :    -0.000000
      g+3     :    -0.000000
      g-3     :     0.000000
      g+4     :     0.000000
      g-4     :    -0.000000
      h0      :    -0.000000  h :     0.000000
      h+1     :     0.000000
      h-1     :     0.000000
      h+2     :    -0.000000
      h-2     :     0.000000
      h+3     :     0.000000
      h-3     :    -0.000000
      h+4     :    -0.000000
      h-4     :     0.000000
      h+5     :     0.000000
      h-5     :    -0.000000
  3 H s       :    -0.000000  s :    -0.000000
      pz      :     0.000000  p :     0.000000
      px      :    -0.000000
      py      :    -0.000000
      dz2     :     0.000000  d :     0.000000
      dxz     :    -0.000000
      dyz     :     0.000000
      dx2y2   :    -0.000000
      dxy     :     0.000000
      f0      :    -0.000000  f :    -0.000000
      f+1     :     0.000000
      f-1     :    -0.000000
      f+2     :    -0.000000
      f-2     :     0.000000
      f+3     :     0.000000
      f-3     :    -0.000000
      g0      :    -0.000000  g :    -0.000000
      g+1     :     0.000000
      g-1     :     0.000000
      g+2     :     0.000000
      g-2     :    -0.000000
      g+3     :    -0.000000
      g-3     :     0.000000
      g+4     :     0.000000
      g-4     :     0.000000


                      *****************************
                      * MAYER POPULATION ANALYSIS *
                      *****************************

  NA   - Mulliken gross atomic population
  ZA   - Total nuclear charge
  QA   - Mulliken gross atomic charge
  VA   - Mayer's total valence
  BVA  - Mayer's bonded valence
  FA   - Mayer's free valence

  ATOM       NA         ZA         QA         VA         BVA        FA
  0 C      5.0996     6.0000     0.9004     3.3217     3.3217     0.0000
  1 C      6.3082     6.0000    -0.3082     4.1694     4.1694    -0.0000
  2 F      9.6790     9.0000    -0.6790     0.5278     0.5278    -0.0000
  3 H      0.9132     1.0000     0.0868     1.1123     1.1123    -0.0000

  Mayer bond orders larger than 0.1
B(  0-C ,  1-C ) :   2.7832 B(  0-C ,  2-F ) :   0.4340 B(  0-C ,  3-H ) :   0.1044 
B(  1-C ,  2-F ) :   0.2361 B(  1-C ,  3-H ) :   1.1502 B(  2-F ,  3-H ) :  -0.1423 


-------
TIMINGS
-------

Total SCF time: 0 days 0 hours 47 min 46 sec 

Total time                  ....    2866.609 sec
Sum of individual times     ....    2865.245 sec  (100.0%)

Fock matrix formation       ....    2854.761 sec  ( 99.6%)
  XC integration            ....      73.879 sec  (  2.6% of F)
    Basis function eval.    ....       4.159 sec  (  5.6% of XC)
    Density eval.           ....      21.595 sec  ( 29.2% of XC)
    XC-Functional eval.     ....       0.407 sec  (  0.6% of XC)
    XC-Potential eval.      ....      45.776 sec  ( 62.0% of XC)
Diagonalization             ....       3.461 sec  (  0.1%)
Density matrix formation    ....       0.060 sec  (  0.0%)
Population analysis         ....       0.248 sec  (  0.0%)
Initial guess               ....       2.634 sec  (  0.1%)
Orbital Transformation      ....       0.000 sec  (  0.0%)
Orbital Orthonormalization  ....       0.000 sec  (  0.0%)
DIIS solution               ....       1.787 sec  (  0.1%)
Grid generation             ....       2.294 sec  (  0.1%)

-------------------------   --------------------
FINAL SINGLE POINT ENERGY      -176.440486981696
-------------------------   --------------------


                            ***************************************
                            *     ORCA property calculations      *
                            ***************************************

                                    ---------------------
                                    Active property flags
                                    ---------------------
   (+) Dipole Moment
   (+) Polarizability


------------------------------------------------------------------------------
                       ORCA ELECTRIC PROPERTIES CALCULATION
------------------------------------------------------------------------------

Dipole Moment Calculation                       ... on
Quadrupole Moment Calculation                   ... off
Polarizability Calculation                      ... Analytic (CP-SCF)
GBWName                                         ... hccf_pbe.gbw
Electron density file                           ... hccf_pbe.scfp.tmp
The origin for moment calculation is the CENTER OF MASS  = ( 0.000000,  0.000000  0.149915)

-------------
DIPOLE MOMENT
-------------
                                X             Y             Z
Electronic contribution:      0.00000      -0.00000       3.11668
Nuclear contribution   :      0.00000       0.00000      -3.29889
                        -----------------------------------------
Total Dipole Moment    :      0.00000      -0.00000      -0.18222
                        -----------------------------------------
Magnitude (a.u.)       :      0.18222
Magnitude (Debye)      :      0.46315



--------------------
Rotational spectrum 
--------------------
 
Rotational constants in cm-1:     0.000000     0.323578     0.323578 
Rotational constants in MHz :     0.000000  9700.619028  9700.619028 

 Dipole components along the rotational axes: 
x,y,z [a.u.] :    -0.182215    -0.000000     0.000000 
x,y,z [Debye]:    -0.463154    -0.000000     0.000000 

 
Transforming and storing MO dipole integrals   ... done

                ... starting polarizability calculation

Opening the Dipole integral file               ... (hccf_pbe.dmo.tmp) done
Reading Dipole-MO integrals                    ... done
Solving CP-SCF equations                       ... 

           ************************************************************
           *        Program running with 4 parallel MPI-processes     *
           *              working on a common directory               *
           ************************************************************

------------------------------------------------------------------------------
                           ORCA CP-SCF CALCULATION
------------------------------------------------------------------------------

Input orbitals are from        ... hccf_pbe.gbw
Input Perturbation             ... hccf_pbe.cpv.tmp
Wavefunction output            ... hccf_pbe.cpu.tmp
Perturbation mode              ... Real perturbation (singlet)
Solver                         ... POPLE
Max. number of iterations      ... 200
Convergence tolerance          ... 1.000e-06
Integral handling              ... Direct
Number of perturbations        ... 3
Number of operators            ... 2
Orbital ranges used for CP-SCF:
 Operator 0:  Orbitals   0... 10  to  11...522
 Operator 1:  Orbitals   0... 10  to  11...522
DFT calculation                         ... on
Exchange functional (SCF)               ... PBE
Exchange functional (CP-SCF)            ... PBE
   PBE kappa parameter  XKappa (SCF)    ...  0.804000
   PBE kappa parameter  XKappa (CP-SCF) ...  0.804000
   PBE mue parameter   XMuePBE (SCF)    ...  0.219520
   PBE mue parameter   XMuePBE (CP-SCF) ...  0.219520
Correlation functional (SCF)            ... PBE
Correlation functional (CP-SCF)         ... PBE
   PBE beta parameter CBetaPBE (SCF)    ...  0.066725
   PBE beta parameter CBetaPBE (CP-SCF) ...  0.066725
 LDA part of GGA corr.  LDAOpt (SCF)    ... PW91-LDA
 LDA part of GGA corr.  LDAOpt (CP-SCF) ... PW91-LDA
Variables per vector in CP-SCF ... 11264
Number of vectors sought       ... 3
Recalculating density on grid  ... done
Calculating the xc-kernel      ... done
     CP-SCF ITERATION   0: 
     CP-SCF ITERATION   1:      0.348203605092
     CP-SCF ITERATION   2:      0.043628280437
     CP-SCF ITERATION   3:      0.004239784697
     CP-SCF ITERATION   4:      0.000137559273
     CP-SCF ITERATION   5:      0.000001704156
     CP-SCF ITERATION   6:      0.000000522168
done
Reading CP-SCF coefficients                    ... done
Doing the polarizability tensor   ... done
Cleaning up                                    ... done

-------------------------
THE POLARIZABILITY TENSOR
-------------------------

The raw cartesian tensor (atomic units):
   20.13251     -0.00000      0.00000  
   -0.00000     20.13251      0.00000  
    0.00000      0.00000     34.53436  
diagonalized tensor: 
   20.13251     20.13251     34.53436  

   -0.94078      0.33901      0.00000  
   -0.33901     -0.94078      0.00000  
    0.00000      0.00000      1.00000  

Isotropic polarizability :  24.93312


Timings for individual modules:

Sum of individual times         ...     4955.187 sec (=  82.586 min)
GTO integral calculation        ...       11.075 sec (=   0.185 min)   0.2 %
SCF iterations                  ...     2873.094 sec (=  47.885 min)  58.0 %
Solution of CP-SCF eqns.        ...     2071.018 sec (=  34.517 min)  41.8 %
                             ****ORCA TERMINATED NORMALLY****
TOTAL RUN TIME: 0 days 1 hours 22 minutes 36 seconds 265 msec
