
                                 *****************
                                 * O   R   C   A *
                                 *****************

           --- An Ab Initio, DFT and Semiempirical electronic structure package ---

                  #######################################################
                  #                        -***-                        #
                  #          Department of theory and spectroscopy      #
                  #               Directorship: Frank Neese             #
                  #        Max Planck Institute fuer Kohlenforschung    #
                  #                Kaiser Wilhelm Platz 1               #
                  #                 D-45470 Muelheim/Ruhr               #
                  #                      Germany                        #
                  #                                                     #
                  #                  All rights reserved                #
                  #                        -***-                        #
                  #######################################################


                         Program Version 4.1.2  - RELEASE  -


 With contributions from (in alphabetic order):
   Daniel Aravena         : Magnetic Properties
   Michael Atanasov       : Ab Initio Ligand Field Theory
   Alexander A. Auer      : GIAO ZORA
   Ute Becker             : Parallelization
   Giovanni Bistoni       : ED, Open-shell LED
   Martin Brehm           : Molecular dynamics
   Dmytro Bykov           : SCF Hessian
   Vijay G. Chilkuri      : MRCI spin determinant printing
   Dipayan Datta          : RHF DLPNO-CCSD density
   Achintya Kumar Dutta   : EOM-CC, STEOM-CC
   Dmitry Ganyushin       : Spin-Orbit,Spin-Spin,Magnetic field MRCI
   Miquel Garcia          : C-PCM Hessian
   Yang Guo               : DLPNO-NEVPT2, CIM, IAO-localization
   Andreas Hansen         : Spin unrestricted coupled pair/coupled cluster methods
   Benjamin Helmich-Paris : CASSCF linear response (MC-RPA)
   Lee Huntington         : MR-EOM, pCC
   Robert Izsak           : Overlap fitted RIJCOSX, COSX-SCS-MP3, EOM
   Christian Kollmar      : KDIIS, OOCD, Brueckner-CCSD(T), CCSD density
   Simone Kossmann        : Meta GGA functionals, TD-DFT gradient, OOMP2, MP2 Hessian
   Martin Krupicka        : AUTO-CI
   Lucas Lang             : DCDCAS
   Dagmar Lenk            : GEPOL surface, SMD
   Dimitrios Liakos       : Extrapolation schemes; parallel MDCI
   Dimitrios Manganas     : ROCIS; embedding schemes
   Dimitrios Pantazis     : SARC Basis sets
   Taras Petrenko         : DFT Hessian,TD-DFT gradient, ASA, ECA, R-Raman, ABS, FL, XAS/XES, NRVS
   Peter Pinski           : DLPNO-MP2, DLPNO-MP2 Gradient
   Christoph Reimann      : Effective Core Potentials
   Marius Retegan         : Local ZFS, SOC
   Christoph Riplinger    : Optimizer, TS searches, QM/MM, DLPNO-CCSD(T), (RO)-DLPNO pert. Triples
   Tobias Risthaus        : Range-separated hybrids, TD-DFT gradient, RPA, STAB
   Michael Roemelt        : Restricted open shell CIS
   Masaaki Saitow         : Open-shell DLPNO
   Barbara Sandhoefer     : DKH picture change effects
   Avijit Sen             : IP-ROCIS
   Kantharuban Sivalingam : CASSCF convergence, NEVPT2, FIC-MRCI
   Bernardo de Souza      : ESD, SOC TD-DFT
   Georgi Stoychev        : AutoAux, RI-MP2 NMR
   Willem Van den Heuvel  : Paramagnetic NMR
   Boris Wezisla          : Elementary symmetry handling
   Frank Wennmohs         : Technical directorship


 We gratefully acknowledge several colleagues who have allowed us to
 interface, adapt or use parts of their codes:
   Stefan Grimme, W. Hujo, H. Kruse,             : VdW corrections, initial TS optimization,
                  C. Bannwarth                     DFT functionals, gCP, sTDA/sTD-DF
   Ed Valeev                                     : LibInt (2-el integral package), F12 methods
   Garnet Chan, S. Sharma, J. Yang, R. Olivares  : DMRG
   Ulf Ekstrom                                   : XCFun DFT Library
   Mihaly Kallay                                 : mrcc  (arbitrary order and MRCC methods)
   Andreas Klamt, Michael Diedenhofen            : otool_cosmo (COSMO solvation model)
   Jiri Pittner, Ondrej Demel                    : Mk-CCSD
   Frank Weinhold                                : gennbo (NPA and NBO analysis)
   Christopher J. Cramer and Donald G. Truhlar   : smd solvation model
   Lars Goerigk                                  : TD-DFT with DH, B97 family of functionals
   V. Asgeirsson, H. Jonsson                     : NEB implementation
   FAccTs GmbH                                   : IRC, NEB, NEB-TS, Multilevel


 Your calculation uses the libint2 library for the computation of 2-el integrals
 For citations please refer to: http://libint.valeyev.net

 This ORCA versions uses:
   CBLAS   interface :  Fast vector & matrix operations
   LAPACKE interface :  Fast linear algebra routines
   SCALAPACK package :  Parallel linear algebra routines


----- Orbital basis set information -----
Your calculation utilizes the basis: aug-pc-4
   H, C-F              : F. Jensen, J. Chem. Phys. 115, 9113 (2001).
                         F. Jensen, J. Chem. Phys. 116, 7372 (2002).
                         F. Jensen, J. Chem. Phys. 117, 9234 (2002).
   Si-Cl               : F. Jensen, T. Helgaker, J. Chem. Phys. 121, 3463 (2004).
   He-B, Ne-Mg, Al, Ar : F. Jensen, J. Phys. Chem. A 111, 11198 (2007).
   K, Ca, Ga-Kr        : F. Jensen, J. Chem. Phys. 136, 094110 (2012).
   Sc-Zn               : F. Jensen, J. Chem. Phys. 138, 014107 (2013).

================================================================================
                                        WARNINGS
                       Please study these warnings very carefully!
================================================================================


INFO   : the flag for use of LIBINT has been found!

================================================================================
                                       INPUT FILE
================================================================================
NAME = hcho_pbe.inp
|  1> !uks pbe nori aug-pc-4 grid7 nofinalgrid verytightscf
|  2> 
|  3> %maxcore 1500
|  4> 
|  5> %pal nprocs 1 end
|  6> 
|  7> %scf
|  8> 	maxiter 200
|  9> end
| 10> %elprop
| 11> 	dipole true
| 12> 	 polar 1
| 13> 	 maxiter 200
| 14> end
| 15> 
| 16> * xyz 0 1
| 17> O 0.0000 0.0000 1.2050
| 18> C 0.0000 0.0000 0.0000
| 19> H 0.0000 0.9429 -0.5876
| 20> H 0.0000 -0.9429 -0.5876
| 21> *
| 22> 
| 23>                          ****END OF INPUT****
================================================================================

                       ****************************
                       * Single Point Calculation *
                       ****************************

---------------------------------
CARTESIAN COORDINATES (ANGSTROEM)
---------------------------------
  O      0.000000    0.000000    1.205000
  C      0.000000    0.000000    0.000000
  H      0.000000    0.942900   -0.587600
  H      0.000000   -0.942900   -0.587600

----------------------------
CARTESIAN COORDINATES (A.U.)
----------------------------
  NO LB      ZA    FRAG     MASS         X           Y           Z
   0 O     8.0000    0    15.999    0.000000    0.000000    2.277120
   1 C     6.0000    0    12.011    0.000000    0.000000    0.000000
   2 H     1.0000    0     1.008    0.000000    1.781823   -1.110403
   3 H     1.0000    0     1.008    0.000000   -1.781823   -1.110403

--------------------------------
INTERNAL COORDINATES (ANGSTROEM)
--------------------------------
 O      0   0   0     0.000000000000     0.00000000     0.00000000
 C      1   0   0     1.205000000000     0.00000000     0.00000000
 H      2   1   0     1.111005927077   121.93049181     0.00000000
 H      2   1   3     1.111005927077   121.93049181   180.00000000

---------------------------
INTERNAL COORDINATES (A.U.)
---------------------------
 O      0   0   0     0.000000000000     0.00000000     0.00000000
 C      1   0   0     2.277119991375     0.00000000     0.00000000
 H      2   1   0     2.099496935339   121.93049181     0.00000000
 H      2   1   3     2.099496935339   121.93049181   180.00000000

---------------------
BASIS SET INFORMATION
---------------------
There are 3 groups of distinct atoms

 Group   1 Type O   : 27s12p7d4f3g2h contracted to 9s8p7d4f3g2h pattern {1191111111/51111111/1111111/1111/111/11}
 Group   2 Type C   : 28s12p7d4f3g2h contracted to 9s8p7d4f3g2h pattern {11101111111/51111111/1111111/1111/111/11}
 Group   3 Type H   : 12s7p4d3f2g contracted to 8s7p4d3f2g pattern {51111111/1111111/1111/111/11}

Atom   0O    basis set group =>   1
Atom   1C    basis set group =>   2
Atom   2H    basis set group =>   3
Atom   3H    basis set group =>   3
------------------------------------------------------------------------------
                           ORCA GTO INTEGRAL CALCULATION
------------------------------------------------------------------------------

                         BASIS SET STATISTICS AND STARTUP INFO

 # of primitive gaussian shells          ...  167
 # of primitive gaussian functions       ...  535
 # of contracted shells                  ...  114
 # of contracted basis functions         ...  466
 Highest angular momentum                ...    5
 Maximum contraction depth               ...   11
 Integral package used                   ... LIBINT
 Integral threshhold            Thresh   ...  1.000e-12
 Primitive cut-off              TCut     ...  1.000e-14


------------------------------ INTEGRAL EVALUATION ----------------------------


 * One electron integrals 
 Pre-screening matrix                    ... done
 Shell pair data                         ... done (   0.002 sec)

-------------------------------------------------------------------------------
                                 ORCA SCF
-------------------------------------------------------------------------------

------------
SCF SETTINGS
------------
Hamiltonian:
 Density Functional     Method          .... DFT(GTOs)
 Exchange Functional    Exchange        .... PBE
   PBE kappa parameter   XKappa         ....  0.804000
   PBE mue parameter    XMuePBE         ....  0.219520
 Correlation Functional Correlation     .... PBE
   PBE beta parameter  CBetaPBE         ....  0.066725
 LDA part of GGA corr.  LDAOpt          .... PW91-LDA
 Gradients option       PostSCFGGA      .... off
   Density functional embedding theory  .... OFF
   NL short-range parameter             ....  6.400000


General Settings:
 Integral files         IntName         .... hcho_pbe
 Hartree-Fock type      HFTyp           .... UHF
 Total Charge           Charge          ....    0
 Multiplicity           Mult            ....    1
 Number of Electrons    NEL             ....   16
 Basis Dimension        Dim             ....  466
 Nuclear Repulsion      ENuc            ....     31.2557348557 Eh

Convergence Acceleration:
 DIIS                   CNVDIIS         .... on
   Start iteration      DIISMaxIt       ....    12
   Startup error        DIISStart       ....  0.200000
   # of expansion vecs  DIISMaxEq       ....     5
   Bias factor          DIISBfac        ....   1.050
   Max. coefficient     DIISMaxC        ....  10.000
 Newton-Raphson         CNVNR           .... off
 SOSCF                  CNVSOSCF        .... off
 Level Shifting         CNVShift        .... on
   Level shift para.    LevelShift      ....    0.2500
   Turn off err/grad.   ShiftErr        ....    0.0010
 Zerner damping         CNVZerner       .... off
 Static damping         CNVDamp         .... on
   Fraction old density DampFac         ....    0.7000
   Max. Damping (<1)    DampMax         ....    0.9800
   Min. Damping (>=0)   DampMin         ....    0.0000
   Turn off err/grad.   DampErr         ....    0.1000
 Fernandez-Rico         CNVRico         .... off

SCF Procedure:
 Maximum # iterations   MaxIter         ....   200
 SCF integral mode      SCFMode         .... Direct
   Integral package                     .... LIBINT
 Reset frequency        DirectResetFreq ....    20
 Integral Threshold     Thresh          ....  1.000e-12 Eh
 Primitive CutOff       TCut            ....  1.000e-14 Eh

Convergence Tolerance:
 Convergence Check Mode ConvCheckMode   .... Total+1el-Energy
 Convergence forced     ConvForced      .... 0
 Energy Change          TolE            ....  1.000e-09 Eh
 1-El. energy change                    ....  1.000e-06 Eh
 DIIS Error             TolErr          ....  1.000e-08


Diagonalization of the overlap matrix:
Smallest eigenvalue                        ... 1.744e-07
Time for diagonalization                   ...    0.145 sec
Threshold for overlap eigenvalues          ... 1.000e-08
Number of eigenvalues below threshold      ... 0
Time for construction of square roots      ...    0.030 sec
Total time needed                          ...    0.177 sec

-------------------
DFT GRID GENERATION
-------------------

General Integration Accuracy     IntAcc      ...  5.670
Radial Grid Type                 RadialGrid  ... Gauss-Chebyshev
Angular Grid (max. acc.)         AngularGrid ... Lebedev-770
Angular grid pruning method      GridPruning ... 3 (G Style)
Weight generation scheme         WeightScheme... Becke
Basis function cutoff            BFCut       ...    1.0000e-12
Integration weight cutoff        WCut        ...    1.0000e-14
Grids for H and He will be reduced by one unit

# of grid points (after initial pruning)     ...  85716 (   0.0 sec)
# of grid points (after weights+screening)   ...  84050 (   0.0 sec)
nearest neighbour list constructed           ...    0.0 sec
Grid point re-assignment to atoms done       ...    0.0 sec
Grid point division into batches done        ...    1.6 sec
Reduced shell lists constructed in    2.8 sec

Total number of grid points                  ...    84050
Total number of batches                      ...     1316
Average number of points per batch           ...       63
Average number of grid points per atom       ...    21012
Average number of shells per batch           ...    84.87 (74.44%)
Average number of basis functions per batch  ...   357.45 (76.71%)
Average number of large shells per batch     ...    75.54 (89.01%)
Average number of large basis fcns per batch ...   318.60 (89.13%)
Maximum spatial batch extension              ...  25.85, 23.34, 21.86 au
Average spatial batch extension              ...   2.26,  2.10,  2.10 au

Time for grid setup =    2.859 sec

------------------------------
INITIAL GUESS: MODEL POTENTIAL
------------------------------
Loading Hartree-Fock densities                     ... done
Calculating cut-offs                               ... done
Setting up the integral package                    ... done
Initializing the effective Hamiltonian             ... done
Starting the Coulomb interaction                   ... done (   0.2 sec)
Reading the grid                                   ... done
Mapping shells                                     ... done
Starting the XC term evaluation                    ... done (   7.9 sec)
  promolecular density results
     # of electrons  =     15.999020467
     EX              =    -13.800697194
     EC              =     -0.510333639
     EX+EC           =    -14.311030833
Transforming the Hamiltonian                       ... done (   0.0 sec)
Diagonalizing the Hamiltonian                      ... done (   0.1 sec)
Back transforming the eigenvectors                 ... done (   0.0 sec)
Now organizing SCF variables                       ... done
                      ------------------
                      INITIAL GUESS DONE (  11.1 sec)
                      ------------------
--------------
SCF ITERATIONS
--------------
ITER       Energy         Delta-E        Max-DP      RMS-DP      [F,P]     Damp
               ***  Starting incremental Fock matrix formation  ***
  0   -114.3522904912   0.000000000000 0.01924822  0.00020920  0.2732204 0.7000
  1   -114.3942560733  -0.041965582097 0.00977664  0.00011486  0.0668468 0.7000
                               ***Turning on DIIS***
  2   -114.4016092261  -0.007353152743 0.01518584  0.00016655  0.0358449 0.0000
  3   -114.4273141046  -0.025704878561 0.00622910  0.00007337  0.0298291 0.0000
  4   -114.4283125410  -0.000998436408 0.00212264  0.00002413  0.0305890 0.0000
  5   -114.4291941963  -0.000881655255 0.00217633  0.00001754  0.0072398 0.0000
  6   -114.4292452047  -0.000051008427 0.00129627  0.00001005  0.0019971 0.0000
  7   -114.4292486394  -0.000003434696 0.00129582  0.00000983  0.0005706 0.0000
  8   -114.4292489690  -0.000000329571 0.00001152  0.00000017  0.0001205 0.0000
  9   -114.4292489758  -0.000000006874 0.00000752  0.00000009  0.0000705 0.0000
 10   -114.4292489820  -0.000000006162 0.00005418  0.00000040  0.0000056 0.0000
                 **** Energy Check signals convergence ****

               *****************************************************
               *                     SUCCESS                       *
               *           SCF CONVERGED AFTER  11 CYCLES          *
               *****************************************************


----------------
TOTAL SCF ENERGY
----------------

Total Energy       :         -114.42924898 Eh           -3113.77817 eV

Components:
Nuclear Repulsion  :           31.25573486 Eh             850.51178 eV
Electronic Energy  :         -145.68498384 Eh           -3964.28995 eV
One Electron Energy:         -217.42341681 Eh           -5916.39195 eV
Two Electron Energy:           71.73843297 Eh            1952.10200 eV

Virial components:
Potential Energy   :         -228.46036760 Eh           -6216.72265 eV
Kinetic Energy     :          114.03111862 Eh            3102.94449 eV
Virial Ratio       :            2.00349142


DFT components:
N(Alpha)           :        7.999999809483 electrons
N(Beta)            :        7.999999809483 electrons
N(Total)           :       15.999999618965 electrons
E(X)               :      -14.048781602461 Eh       
E(C)               :       -0.514303963255 Eh       
E(XC)              :      -14.563085565716 Eh       
DFET-embed. en.    :        0.000000000000 Eh       

---------------
SCF CONVERGENCE
---------------

  Last Energy change         ...   -4.6526e-11  Tolerance :   1.0000e-09
  Last MAX-Density change    ...    3.5241e-05  Tolerance :   1.0000e-08
  Last RMS-Density change    ...    2.6571e-07  Tolerance :   1.0000e-09
  Last DIIS Error            ...    1.1531e-06  Tolerance :   1.0000e-08

             **** THE GBW FILE WAS UPDATED (hcho_pbe.gbw) ****
             **** DENSITY FILE WAS UPDATED (hcho_pbe.scfp.tmp) ****
             **** ENERGY FILE WAS UPDATED (hcho_pbe.en.tmp) ****
----------------------
UHF SPIN CONTAMINATION
----------------------

Warning: in a DFT calculation there is little theoretical justification to 
         calculate <S**2> as in Hartree-Fock theory. We will do it anyways
         but you should keep in mind that the values have only limited relevance

Expectation value of <S**2>     :    -0.000000
Ideal value S*(S+1) for S=0.0   :     0.000000
Deviation                       :    -0.000000

----------------
ORBITAL ENERGIES
----------------
                 SPIN UP ORBITALS
  NO   OCC          E(Eh)            E(eV) 
   0   1.0000     -18.773339      -510.8485 
   1   1.0000      -9.983594      -271.6674 
   2   1.0000      -0.980094       -26.6697 
   3   1.0000      -0.577749       -15.7213 
   4   1.0000      -0.447453       -12.1758 
   5   1.0000      -0.404328       -11.0023 
   6   1.0000      -0.371480       -10.1085 
   7   1.0000      -0.230155        -6.2628 
   8   0.0000      -0.098728        -2.6865 
   9   0.0000      -0.016955        -0.4614 
  10   0.0000       0.009956         0.2709 
  11   0.0000       0.011824         0.3217 
  12   0.0000       0.018520         0.5039 
  13   0.0000       0.037032         1.0077 
  14   0.0000       0.037295         1.0149 
  15   0.0000       0.050885         1.3847 
  16   0.0000       0.054575         1.4851 
  17   0.0000       0.057862         1.5745 
  18   0.0000       0.058774         1.5993 
  19   0.0000       0.060748         1.6530 
  20   0.0000       0.072745         1.9795 
  21   0.0000       0.080421         2.1884 
  22   0.0000       0.092926         2.5287 
  23   0.0000       0.108931         2.9642 
  24   0.0000       0.118340         3.2202 
  25   0.0000       0.125206         3.4070 
  26   0.0000       0.127710         3.4752 
  27   0.0000       0.128998         3.5102 
  28   0.0000       0.132408         3.6030 
  29   0.0000       0.133808         3.6411 
  30   0.0000       0.133969         3.6455 
  31   0.0000       0.140175         3.8144 
  32   0.0000       0.151578         4.1246 
  33   0.0000       0.153227         4.1695 
  34   0.0000       0.170656         4.6438 
  35   0.0000       0.183027         4.9804 
  36   0.0000       0.189943         5.1686 
  37   0.0000       0.192414         5.2359 
  38   0.0000       0.205860         5.6017 
  39   0.0000       0.220545         6.0013 
  40   0.0000       0.220736         6.0065 
  41   0.0000       0.234091         6.3699 
  42   0.0000       0.237239         6.4556 
  43   0.0000       0.239864         6.5270 
  44   0.0000       0.248358         6.7582 
  45   0.0000       0.252968         6.8836 
  46   0.0000       0.253145         6.8884 
  47   0.0000       0.256984         6.9929 
  48   0.0000       0.260057         7.0765 
  49   0.0000       0.266312         7.2467 
  50   0.0000       0.273028         7.4295 
  51   0.0000       0.284138         7.7318 
  52   0.0000       0.293355         7.9826 
  53   0.0000       0.294240         8.0067 
  54   0.0000       0.294325         8.0090 
  55   0.0000       0.294389         8.0107 
  56   0.0000       0.299499         8.1498 
  57   0.0000       0.302864         8.2414 
  58   0.0000       0.306072         8.3286 
  59   0.0000       0.321489         8.7482 
  60   0.0000       0.332565         9.0496 
  61   0.0000       0.334021         9.0892 
  62   0.0000       0.363394         9.8885 
  63   0.0000       0.364391         9.9156 
  64   0.0000       0.368798        10.0355 
  65   0.0000       0.369794        10.0626 
  66   0.0000       0.392526        10.6812 
  67   0.0000       0.395260        10.7556 
  68   0.0000       0.401721        10.9314 
  69   0.0000       0.402489        10.9523 
  70   0.0000       0.410838        11.1795 
  71   0.0000       0.417872        11.3709 
  72   0.0000       0.421958        11.4820 
  73   0.0000       0.421986        11.4828 
  74   0.0000       0.437401        11.9023 
  75   0.0000       0.442133        12.0310 
  76   0.0000       0.459134        12.4937 
  77   0.0000       0.460610        12.5338 
  78   0.0000       0.469580        12.7779 
  79   0.0000       0.477608        12.9964 
  80   0.0000       0.485354        13.2072 
  81   0.0000       0.488098        13.2818 
  82   0.0000       0.488470        13.2919 
  83   0.0000       0.499310        13.5869 
  84   0.0000       0.500910        13.6305 
  85   0.0000       0.505697        13.7607 
  86   0.0000       0.512832        13.9549 
  87   0.0000       0.518595        14.1117 
  88   0.0000       0.522730        14.2242 
  89   0.0000       0.527860        14.3638 
  90   0.0000       0.539212        14.6727 
  91   0.0000       0.544717        14.8225 
  92   0.0000       0.550290        14.9741 
  93   0.0000       0.557883        15.1808 
  94   0.0000       0.558410        15.1951 
  95   0.0000       0.578874        15.7520 
  96   0.0000       0.588241        16.0069 
  97   0.0000       0.593660        16.1543 
  98   0.0000       0.599184        16.3046 
  99   0.0000       0.604492        16.4491 
 100   0.0000       0.604914        16.4605 
 101   0.0000       0.610407        16.6100 
 102   0.0000       0.618038        16.8177 
 103   0.0000       0.624418        16.9913 
 104   0.0000       0.637709        17.3530 
 105   0.0000       0.641129        17.4460 
 106   0.0000       0.652063        17.7435 
 107   0.0000       0.653923        17.7941 
 108   0.0000       0.658277        17.9126 
 109   0.0000       0.660572        17.9751 
 110   0.0000       0.663944        18.0668 
 111   0.0000       0.703552        19.1446 
 112   0.0000       0.717149        19.5146 
 113   0.0000       0.720367        19.6022 
 114   0.0000       0.735294        20.0084 
 115   0.0000       0.737621        20.0717 
 116   0.0000       0.755299        20.5527 
 117   0.0000       0.763536        20.7769 
 118   0.0000       0.768111        20.9014 
 119   0.0000       0.769129        20.9291 
 120   0.0000       0.773292        21.0424 
 121   0.0000       0.776866        21.1396 
 122   0.0000       0.784965        21.3600 
 123   0.0000       0.787082        21.4176 
 124   0.0000       0.802465        21.8362 
 125   0.0000       0.810581        22.0570 
 126   0.0000       0.810823        22.0636 
 127   0.0000       0.823904        22.4196 
 128   0.0000       0.826714        22.4960 
 129   0.0000       0.831221        22.6187 
 130   0.0000       0.847447        23.0602 
 131   0.0000       0.848139        23.0790 
 132   0.0000       0.848355        23.0849 
 133   0.0000       0.851774        23.1779 
 134   0.0000       0.861177        23.4338 
 135   0.0000       0.870998        23.7011 
 136   0.0000       0.871841        23.7240 
 137   0.0000       0.880503        23.9597 
 138   0.0000       0.888669        24.1819 
 139   0.0000       0.890646        24.2357 
 140   0.0000       0.916822        24.9480 
 141   0.0000       0.918408        24.9911 
 142   0.0000       0.934273        25.4229 
 143   0.0000       0.957054        26.0428 
 144   0.0000       0.964285        26.2395 
 145   0.0000       0.973453        26.4890 
 146   0.0000       0.978886        26.6368 
 147   0.0000       0.980333        26.6762 
 148   0.0000       0.985876        26.8270 
 149   0.0000       0.992521        27.0079 
 150   0.0000       1.000939        27.2369 
 151   0.0000       1.021919        27.8078 
 152   0.0000       1.030389        28.0383 
 153   0.0000       1.035417        28.1751 
 154   0.0000       1.039267        28.2799 
 155   0.0000       1.073546        29.2127 
 156   0.0000       1.081736        29.4355 
 157   0.0000       1.094219        29.7752 
 158   0.0000       1.113451        30.2985 
 159   0.0000       1.117352        30.4047 
 160   0.0000       1.126506        30.6538 
 161   0.0000       1.129311        30.7301 
 162   0.0000       1.145294        31.1650 
 163   0.0000       1.194022        32.4910 
 164   0.0000       1.201790        32.7024 
 165   0.0000       1.202285        32.7158 
 166   0.0000       1.203658        32.7532 
 167   0.0000       1.230548        33.4849 
 168   0.0000       1.260241        34.2929 
 169   0.0000       1.273770        34.6610 
 170   0.0000       1.293290        35.1922 
 171   0.0000       1.308341        35.6018 
 172   0.0000       1.338982        36.4355 
 173   0.0000       1.351524        36.7768 
 174   0.0000       1.356042        36.8998 
 175   0.0000       1.436741        39.0957 
 176   0.0000       1.461261        39.7629 
 177   0.0000       1.463944        39.8359 
 178   0.0000       1.488642        40.5080 
 179   0.0000       1.544013        42.0147 
 180   0.0000       1.558351        42.4049 
 181   0.0000       1.560795        42.4714 
 182   0.0000       1.562028        42.5050 
 183   0.0000       1.628469        44.3129 
 184   0.0000       1.630129        44.3581 
 185   0.0000       1.662705        45.2445 
 186   0.0000       1.699811        46.2542 
 187   0.0000       1.706149        46.4267 
 188   0.0000       1.742129        47.4057 
 189   0.0000       1.777883        48.3786 
 190   0.0000       1.779344        48.4184 
 191   0.0000       1.829618        49.7864 
 192   0.0000       1.860975        50.6397 
 193   0.0000       1.893309        51.5196 
 194   0.0000       1.900046        51.7029 
 195   0.0000       1.933200        52.6051 
 196   0.0000       1.938121        52.7389 
 197   0.0000       1.982264        53.9401 
 198   0.0000       1.987881        54.0930 
 199   0.0000       2.039299        55.4921 
 200   0.0000       2.046601        55.6909 
 201   0.0000       2.110058        57.4176 
 202   0.0000       2.157614        58.7117 
 203   0.0000       2.216014        60.3008 
 204   0.0000       2.221481        60.4496 
 205   0.0000       2.223367        60.5009 
 206   0.0000       2.223812        60.5130 
 207   0.0000       2.267110        61.6912 
 208   0.0000       2.296787        62.4988 
 209   0.0000       2.314175        62.9719 
 210   0.0000       2.351152        63.9781 
 211   0.0000       2.382711        64.8369 
 212   0.0000       2.451535        66.7097 
 213   0.0000       2.472313        67.2751 
 214   0.0000       2.555997        69.5522 
 215   0.0000       2.563109        69.7457 
 216   0.0000       2.586042        70.3698 
 217   0.0000       2.616219        71.1909 
 218   0.0000       2.719845        74.0107 
 219   0.0000       2.774782        75.5057 
 220   0.0000       2.866811        78.0099 
 221   0.0000       2.976939        81.0066 
 222   0.0000       2.990031        81.3629 
 223   0.0000       3.039237        82.7018 
 224   0.0000       3.198498        87.0355 
 225   0.0000       3.211336        87.3849 
 226   0.0000       3.218279        87.5738 
 227   0.0000       3.331270        90.6485 
 228   0.0000       3.389812        92.2415 
 229   0.0000       3.432488        93.4027 
 230   0.0000       3.457935        94.0952 
 231   0.0000       3.476622        94.6037 
 232   0.0000       3.519785        95.7782 
 233   0.0000       3.540403        96.3393 
 234   0.0000       3.578161        97.3667 
 235   0.0000       3.638821        99.0174 
 236   0.0000       3.678610       100.1001 
 237   0.0000       3.743991       101.8792 
 238   0.0000       3.768087       102.5349 
 239   0.0000       3.810912       103.7002 
 240   0.0000       3.885369       105.7263 
 241   0.0000       3.927910       106.8839 
 242   0.0000       3.933132       107.0260 
 243   0.0000       3.989868       108.5698 
 244   0.0000       4.050879       110.2300 
 245   0.0000       4.106994       111.7570 
 246   0.0000       4.127027       112.3021 
 247   0.0000       4.152827       113.0042 
 248   0.0000       4.235927       115.2654 
 249   0.0000       4.328391       117.7815 
 250   0.0000       4.332855       117.9030 
 251   0.0000       4.335527       117.9757 
 252   0.0000       4.415809       120.1603 
 253   0.0000       4.456343       121.2633 
 254   0.0000       4.480192       121.9122 
 255   0.0000       4.484513       122.0298 
 256   0.0000       4.501758       122.4991 
 257   0.0000       4.541837       123.5897 
 258   0.0000       4.605129       125.3119 
 259   0.0000       4.622131       125.7746 
 260   0.0000       4.643670       126.3607 
 261   0.0000       4.668685       127.0414 
 262   0.0000       4.702485       127.9611 
 263   0.0000       4.725605       128.5902 
 264   0.0000       4.761759       129.5740 
 265   0.0000       4.837360       131.6312 
 266   0.0000       4.899518       133.3227 
 267   0.0000       4.968907       135.2108 
 268   0.0000       5.057135       137.6116 
 269   0.0000       5.067837       137.9029 
 270   0.0000       5.219018       142.0167 
 271   0.0000       5.223883       142.1491 
 272   0.0000       5.234015       142.4248 
 273   0.0000       5.248422       142.8168 
 274   0.0000       5.298527       144.1803 
 275   0.0000       5.367847       146.0666 
 276   0.0000       5.409310       147.1948 
 277   0.0000       5.430630       147.7750 
 278   0.0000       5.444384       148.1492 
 279   0.0000       5.572312       151.6303 
 280   0.0000       5.690740       154.8529 
 281   0.0000       5.827993       158.5878 
 282   0.0000       5.840616       158.9312 
 283   0.0000       5.937284       161.5617 
 284   0.0000       5.955588       162.0598 
 285   0.0000       6.006017       163.4320 
 286   0.0000       6.006929       163.4569 
 287   0.0000       6.127972       166.7506 
 288   0.0000       6.220073       169.2568 
 289   0.0000       6.308957       171.6755 
 290   0.0000       6.397325       174.0801 
 291   0.0000       6.398414       174.1097 
 292   0.0000       6.467303       175.9843 
 293   0.0000       6.477670       176.2664 
 294   0.0000       6.593666       179.4228 
 295   0.0000       6.642866       180.7616 
 296   0.0000       6.650397       180.9665 
 297   0.0000       6.822726       185.6558 
 298   0.0000       6.997570       190.4136 
 299   0.0000       7.202335       195.9855 
 300   0.0000       7.287812       198.3115 
 301   0.0000       7.541282       205.2087 
 302   0.0000       7.634727       207.7515 
 303   0.0000       7.752402       210.9536 
 304   0.0000       7.766385       211.3341 
 305   0.0000       8.044862       218.9118 
 306   0.0000       8.264557       224.8900 
 307   0.0000       8.412969       228.9285 
 308   0.0000       8.548363       232.6128 
 309   0.0000       8.563582       233.0269 
 310   0.0000       8.795714       239.3436 
 311   0.0000       8.852389       240.8858 
 312   0.0000       8.960761       243.8347 
 313   0.0000       8.988737       244.5960 
 314   0.0000       9.003384       244.9945 
 315   0.0000       9.033736       245.8205 
 316   0.0000       9.114108       248.0075 
 317   0.0000       9.195366       250.2186 
 318   0.0000       9.242565       251.5030 
 319   0.0000       9.269064       252.2240 
 320   0.0000       9.452398       257.2128 
 321   0.0000       9.476202       257.8606 
 322   0.0000       9.524483       259.1744 
 323   0.0000       9.866223       268.4736 
 324   0.0000       9.896458       269.2963 
 325   0.0000      10.057602       273.6813 
 326   0.0000      10.259947       279.1874 
 327   0.0000      10.385862       282.6137 
 328   0.0000      10.447995       284.3044 
 329   0.0000      10.453091       284.4431 
 330   0.0000      10.554373       287.1991 
 331   0.0000      10.594659       288.2953 
 332   0.0000      10.624421       289.1052 
 333   0.0000      10.668074       290.2930 
 334   0.0000      10.764546       292.9182 
 335   0.0000      10.915564       297.0276 
 336   0.0000      10.932981       297.5015 
 337   0.0000      10.936359       297.5934 
 338   0.0000      11.105733       302.2024 
 339   0.0000      11.192196       304.5551 
 340   0.0000      11.199667       304.7584 
 341   0.0000      11.333757       308.4072 
 342   0.0000      11.338192       308.5279 
 343   0.0000      11.492354       312.7229 
 344   0.0000      11.579303       315.0888 
 345   0.0000      11.612918       316.0036 
 346   0.0000      11.668352       317.5120 
 347   0.0000      11.703431       318.4666 
 348   0.0000      11.720132       318.9210 
 349   0.0000      11.789514       320.8090 
 350   0.0000      11.829276       321.8910 
 351   0.0000      12.034415       327.4731 
 352   0.0000      12.035642       327.5065 
 353   0.0000      12.063288       328.2588 
 354   0.0000      12.083854       328.8184 
 355   0.0000      12.199948       331.9774 
 356   0.0000      12.200648       331.9965 
 357   0.0000      12.239561       333.0554 
 358   0.0000      12.276442       334.0590 
 359   0.0000      12.326964       335.4337 
 360   0.0000      12.421675       338.0110 
 361   0.0000      12.466741       339.2373 
 362   0.0000      12.490114       339.8733 
 363   0.0000      12.503596       340.2401 
 364   0.0000      12.568079       341.9948 
 365   0.0000      12.630638       343.6971 
 366   0.0000      12.685224       345.1825 
 367   0.0000      12.706011       345.7481 
 368   0.0000      12.726667       346.3102 
 369   0.0000      12.753419       347.0382 
 370   0.0000      12.823606       348.9480 
 371   0.0000      12.856034       349.8305 
 372   0.0000      12.915280       351.4426 
 373   0.0000      13.006198       353.9166 
 374   0.0000      13.014729       354.1488 
 375   0.0000      13.073810       355.7565 
 376   0.0000      13.218273       359.6875 
 377   0.0000      13.327179       362.6510 
 378   0.0000      13.336628       362.9081 
 379   0.0000      13.383108       364.1729 
 380   0.0000      13.632826       370.9681 
 381   0.0000      13.651942       371.4882 
 382   0.0000      13.750530       374.1709 
 383   0.0000      13.788949       375.2164 
 384   0.0000      13.863224       377.2375 
 385   0.0000      13.943672       379.4266 
 386   0.0000      14.091799       383.4574 
 387   0.0000      14.355530       390.6338 
 388   0.0000      14.665583       399.0708 
 389   0.0000      14.891207       405.2103 
 390   0.0000      14.902557       405.5192 
 391   0.0000      14.935786       406.4234 
 392   0.0000      15.278259       415.7426 
 393   0.0000      15.284076       415.9008 
 394   0.0000      15.636765       425.4980 
 395   0.0000      16.002603       435.4530 
 396   0.0000      16.342389       444.6990 
 397   0.0000      16.720608       454.9909 
 398   0.0000      16.724389       455.0938 
 399   0.0000      16.730142       455.2503 
 400   0.0000      16.737434       455.4487 
 401   0.0000      16.910672       460.1628 
 402   0.0000      16.985464       462.1980 
 403   0.0000      17.018982       463.1100 
 404   0.0000      17.086591       464.9498 
 405   0.0000      17.108859       465.5557 
 406   0.0000      17.121957       465.9121 
 407   0.0000      17.162765       467.0226 
 408   0.0000      17.368653       472.6251 
 409   0.0000      17.385749       473.0903 
 410   0.0000      17.747095       482.9230 
 411   0.0000      17.872469       486.3346 
 412   0.0000      18.088258       492.2065 
 413   0.0000      18.158507       494.1181 
 414   0.0000      18.323999       498.6214 
 415   0.0000      18.353000       499.4105 
 416   0.0000      18.398532       500.6495 
 417   0.0000      18.454164       502.1633 
 418   0.0000      18.560717       505.0628 
 419   0.0000      18.754486       510.3355 
 420   0.0000      18.918743       514.8052 
 421   0.0000      18.991180       516.7763 
 422   0.0000      19.102379       519.8022 
 423   0.0000      19.682680       535.5930 
 424   0.0000      19.982617       543.7547 
 425   0.0000      20.126784       547.6776 
 426   0.0000      20.157745       548.5201 
 427   0.0000      20.489445       557.5461 
 428   0.0000      21.007219       571.6355 
 429   0.0000      21.564420       586.7977 
 430   0.0000      22.470922       611.4649 
 431   0.0000      23.070133       627.7702 
 432   0.0000      23.165407       630.3628 
 433   0.0000      23.484746       639.0524 
 434   0.0000      23.519780       640.0058 
 435   0.0000      23.627181       642.9283 
 436   0.0000      23.955786       651.8701 
 437   0.0000      23.985457       652.6775 
 438   0.0000      24.344586       662.4499 
 439   0.0000      25.264384       687.4788 
 440   0.0000      25.617241       697.0806 
 441   0.0000      26.581631       723.3230 
 442   0.0000      30.254237       823.2596 
 443   0.0000      32.022165       871.3674 
 444   0.0000      32.221644       876.7955 
 445   0.0000      32.234653       877.1495 
 446   0.0000      32.776218       891.8862 
 447   0.0000      33.274104       905.4344 
 448   0.0000      34.337436       934.3691 
 449   0.0000      34.475314       938.1210 
 450   0.0000      34.777894       946.3546 
 451   0.0000      40.941409      1114.0724 
 452   0.0000      41.103467      1118.4822 
 453   0.0000      66.614591      1812.6752 
 454   0.0000      66.675908      1814.3437 
 455   0.0000      67.107811      1826.0964 
 456   0.0000      67.404793      1834.1777 
 457   0.0000      68.677232      1868.8025 
 458   0.0000      76.431467      2079.8059 
 459   0.0000      91.040014      2477.3247 
 460   0.0000      91.061944      2477.9215 
 461   0.0000      91.125676      2479.6557 
 462   0.0000      91.337658      2485.4240 
 463   0.0000      92.242705      2510.0516 
 464   0.0000      92.402650      2514.4039 
 465   0.0000     143.549347      3906.1763 

                 SPIN DOWN ORBITALS
  NO   OCC          E(Eh)            E(eV) 
   0   1.0000     -18.773339      -510.8485 
   1   1.0000      -9.983594      -271.6674 
   2   1.0000      -0.980094       -26.6697 
   3   1.0000      -0.577749       -15.7213 
   4   1.0000      -0.447453       -12.1758 
   5   1.0000      -0.404328       -11.0023 
   6   1.0000      -0.371480       -10.1085 
   7   1.0000      -0.230155        -6.2628 
   8   0.0000      -0.098728        -2.6865 
   9   0.0000      -0.016955        -0.4614 
  10   0.0000       0.009956         0.2709 
  11   0.0000       0.011824         0.3217 
  12   0.0000       0.018520         0.5039 
  13   0.0000       0.037032         1.0077 
  14   0.0000       0.037295         1.0149 
  15   0.0000       0.050885         1.3847 
  16   0.0000       0.054575         1.4851 
  17   0.0000       0.057862         1.5745 
  18   0.0000       0.058774         1.5993 
  19   0.0000       0.060748         1.6530 
  20   0.0000       0.072745         1.9795 
  21   0.0000       0.080421         2.1884 
  22   0.0000       0.092926         2.5287 
  23   0.0000       0.108931         2.9642 
  24   0.0000       0.118340         3.2202 
  25   0.0000       0.125206         3.4070 
  26   0.0000       0.127710         3.4752 
  27   0.0000       0.128998         3.5102 
  28   0.0000       0.132408         3.6030 
  29   0.0000       0.133808         3.6411 
  30   0.0000       0.133969         3.6455 
  31   0.0000       0.140175         3.8144 
  32   0.0000       0.151578         4.1246 
  33   0.0000       0.153227         4.1695 
  34   0.0000       0.170656         4.6438 
  35   0.0000       0.183027         4.9804 
  36   0.0000       0.189943         5.1686 
  37   0.0000       0.192414         5.2359 
  38   0.0000       0.205860         5.6017 
  39   0.0000       0.220545         6.0013 
  40   0.0000       0.220736         6.0065 
  41   0.0000       0.234091         6.3699 
  42   0.0000       0.237239         6.4556 
  43   0.0000       0.239864         6.5270 
  44   0.0000       0.248358         6.7582 
  45   0.0000       0.252968         6.8836 
  46   0.0000       0.253145         6.8884 
  47   0.0000       0.256984         6.9929 
  48   0.0000       0.260057         7.0765 
  49   0.0000       0.266312         7.2467 
  50   0.0000       0.273028         7.4295 
  51   0.0000       0.284138         7.7318 
  52   0.0000       0.293355         7.9826 
  53   0.0000       0.294240         8.0067 
  54   0.0000       0.294325         8.0090 
  55   0.0000       0.294389         8.0107 
  56   0.0000       0.299499         8.1498 
  57   0.0000       0.302864         8.2414 
  58   0.0000       0.306072         8.3286 
  59   0.0000       0.321489         8.7482 
  60   0.0000       0.332565         9.0496 
  61   0.0000       0.334021         9.0892 
  62   0.0000       0.363394         9.8885 
  63   0.0000       0.364391         9.9156 
  64   0.0000       0.368798        10.0355 
  65   0.0000       0.369794        10.0626 
  66   0.0000       0.392526        10.6812 
  67   0.0000       0.395260        10.7556 
  68   0.0000       0.401721        10.9314 
  69   0.0000       0.402489        10.9523 
  70   0.0000       0.410838        11.1795 
  71   0.0000       0.417872        11.3709 
  72   0.0000       0.421958        11.4820 
  73   0.0000       0.421986        11.4828 
  74   0.0000       0.437401        11.9023 
  75   0.0000       0.442133        12.0310 
  76   0.0000       0.459134        12.4937 
  77   0.0000       0.460610        12.5338 
  78   0.0000       0.469580        12.7779 
  79   0.0000       0.477608        12.9964 
  80   0.0000       0.485354        13.2072 
  81   0.0000       0.488098        13.2818 
  82   0.0000       0.488470        13.2919 
  83   0.0000       0.499310        13.5869 
  84   0.0000       0.500910        13.6305 
  85   0.0000       0.505697        13.7607 
  86   0.0000       0.512832        13.9549 
  87   0.0000       0.518595        14.1117 
  88   0.0000       0.522730        14.2242 
  89   0.0000       0.527860        14.3638 
  90   0.0000       0.539212        14.6727 
  91   0.0000       0.544717        14.8225 
  92   0.0000       0.550290        14.9741 
  93   0.0000       0.557883        15.1808 
  94   0.0000       0.558410        15.1951 
  95   0.0000       0.578874        15.7520 
  96   0.0000       0.588241        16.0069 
  97   0.0000       0.593660        16.1543 
  98   0.0000       0.599184        16.3046 
  99   0.0000       0.604492        16.4491 
 100   0.0000       0.604914        16.4605 
 101   0.0000       0.610407        16.6100 
 102   0.0000       0.618038        16.8177 
 103   0.0000       0.624418        16.9913 
 104   0.0000       0.637709        17.3530 
 105   0.0000       0.641129        17.4460 
 106   0.0000       0.652063        17.7435 
 107   0.0000       0.653923        17.7941 
 108   0.0000       0.658277        17.9126 
 109   0.0000       0.660572        17.9751 
 110   0.0000       0.663944        18.0668 
 111   0.0000       0.703552        19.1446 
 112   0.0000       0.717149        19.5146 
 113   0.0000       0.720367        19.6022 
 114   0.0000       0.735294        20.0084 
 115   0.0000       0.737621        20.0717 
 116   0.0000       0.755299        20.5527 
 117   0.0000       0.763536        20.7769 
 118   0.0000       0.768111        20.9014 
 119   0.0000       0.769129        20.9291 
 120   0.0000       0.773292        21.0424 
 121   0.0000       0.776866        21.1396 
 122   0.0000       0.784965        21.3600 
 123   0.0000       0.787082        21.4176 
 124   0.0000       0.802465        21.8362 
 125   0.0000       0.810581        22.0570 
 126   0.0000       0.810823        22.0636 
 127   0.0000       0.823904        22.4196 
 128   0.0000       0.826714        22.4960 
 129   0.0000       0.831221        22.6187 
 130   0.0000       0.847447        23.0602 
 131   0.0000       0.848139        23.0790 
 132   0.0000       0.848355        23.0849 
 133   0.0000       0.851774        23.1779 
 134   0.0000       0.861177        23.4338 
 135   0.0000       0.870998        23.7011 
 136   0.0000       0.871841        23.7240 
 137   0.0000       0.880503        23.9597 
 138   0.0000       0.888669        24.1819 
 139   0.0000       0.890646        24.2357 
 140   0.0000       0.916822        24.9480 
 141   0.0000       0.918408        24.9911 
 142   0.0000       0.934273        25.4229 
 143   0.0000       0.957054        26.0428 
 144   0.0000       0.964285        26.2395 
 145   0.0000       0.973453        26.4890 
 146   0.0000       0.978886        26.6368 
 147   0.0000       0.980333        26.6762 
 148   0.0000       0.985876        26.8270 
 149   0.0000       0.992521        27.0079 
 150   0.0000       1.000939        27.2369 
 151   0.0000       1.021919        27.8078 
 152   0.0000       1.030389        28.0383 
 153   0.0000       1.035417        28.1751 
 154   0.0000       1.039267        28.2799 
 155   0.0000       1.073546        29.2127 
 156   0.0000       1.081736        29.4355 
 157   0.0000       1.094219        29.7752 
 158   0.0000       1.113451        30.2985 
 159   0.0000       1.117352        30.4047 
 160   0.0000       1.126506        30.6538 
 161   0.0000       1.129311        30.7301 
 162   0.0000       1.145294        31.1650 
 163   0.0000       1.194022        32.4910 
 164   0.0000       1.201790        32.7024 
 165   0.0000       1.202285        32.7158 
 166   0.0000       1.203658        32.7532 
 167   0.0000       1.230548        33.4849 
 168   0.0000       1.260241        34.2929 
 169   0.0000       1.273770        34.6610 
 170   0.0000       1.293290        35.1922 
 171   0.0000       1.308341        35.6018 
 172   0.0000       1.338982        36.4355 
 173   0.0000       1.351524        36.7768 
 174   0.0000       1.356042        36.8998 
 175   0.0000       1.436741        39.0957 
 176   0.0000       1.461261        39.7629 
 177   0.0000       1.463944        39.8359 
 178   0.0000       1.488642        40.5080 
 179   0.0000       1.544013        42.0147 
 180   0.0000       1.558351        42.4049 
 181   0.0000       1.560795        42.4714 
 182   0.0000       1.562028        42.5050 
 183   0.0000       1.628469        44.3129 
 184   0.0000       1.630129        44.3581 
 185   0.0000       1.662705        45.2445 
 186   0.0000       1.699811        46.2542 
 187   0.0000       1.706149        46.4267 
 188   0.0000       1.742129        47.4057 
 189   0.0000       1.777883        48.3786 
 190   0.0000       1.779344        48.4184 
 191   0.0000       1.829618        49.7864 
 192   0.0000       1.860975        50.6397 
 193   0.0000       1.893309        51.5196 
 194   0.0000       1.900046        51.7029 
 195   0.0000       1.933200        52.6051 
 196   0.0000       1.938121        52.7389 
 197   0.0000       1.982264        53.9401 
 198   0.0000       1.987881        54.0930 
 199   0.0000       2.039299        55.4921 
 200   0.0000       2.046601        55.6909 
 201   0.0000       2.110058        57.4176 
 202   0.0000       2.157614        58.7117 
 203   0.0000       2.216014        60.3008 
 204   0.0000       2.221481        60.4496 
 205   0.0000       2.223367        60.5009 
 206   0.0000       2.223812        60.5130 
 207   0.0000       2.267110        61.6912 
 208   0.0000       2.296787        62.4988 
 209   0.0000       2.314175        62.9719 
 210   0.0000       2.351152        63.9781 
 211   0.0000       2.382711        64.8369 
 212   0.0000       2.451535        66.7097 
 213   0.0000       2.472313        67.2751 
 214   0.0000       2.555997        69.5522 
 215   0.0000       2.563109        69.7457 
 216   0.0000       2.586042        70.3698 
 217   0.0000       2.616219        71.1909 
 218   0.0000       2.719845        74.0107 
 219   0.0000       2.774782        75.5057 
 220   0.0000       2.866811        78.0099 
 221   0.0000       2.976939        81.0066 
 222   0.0000       2.990031        81.3629 
 223   0.0000       3.039237        82.7018 
 224   0.0000       3.198498        87.0355 
 225   0.0000       3.211336        87.3849 
 226   0.0000       3.218279        87.5738 
 227   0.0000       3.331270        90.6485 
 228   0.0000       3.389812        92.2415 
 229   0.0000       3.432488        93.4027 
 230   0.0000       3.457935        94.0952 
 231   0.0000       3.476622        94.6037 
 232   0.0000       3.519785        95.7782 
 233   0.0000       3.540403        96.3393 
 234   0.0000       3.578161        97.3667 
 235   0.0000       3.638821        99.0174 
 236   0.0000       3.678610       100.1001 
 237   0.0000       3.743991       101.8792 
 238   0.0000       3.768087       102.5349 
 239   0.0000       3.810912       103.7002 
 240   0.0000       3.885369       105.7263 
 241   0.0000       3.927910       106.8839 
 242   0.0000       3.933132       107.0260 
 243   0.0000       3.989868       108.5698 
 244   0.0000       4.050879       110.2300 
 245   0.0000       4.106994       111.7570 
 246   0.0000       4.127027       112.3021 
 247   0.0000       4.152827       113.0042 
 248   0.0000       4.235927       115.2654 
 249   0.0000       4.328391       117.7815 
 250   0.0000       4.332855       117.9030 
 251   0.0000       4.335527       117.9757 
 252   0.0000       4.415809       120.1603 
 253   0.0000       4.456343       121.2633 
 254   0.0000       4.480192       121.9122 
 255   0.0000       4.484513       122.0298 
 256   0.0000       4.501758       122.4991 
 257   0.0000       4.541837       123.5897 
 258   0.0000       4.605129       125.3119 
 259   0.0000       4.622131       125.7746 
 260   0.0000       4.643670       126.3607 
 261   0.0000       4.668685       127.0414 
 262   0.0000       4.702485       127.9611 
 263   0.0000       4.725605       128.5902 
 264   0.0000       4.761759       129.5740 
 265   0.0000       4.837360       131.6312 
 266   0.0000       4.899518       133.3227 
 267   0.0000       4.968907       135.2108 
 268   0.0000       5.057135       137.6116 
 269   0.0000       5.067837       137.9029 
 270   0.0000       5.219018       142.0167 
 271   0.0000       5.223883       142.1491 
 272   0.0000       5.234015       142.4248 
 273   0.0000       5.248422       142.8168 
 274   0.0000       5.298527       144.1803 
 275   0.0000       5.367847       146.0666 
 276   0.0000       5.409310       147.1948 
 277   0.0000       5.430630       147.7750 
 278   0.0000       5.444384       148.1492 
 279   0.0000       5.572312       151.6303 
 280   0.0000       5.690740       154.8529 
 281   0.0000       5.827993       158.5878 
 282   0.0000       5.840616       158.9312 
 283   0.0000       5.937284       161.5617 
 284   0.0000       5.955588       162.0598 
 285   0.0000       6.006017       163.4320 
 286   0.0000       6.006929       163.4569 
 287   0.0000       6.127972       166.7506 
 288   0.0000       6.220073       169.2568 
 289   0.0000       6.308957       171.6755 
 290   0.0000       6.397325       174.0801 
 291   0.0000       6.398414       174.1097 
 292   0.0000       6.467303       175.9843 
 293   0.0000       6.477670       176.2664 
 294   0.0000       6.593666       179.4228 
 295   0.0000       6.642866       180.7616 
 296   0.0000       6.650397       180.9665 
 297   0.0000       6.822726       185.6558 
 298   0.0000       6.997570       190.4136 
 299   0.0000       7.202335       195.9855 
 300   0.0000       7.287812       198.3115 
 301   0.0000       7.541282       205.2087 
 302   0.0000       7.634727       207.7515 
 303   0.0000       7.752402       210.9536 
 304   0.0000       7.766385       211.3341 
 305   0.0000       8.044862       218.9118 
 306   0.0000       8.264557       224.8900 
 307   0.0000       8.412969       228.9285 
 308   0.0000       8.548363       232.6128 
 309   0.0000       8.563582       233.0269 
 310   0.0000       8.795714       239.3436 
 311   0.0000       8.852389       240.8858 
 312   0.0000       8.960761       243.8347 
 313   0.0000       8.988737       244.5960 
 314   0.0000       9.003384       244.9945 
 315   0.0000       9.033736       245.8205 
 316   0.0000       9.114108       248.0075 
 317   0.0000       9.195366       250.2186 
 318   0.0000       9.242565       251.5030 
 319   0.0000       9.269064       252.2240 
 320   0.0000       9.452398       257.2128 
 321   0.0000       9.476202       257.8606 
 322   0.0000       9.524483       259.1744 
 323   0.0000       9.866223       268.4736 
 324   0.0000       9.896458       269.2963 
 325   0.0000      10.057602       273.6813 
 326   0.0000      10.259947       279.1874 
 327   0.0000      10.385862       282.6137 
 328   0.0000      10.447995       284.3044 
 329   0.0000      10.453091       284.4431 
 330   0.0000      10.554373       287.1991 
 331   0.0000      10.594659       288.2953 
 332   0.0000      10.624421       289.1052 
 333   0.0000      10.668074       290.2930 
 334   0.0000      10.764546       292.9182 
 335   0.0000      10.915564       297.0276 
 336   0.0000      10.932981       297.5015 
 337   0.0000      10.936359       297.5934 
 338   0.0000      11.105733       302.2024 
 339   0.0000      11.192196       304.5551 
 340   0.0000      11.199667       304.7584 
 341   0.0000      11.333757       308.4072 
 342   0.0000      11.338192       308.5279 
 343   0.0000      11.492354       312.7229 
 344   0.0000      11.579303       315.0888 
 345   0.0000      11.612918       316.0036 
 346   0.0000      11.668352       317.5120 
 347   0.0000      11.703431       318.4666 
 348   0.0000      11.720132       318.9210 
 349   0.0000      11.789514       320.8090 
 350   0.0000      11.829276       321.8910 
 351   0.0000      12.034415       327.4731 
 352   0.0000      12.035642       327.5065 
 353   0.0000      12.063288       328.2588 
 354   0.0000      12.083854       328.8184 
 355   0.0000      12.199948       331.9774 
 356   0.0000      12.200648       331.9965 
 357   0.0000      12.239561       333.0554 
 358   0.0000      12.276442       334.0590 
 359   0.0000      12.326964       335.4337 
 360   0.0000      12.421675       338.0110 
 361   0.0000      12.466741       339.2373 
 362   0.0000      12.490114       339.8733 
 363   0.0000      12.503596       340.2401 
 364   0.0000      12.568079       341.9948 
 365   0.0000      12.630638       343.6971 
 366   0.0000      12.685224       345.1825 
 367   0.0000      12.706011       345.7481 
 368   0.0000      12.726667       346.3102 
 369   0.0000      12.753419       347.0382 
 370   0.0000      12.823606       348.9480 
 371   0.0000      12.856034       349.8305 
 372   0.0000      12.915280       351.4426 
 373   0.0000      13.006198       353.9166 
 374   0.0000      13.014729       354.1488 
 375   0.0000      13.073810       355.7565 
 376   0.0000      13.218273       359.6875 
 377   0.0000      13.327179       362.6510 
 378   0.0000      13.336628       362.9081 
 379   0.0000      13.383108       364.1729 
 380   0.0000      13.632826       370.9681 
 381   0.0000      13.651942       371.4882 
 382   0.0000      13.750530       374.1709 
 383   0.0000      13.788949       375.2164 
 384   0.0000      13.863224       377.2375 
 385   0.0000      13.943672       379.4266 
 386   0.0000      14.091799       383.4574 
 387   0.0000      14.355530       390.6338 
 388   0.0000      14.665583       399.0708 
 389   0.0000      14.891207       405.2103 
 390   0.0000      14.902557       405.5192 
 391   0.0000      14.935786       406.4234 
 392   0.0000      15.278259       415.7426 
 393   0.0000      15.284076       415.9008 
 394   0.0000      15.636765       425.4980 
 395   0.0000      16.002603       435.4530 
 396   0.0000      16.342389       444.6990 
 397   0.0000      16.720608       454.9909 
 398   0.0000      16.724389       455.0938 
 399   0.0000      16.730142       455.2503 
 400   0.0000      16.737434       455.4487 
 401   0.0000      16.910672       460.1628 
 402   0.0000      16.985464       462.1980 
 403   0.0000      17.018982       463.1100 
 404   0.0000      17.086591       464.9498 
 405   0.0000      17.108859       465.5557 
 406   0.0000      17.121957       465.9121 
 407   0.0000      17.162765       467.0226 
 408   0.0000      17.368653       472.6251 
 409   0.0000      17.385749       473.0903 
 410   0.0000      17.747095       482.9230 
 411   0.0000      17.872469       486.3346 
 412   0.0000      18.088258       492.2065 
 413   0.0000      18.158507       494.1181 
 414   0.0000      18.323999       498.6214 
 415   0.0000      18.353000       499.4105 
 416   0.0000      18.398532       500.6495 
 417   0.0000      18.454164       502.1633 
 418   0.0000      18.560717       505.0628 
 419   0.0000      18.754486       510.3355 
 420   0.0000      18.918743       514.8052 
 421   0.0000      18.991180       516.7763 
 422   0.0000      19.102379       519.8022 
 423   0.0000      19.682680       535.5930 
 424   0.0000      19.982617       543.7547 
 425   0.0000      20.126784       547.6776 
 426   0.0000      20.157745       548.5201 
 427   0.0000      20.489445       557.5461 
 428   0.0000      21.007219       571.6355 
 429   0.0000      21.564420       586.7977 
 430   0.0000      22.470922       611.4649 
 431   0.0000      23.070133       627.7702 
 432   0.0000      23.165407       630.3628 
 433   0.0000      23.484746       639.0524 
 434   0.0000      23.519780       640.0058 
 435   0.0000      23.627181       642.9283 
 436   0.0000      23.955786       651.8701 
 437   0.0000      23.985457       652.6775 
 438   0.0000      24.344586       662.4499 
 439   0.0000      25.264384       687.4788 
 440   0.0000      25.617241       697.0806 
 441   0.0000      26.581631       723.3230 
 442   0.0000      30.254237       823.2596 
 443   0.0000      32.022165       871.3674 
 444   0.0000      32.221644       876.7955 
 445   0.0000      32.234653       877.1495 
 446   0.0000      32.776218       891.8862 
 447   0.0000      33.274104       905.4344 
 448   0.0000      34.337436       934.3691 
 449   0.0000      34.475314       938.1210 
 450   0.0000      34.777894       946.3546 
 451   0.0000      40.941409      1114.0724 
 452   0.0000      41.103467      1118.4822 
 453   0.0000      66.614591      1812.6752 
 454   0.0000      66.675908      1814.3437 
 455   0.0000      67.107811      1826.0964 
 456   0.0000      67.404793      1834.1777 
 457   0.0000      68.677232      1868.8025 
 458   0.0000      76.431467      2079.8059 
 459   0.0000      91.040014      2477.3247 
 460   0.0000      91.061944      2477.9215 
 461   0.0000      91.125676      2479.6557 
 462   0.0000      91.337658      2485.4240 
 463   0.0000      92.242705      2510.0516 
 464   0.0000      92.402650      2514.4039 
 465   0.0000     143.549347      3906.1763 

                    ********************************
                    * MULLIKEN POPULATION ANALYSIS *
                    ********************************

--------------------------------------------
MULLIKEN ATOMIC CHARGES AND SPIN POPULATIONS
--------------------------------------------
   0 O :   -0.214107    0.000000
   1 C :    0.311685   -0.000000
   2 H :   -0.048796    0.000000
   3 H :   -0.048782   -0.000000
Sum of atomic charges         :   -0.0000000
Sum of atomic spin populations:    0.0000000

-----------------------------------------------------
MULLIKEN REDUCED ORBITAL CHARGES AND SPIN POPULATIONS
-----------------------------------------------------
CHARGE
  0 O s       :     3.802942  s :     3.802942
      pz      :     1.310256  p :     4.349260
      px      :     1.263858
      py      :     1.775146
      dz2     :     0.010774  d :     0.050378
      dxz     :     0.019463
      dyz     :     0.020146
      dx2y2   :    -0.000005
      dxy     :    -0.000000
      f0      :     0.002773  f :     0.010216
      f+1     :     0.002223
      f-1     :     0.005464
      f+2     :    -0.000264
      f-2     :     0.000000
      f+3     :    -0.000011
      f-3     :     0.000031
      g0      :     0.000527  g :     0.001245
      g+1     :     0.000322
      g-1     :     0.000606
      g+2     :    -0.000127
      g-2     :    -0.000000
      g+3     :    -0.000016
      g-3     :    -0.000066
      g+4     :    -0.000001
      g-4     :    -0.000000
      h0      :     0.000051  h :     0.000065
      h+1     :     0.000044
      h-1     :     0.000056
      h+2     :    -0.000030
      h-2     :     0.000000
      h+3     :    -0.000004
      h-3     :    -0.000051
      h+4     :    -0.000001
      h-4     :     0.000000
      h+5     :    -0.000000
      h-5     :    -0.000000
  1 C s       :     3.132420  s :     3.132420
      pz      :     0.766822  p :     2.332395
      px      :     0.665493
      py      :     0.900080
      dz2     :     0.027453  d :     0.203667
      dxz     :     0.025248
      dyz     :     0.149634
      dx2y2   :     0.001332
      dxy     :     0.000000
      f0      :     0.003276  f :     0.017437
      f+1     :     0.003286
      f-1     :     0.010074
      f+2     :     0.000767
      f-2     :     0.000000
      f+3     :    -0.000045
      f-3     :     0.000077
      g0      :     0.000840  g :     0.002047
      g+1     :     0.000638
      g-1     :     0.000401
      g+2     :     0.000014
      g-2     :     0.000000
      g+3     :    -0.000007
      g-3     :     0.000154
      g+4     :     0.000007
      g-4     :     0.000000
      h0      :     0.000079  h :     0.000349
      h+1     :     0.000065
      h-1     :     0.000203
      h+2     :    -0.000000
      h-2     :     0.000000
      h+3     :    -0.000000
      h-3     :     0.000001
      h+4     :     0.000002
      h-4     :     0.000000
      h+5     :    -0.000000
      h-5     :    -0.000000
  2 H s       :     0.997274  s :     0.997274
      pz      :     0.021568  p :     0.054114
      px      :     0.010798
      py      :     0.021748
      dz2     :    -0.000839  d :    -0.002361
      dxz     :    -0.000581
      dyz     :     0.000585
      dx2y2   :    -0.000644
      dxy     :    -0.000883
      f0      :    -0.000497  f :    -0.000075
      f+1     :     0.000542
      f-1     :    -0.000490
      f+2     :     0.000892
      f-2     :    -0.000137
      f+3     :    -0.000140
      f-3     :    -0.000246
      g0      :    -0.000273  g :    -0.000155
      g+1     :     0.000098
      g-1     :     0.000012
      g+2     :    -0.000051
      g-2     :     0.000008
      g+3     :     0.000016
      g-3     :     0.000022
      g+4     :     0.000014
      g-4     :    -0.000002
  3 H s       :     0.997253  s :     0.997253
      pz      :     0.021576  p :     0.054116
      px      :     0.010798
      py      :     0.021743
      dz2     :    -0.000837  d :    -0.002357
      dxz     :    -0.000581
      dyz     :     0.000588
      dx2y2   :    -0.000644
      dxy     :    -0.000883
      f0      :    -0.000497  f :    -0.000074
      f+1     :     0.000542
      f-1     :    -0.000489
      f+2     :     0.000892
      f-2     :    -0.000137
      f+3     :    -0.000140
      f-3     :    -0.000246
      g0      :    -0.000273  g :    -0.000155
      g+1     :     0.000098
      g-1     :     0.000013
      g+2     :    -0.000051
      g-2     :     0.000008
      g+3     :     0.000016
      g-3     :     0.000022
      g+4     :     0.000014
      g-4     :    -0.000002

SPIN
  0 O s       :     0.000000  s :     0.000000
      pz      :    -0.000000  p :    -0.000000
      px      :     0.000000
      py      :     0.000000
      dz2     :     0.000000  d :     0.000000
      dxz     :     0.000000
      dyz     :     0.000000
      dx2y2   :    -0.000000
      dxy     :    -0.000000
      f0      :     0.000000  f :     0.000000
      f+1     :     0.000000
      f-1     :     0.000000
      f+2     :     0.000000
      f-2     :     0.000000
      f+3     :     0.000000
      f-3     :     0.000000
      g0      :     0.000000  g :     0.000000
      g+1     :    -0.000000
      g-1     :     0.000000
      g+2     :     0.000000
      g-2     :     0.000000
      g+3     :    -0.000000
      g-3     :     0.000000
      g+4     :     0.000000
      g-4     :     0.000000
      h0      :     0.000000  h :     0.000000
      h+1     :    -0.000000
      h-1     :     0.000000
      h+2     :     0.000000
      h-2     :    -0.000000
      h+3     :    -0.000000
      h-3     :     0.000000
      h+4     :     0.000000
      h-4     :    -0.000000
      h+5     :     0.000000
      h-5     :    -0.000000
  1 C s       :    -0.000000  s :    -0.000000
      pz      :    -0.000000  p :    -0.000000
      px      :    -0.000000
      py      :     0.000000
      dz2     :    -0.000000  d :    -0.000000
      dxz     :    -0.000000
      dyz     :    -0.000000
      dx2y2   :     0.000000
      dxy     :     0.000000
      f0      :     0.000000  f :     0.000000
      f+1     :     0.000000
      f-1     :     0.000000
      f+2     :    -0.000000
      f-2     :     0.000000
      f+3     :    -0.000000
      f-3     :     0.000000
      g0      :    -0.000000  g :    -0.000000
      g+1     :     0.000000
      g-1     :    -0.000000
      g+2     :     0.000000
      g-2     :     0.000000
      g+3     :    -0.000000
      g-3     :    -0.000000
      g+4     :     0.000000
      g-4     :     0.000000
      h0      :     0.000000  h :     0.000000
      h+1     :    -0.000000
      h-1     :     0.000000
      h+2     :     0.000000
      h-2     :    -0.000000
      h+3     :    -0.000000
      h-3     :     0.000000
      h+4     :     0.000000
      h-4     :    -0.000000
      h+5     :     0.000000
      h-5     :    -0.000000
  2 H s       :     0.000000  s :     0.000000
      pz      :     0.000000  p :     0.000000
      px      :     0.000000
      py      :     0.000000
      dz2     :     0.000000  d :     0.000000
      dxz     :     0.000000
      dyz     :     0.000000
      dx2y2   :     0.000000
      dxy     :     0.000000
      f0      :    -0.000000  f :     0.000000
      f+1     :     0.000000
      f-1     :     0.000000
      f+2     :     0.000000
      f-2     :     0.000000
      f+3     :     0.000000
      f-3     :     0.000000
      g0      :    -0.000000  g :     0.000000
      g+1     :    -0.000000
      g-1     :    -0.000000
      g+2     :     0.000000
      g-2     :     0.000000
      g+3     :     0.000000
      g-3     :     0.000000
      g+4     :     0.000000
      g-4     :     0.000000
  3 H s       :    -0.000000  s :    -0.000000
      pz      :    -0.000000  p :    -0.000000
      px      :    -0.000000
      py      :    -0.000000
      dz2     :     0.000000  d :     0.000000
      dxz     :    -0.000000
      dyz     :     0.000000
      dx2y2   :    -0.000000
      dxy     :    -0.000000
      f0      :     0.000000  f :     0.000000
      f+1     :    -0.000000
      f-1     :     0.000000
      f+2     :     0.000000
      f-2     :    -0.000000
      f+3     :     0.000000
      f-3     :     0.000000
      g0      :     0.000000  g :     0.000000
      g+1     :    -0.000000
      g-1     :    -0.000000
      g+2     :     0.000000
      g-2     :    -0.000000
      g+3     :    -0.000000
      g-3     :     0.000000
      g+4     :     0.000000
      g-4     :     0.000000


                     *******************************
                     * LOEWDIN POPULATION ANALYSIS *
                     *******************************

-------------------------------------------
LOEWDIN ATOMIC CHARGES AND SPIN POPULATIONS
-------------------------------------------
   0 O :    0.492808   -0.000000
   1 C :    0.342778   -0.000000
   2 H :   -0.417793    0.000000
   3 H :   -0.417793    0.000000

----------------------------------------------------
LOEWDIN REDUCED ORBITAL CHARGES AND SPIN POPULATIONS
----------------------------------------------------
CHARGE
  0 O s       :     3.135727  s :     3.135727
      pz      :     1.436461  p :     3.893780
      px      :     1.027717
      py      :     1.429601
      dz2     :     0.106771  d :     0.277680
      dxz     :     0.035209
      dyz     :     0.135150
      dx2y2   :     0.000549
      dxy     :     0.000000
      f0      :     0.032980  f :     0.132302
      f+1     :     0.016316
      f-1     :     0.081200
      f+2     :     0.001661
      f-2     :    -0.000000
      f+3     :     0.000024
      f-3     :     0.000121
      g0      :     0.006777  g :     0.050235
      g+1     :     0.004061
      g-1     :     0.036103
      g+2     :     0.002577
      g-2     :    -0.000000
      g+3     :     0.000002
      g-3     :     0.000666
      g+4     :     0.000048
      g-4     :     0.000000
      h0      :     0.001090  h :     0.017469
      h+1     :     0.000911
      h-1     :     0.011737
      h+2     :     0.002280
      h-2     :     0.000000
      h+3     :     0.000000
      h-3     :     0.001402
      h+4     :     0.000041
      h-4     :     0.000000
      h+5     :     0.000003
      h-5     :     0.000004
  1 C s       :     2.564249  s :     2.564249
      pz      :     0.858543  p :     2.150776
      px      :     0.480270
      py      :     0.811963
      dz2     :     0.215693  d :     0.683142
      dxz     :     0.087707
      dyz     :     0.363986
      dx2y2   :     0.015756
      dxy     :     0.000000
      f0      :     0.067176  f :     0.205856
      f+1     :     0.044634
      f-1     :     0.083534
      f+2     :     0.005428
      f-2     :     0.000000
      f+3     :     0.000529
      f-3     :     0.004556
      g0      :     0.011188  g :     0.045797
      g+1     :     0.012340
      g-1     :     0.020769
      g+2     :     0.000122
      g-2     :     0.000000
      g+3     :     0.000024
      g-3     :     0.001124
      g+4     :     0.000230
      g-4     :     0.000000
      h0      :     0.002644  h :     0.007402
      h+1     :     0.001869
      h-1     :     0.002194
      h+2     :     0.000348
      h-2     :     0.000000
      h+3     :     0.000144
      h-3     :     0.000034
      h+4     :     0.000048
      h-4     :     0.000000
      h+5     :     0.000019
      h-5     :     0.000103
  2 H s       :     0.691301  s :     0.691301
      pz      :     0.086530  p :     0.285495
      px      :     0.046316
      py      :     0.152650
      dz2     :     0.062731  d :     0.228506
      dxz     :     0.025148
      dyz     :     0.059909
      dx2y2   :     0.051249
      dxy     :     0.029469
      f0      :     0.026786  f :     0.129406
      f+1     :     0.006188
      f-1     :     0.045363
      f+2     :     0.016962
      f-2     :     0.015290
      f+3     :     0.005755
      f-3     :     0.013064
      g0      :     0.018983  g :     0.083084
      g+1     :     0.002853
      g-1     :     0.021492
      g+2     :     0.018483
      g-2     :     0.007411
      g+3     :     0.004850
      g-3     :     0.004489
      g+4     :     0.003691
      g-4     :     0.000832
  3 H s       :     0.691301  s :     0.691301
      pz      :     0.086530  p :     0.285495
      px      :     0.046316
      py      :     0.152650
      dz2     :     0.062731  d :     0.228506
      dxz     :     0.025148
      dyz     :     0.059909
      dx2y2   :     0.051249
      dxy     :     0.029469
      f0      :     0.026786  f :     0.129406
      f+1     :     0.006188
      f-1     :     0.045363
      f+2     :     0.016962
      f-2     :     0.015290
      f+3     :     0.005755
      f-3     :     0.013064
      g0      :     0.018983  g :     0.083084
      g+1     :     0.002853
      g-1     :     0.021492
      g+2     :     0.018483
      g-2     :     0.007411
      g+3     :     0.004850
      g-3     :     0.004489
      g+4     :     0.003691
      g-4     :     0.000832

SPIN
  0 O s       :     0.000000  s :     0.000000
      pz      :    -0.000000  p :    -0.000000
      px      :     0.000000
      py      :     0.000000
      dz2     :     0.000000  d :    -0.000000
      dxz     :    -0.000000
      dyz     :    -0.000000
      dx2y2   :    -0.000000
      dxy     :     0.000000
      f0      :     0.000000  f :     0.000000
      f+1     :    -0.000000
      f-1     :     0.000000
      f+2     :    -0.000000
      f-2     :     0.000000
      f+3     :     0.000000
      f-3     :     0.000000
      g0      :     0.000000  g :     0.000000
      g+1     :    -0.000000
      g-1     :    -0.000000
      g+2     :     0.000000
      g-2     :    -0.000000
      g+3     :     0.000000
      g-3     :     0.000000
      g+4     :    -0.000000
      g-4     :     0.000000
      h0      :     0.000000  h :     0.000000
      h+1     :    -0.000000
      h-1     :     0.000000
      h+2     :    -0.000000
      h-2     :    -0.000000
      h+3     :     0.000000
      h-3     :    -0.000000
      h+4     :    -0.000000
      h-4     :    -0.000000
      h+5     :    -0.000000
      h-5     :    -0.000000
  1 C s       :    -0.000000  s :    -0.000000
      pz      :    -0.000000  p :    -0.000000
      px      :    -0.000000
      py      :    -0.000000
      dz2     :     0.000000  d :     0.000000
      dxz     :     0.000000
      dyz     :    -0.000000
      dx2y2   :     0.000000
      dxy     :     0.000000
      f0      :     0.000000  f :     0.000000
      f+1     :     0.000000
      f-1     :     0.000000
      f+2     :     0.000000
      f-2     :    -0.000000
      f+3     :     0.000000
      f-3     :     0.000000
      g0      :     0.000000  g :     0.000000
      g+1     :     0.000000
      g-1     :    -0.000000
      g+2     :     0.000000
      g-2     :     0.000000
      g+3     :    -0.000000
      g-3     :    -0.000000
      g+4     :     0.000000
      g-4     :     0.000000
      h0      :    -0.000000  h :     0.000000
      h+1     :    -0.000000
      h-1     :     0.000000
      h+2     :     0.000000
      h-2     :     0.000000
      h+3     :    -0.000000
      h-3     :    -0.000000
      h+4     :    -0.000000
      h-4     :    -0.000000
      h+5     :     0.000000
      h-5     :     0.000000
  2 H s       :     0.000000  s :     0.000000
      pz      :     0.000000  p :     0.000000
      px      :    -0.000000
      py      :     0.000000
      dz2     :     0.000000  d :     0.000000
      dxz     :    -0.000000
      dyz     :     0.000000
      dx2y2   :    -0.000000
      dxy     :    -0.000000
      f0      :    -0.000000  f :    -0.000000
      f+1     :     0.000000
      f-1     :    -0.000000
      f+2     :    -0.000000
      f-2     :     0.000000
      f+3     :    -0.000000
      f-3     :    -0.000000
      g0      :     0.000000  g :     0.000000
      g+1     :     0.000000
      g-1     :     0.000000
      g+2     :     0.000000
      g-2     :    -0.000000
      g+3     :    -0.000000
      g-3     :     0.000000
      g+4     :    -0.000000
      g-4     :    -0.000000
  3 H s       :    -0.000000  s :    -0.000000
      pz      :    -0.000000  p :     0.000000
      px      :    -0.000000
      py      :     0.000000
      dz2     :    -0.000000  d :     0.000000
      dxz     :    -0.000000
      dyz     :     0.000000
      dx2y2   :     0.000000
      dxy     :    -0.000000
      f0      :     0.000000  f :     0.000000
      f+1     :     0.000000
      f-1     :     0.000000
      f+2     :     0.000000
      f-2     :     0.000000
      f+3     :    -0.000000
      f-3     :     0.000000
      g0      :     0.000000  g :     0.000000
      g+1     :     0.000000
      g-1     :     0.000000
      g+2     :    -0.000000
      g-2     :     0.000000
      g+3     :    -0.000000
      g-3     :    -0.000000
      g+4     :     0.000000
      g-4     :    -0.000000


                      *****************************
                      * MAYER POPULATION ANALYSIS *
                      *****************************

  NA   - Mulliken gross atomic population
  ZA   - Total nuclear charge
  QA   - Mulliken gross atomic charge
  VA   - Mayer's total valence
  BVA  - Mayer's bonded valence
  FA   - Mayer's free valence

  ATOM       NA         ZA         QA         VA         BVA        FA
  0 O      8.2141     8.0000    -0.2141     2.0370     2.0370     0.0000
  1 C      5.6883     6.0000     0.3117     4.0457     4.0457    -0.0000
  2 H      1.0488     1.0000    -0.0488     1.1304     1.1304    -0.0000
  3 H      1.0488     1.0000    -0.0488     1.1304     1.1304    -0.0000

  Mayer bond orders larger than 0.1
B(  0-O ,  1-C ) :   1.9749 B(  1-C ,  2-H ) :   1.0354 B(  1-C ,  3-H ) :   1.0354 


-------
TIMINGS
-------

Total SCF time: 0 days 1 hours 40 min 43 sec 

Total time                  ....    6043.928 sec
Sum of individual times     ....    6042.756 sec  (100.0%)

Fock matrix formation       ....    6028.097 sec  ( 99.7%)
  XC integration            ....     214.542 sec  (  3.6% of F)
    Basis function eval.    ....      11.994 sec  (  5.6% of XC)
    Density eval.           ....      50.740 sec  ( 23.7% of XC)
    XC-Functional eval.     ....       1.664 sec  (  0.8% of XC)
    XC-Potential eval.      ....     148.786 sec  ( 69.4% of XC)
Diagonalization             ....       2.089 sec  (  0.0%)
Density matrix formation    ....       0.036 sec  (  0.0%)
Population analysis         ....       0.216 sec  (  0.0%)
Initial guess               ....       8.271 sec  (  0.1%)
Orbital Transformation      ....       0.000 sec  (  0.0%)
Orbital Orthonormalization  ....       0.000 sec  (  0.0%)
DIIS solution               ....       1.187 sec  (  0.0%)
Grid generation             ....       2.859 sec  (  0.0%)

-------------------------   --------------------
FINAL SINGLE POINT ENERGY      -114.429248982052
-------------------------   --------------------


                            ***************************************
                            *     ORCA property calculations      *
                            ***************************************

                                    ---------------------
                                    Active property flags
                                    ---------------------
   (+) Dipole Moment
   (+) Polarizability


------------------------------------------------------------------------------
                       ORCA ELECTRIC PROPERTIES CALCULATION
------------------------------------------------------------------------------

Dipole Moment Calculation                       ... on
Quadrupole Moment Calculation                   ... off
Polarizability Calculation                      ... Analytic (CP-SCF)
GBWName                                         ... hcho_pbe.gbw
Electron density file                           ... hcho_pbe.scfp.tmp
The origin for moment calculation is the CENTER OF MASS  = ( 0.000000,  0.000000  1.138782)

-------------
DIPOLE MOMENT
-------------
                                X             Y             Z
Electronic contribution:     -0.00000       0.00000       1.35014
Nuclear contribution   :      0.00000       0.00000      -2.22436
                        -----------------------------------------
Total Dipole Moment    :     -0.00000       0.00000      -0.87422
                        -----------------------------------------
Magnitude (a.u.)       :      0.87422
Magnitude (Debye)      :      2.22209



--------------------
Rotational spectrum 
--------------------
 
Rotational constants in cm-1:     9.405353     1.294438     1.137839 
Rotational constants in MHz : 281965.390539 38806.263246 34111.565166 

 Dipole components along the rotational axes: 
x,y,z [a.u.] :    -0.874221     0.000000    -0.000000 
x,y,z [Debye]:    -2.222094     0.000000    -0.000000 

 
Transforming and storing MO dipole integrals   ... done

                ... starting polarizability calculation

Opening the Dipole integral file               ... (hcho_pbe.dmo.tmp) done
Reading Dipole-MO integrals                    ... done
Solving CP-SCF equations                       ... 
------------------------------------------------------------------------------
                           ORCA CP-SCF CALCULATION
------------------------------------------------------------------------------

Input orbitals are from        ... hcho_pbe.gbw
Input Perturbation             ... hcho_pbe.cpv.tmp
Wavefunction output            ... hcho_pbe.cpu.tmp
Perturbation mode              ... Real perturbation (singlet)
Solver                         ... POPLE
Max. number of iterations      ... 200
Convergence tolerance          ... 1.000e-06
Integral handling              ... Direct
Number of perturbations        ... 3
Number of operators            ... 2
Orbital ranges used for CP-SCF:
 Operator 0:  Orbitals   0...  7  to   8...465
 Operator 1:  Orbitals   0...  7  to   8...465
DFT calculation                         ... on
Exchange functional (SCF)               ... PBE
Exchange functional (CP-SCF)            ... PBE
   PBE kappa parameter  XKappa (SCF)    ...  0.804000
   PBE kappa parameter  XKappa (CP-SCF) ...  0.804000
   PBE mue parameter   XMuePBE (SCF)    ...  0.219520
   PBE mue parameter   XMuePBE (CP-SCF) ...  0.219520
Correlation functional (SCF)            ... PBE
Correlation functional (CP-SCF)         ... PBE
   PBE beta parameter CBetaPBE (SCF)    ...  0.066725
   PBE beta parameter CBetaPBE (CP-SCF) ...  0.066725
 LDA part of GGA corr.  LDAOpt (SCF)    ... PW91-LDA
 LDA part of GGA corr.  LDAOpt (CP-SCF) ... PW91-LDA
Variables per vector in CP-SCF ... 7328
Number of vectors sought       ... 3
Recalculating density on grid  ... done
Calculating the xc-kernel      ... done
     CP-SCF ITERATION   0: 
     CP-SCF ITERATION   1:      0.201431433484
     CP-SCF ITERATION   2:      0.018129073160
     CP-SCF ITERATION   3:      0.000250915619
     CP-SCF ITERATION   4:      0.000001307326
     CP-SCF ITERATION   5:      0.000000185079
done
Reading CP-SCF coefficients                    ... done
Doing the polarizability tensor   ... done
Cleaning up                                    ... done

-------------------------
THE POLARIZABILITY TENSOR
-------------------------

The raw cartesian tensor (atomic units):
   13.62200     -0.00000      0.00000  
   -0.00000     19.63845      0.00000  
    0.00000      0.00000     23.65237  
diagonalized tensor: 
   13.62200     19.63845     23.65237  

    1.00000     -0.00000      0.00000  
    0.00000      1.00000      0.00000  
   -0.00000     -0.00000      1.00000  

Isotropic polarizability :  18.97094


Timings for individual modules:

Sum of individual times         ...    10792.179 sec (= 179.870 min)
GTO integral calculation        ...        4.693 sec (=   0.078 min)   0.0 %
SCF iterations                  ...     6047.021 sec (= 100.784 min)  56.0 %
Solution of CP-SCF eqns.        ...     4740.466 sec (=  79.008 min)  43.9 %
                             ****ORCA TERMINATED NORMALLY****
TOTAL RUN TIME: 0 days 2 hours 59 minutes 52 seconds 776 msec
