
                                 *****************
                                 * O   R   C   A *
                                 *****************

           --- An Ab Initio, DFT and Semiempirical electronic structure package ---

                  #######################################################
                  #                        -***-                        #
                  #          Department of theory and spectroscopy      #
                  #               Directorship: Frank Neese             #
                  #        Max Planck Institute fuer Kohlenforschung    #
                  #                Kaiser Wilhelm Platz 1               #
                  #                 D-45470 Muelheim/Ruhr               #
                  #                      Germany                        #
                  #                                                     #
                  #                  All rights reserved                #
                  #                        -***-                        #
                  #######################################################


                         Program Version 4.1.2  - RELEASE  -


 With contributions from (in alphabetic order):
   Daniel Aravena         : Magnetic Properties
   Michael Atanasov       : Ab Initio Ligand Field Theory
   Alexander A. Auer      : GIAO ZORA
   Ute Becker             : Parallelization
   Giovanni Bistoni       : ED, Open-shell LED
   Martin Brehm           : Molecular dynamics
   Dmytro Bykov           : SCF Hessian
   Vijay G. Chilkuri      : MRCI spin determinant printing
   Dipayan Datta          : RHF DLPNO-CCSD density
   Achintya Kumar Dutta   : EOM-CC, STEOM-CC
   Dmitry Ganyushin       : Spin-Orbit,Spin-Spin,Magnetic field MRCI
   Miquel Garcia          : C-PCM Hessian
   Yang Guo               : DLPNO-NEVPT2, CIM, IAO-localization
   Andreas Hansen         : Spin unrestricted coupled pair/coupled cluster methods
   Benjamin Helmich-Paris : CASSCF linear response (MC-RPA)
   Lee Huntington         : MR-EOM, pCC
   Robert Izsak           : Overlap fitted RIJCOSX, COSX-SCS-MP3, EOM
   Christian Kollmar      : KDIIS, OOCD, Brueckner-CCSD(T), CCSD density
   Simone Kossmann        : Meta GGA functionals, TD-DFT gradient, OOMP2, MP2 Hessian
   Martin Krupicka        : AUTO-CI
   Lucas Lang             : DCDCAS
   Dagmar Lenk            : GEPOL surface, SMD
   Dimitrios Liakos       : Extrapolation schemes; parallel MDCI
   Dimitrios Manganas     : ROCIS; embedding schemes
   Dimitrios Pantazis     : SARC Basis sets
   Taras Petrenko         : DFT Hessian,TD-DFT gradient, ASA, ECA, R-Raman, ABS, FL, XAS/XES, NRVS
   Peter Pinski           : DLPNO-MP2, DLPNO-MP2 Gradient
   Christoph Reimann      : Effective Core Potentials
   Marius Retegan         : Local ZFS, SOC
   Christoph Riplinger    : Optimizer, TS searches, QM/MM, DLPNO-CCSD(T), (RO)-DLPNO pert. Triples
   Tobias Risthaus        : Range-separated hybrids, TD-DFT gradient, RPA, STAB
   Michael Roemelt        : Restricted open shell CIS
   Masaaki Saitow         : Open-shell DLPNO
   Barbara Sandhoefer     : DKH picture change effects
   Avijit Sen             : IP-ROCIS
   Kantharuban Sivalingam : CASSCF convergence, NEVPT2, FIC-MRCI
   Bernardo de Souza      : ESD, SOC TD-DFT
   Georgi Stoychev        : AutoAux, RI-MP2 NMR
   Willem Van den Heuvel  : Paramagnetic NMR
   Boris Wezisla          : Elementary symmetry handling
   Frank Wennmohs         : Technical directorship


 We gratefully acknowledge several colleagues who have allowed us to
 interface, adapt or use parts of their codes:
   Stefan Grimme, W. Hujo, H. Kruse,             : VdW corrections, initial TS optimization,
                  C. Bannwarth                     DFT functionals, gCP, sTDA/sTD-DF
   Ed Valeev                                     : LibInt (2-el integral package), F12 methods
   Garnet Chan, S. Sharma, J. Yang, R. Olivares  : DMRG
   Ulf Ekstrom                                   : XCFun DFT Library
   Mihaly Kallay                                 : mrcc  (arbitrary order and MRCC methods)
   Andreas Klamt, Michael Diedenhofen            : otool_cosmo (COSMO solvation model)
   Jiri Pittner, Ondrej Demel                    : Mk-CCSD
   Frank Weinhold                                : gennbo (NPA and NBO analysis)
   Christopher J. Cramer and Donald G. Truhlar   : smd solvation model
   Lars Goerigk                                  : TD-DFT with DH, B97 family of functionals
   V. Asgeirsson, H. Jonsson                     : NEB implementation
   FAccTs GmbH                                   : IRC, NEB, NEB-TS, Multilevel


 Your calculation uses the libint2 library for the computation of 2-el integrals
 For citations please refer to: http://libint.valeyev.net

 This ORCA versions uses:
   CBLAS   interface :  Fast vector & matrix operations
   LAPACKE interface :  Fast linear algebra routines
   SCALAPACK package :  Parallel linear algebra routines


----- Orbital basis set information -----
Your calculation utilizes the basis: aug-pc-4
   H, C-F              : F. Jensen, J. Chem. Phys. 115, 9113 (2001).
                         F. Jensen, J. Chem. Phys. 116, 7372 (2002).
                         F. Jensen, J. Chem. Phys. 117, 9234 (2002).
   Si-Cl               : F. Jensen, T. Helgaker, J. Chem. Phys. 121, 3463 (2004).
   He-B, Ne-Mg, Al, Ar : F. Jensen, J. Phys. Chem. A 111, 11198 (2007).
   K, Ca, Ga-Kr        : F. Jensen, J. Chem. Phys. 136, 094110 (2012).
   Sc-Zn               : F. Jensen, J. Chem. Phys. 138, 014107 (2013).

================================================================================
                                        WARNINGS
                       Please study these warnings very carefully!
================================================================================


INFO   : the flag for use of LIBINT has been found!

================================================================================
                                       INPUT FILE
================================================================================
NAME = hcn_pbe.inp
|  1> !uks pbe nori aug-pc-4 grid7 nofinalgrid verytightscf
|  2> 
|  3> %maxcore 1500
|  4> 
|  5> %pal nprocs 1 end
|  6> 
|  7> %scf
|  8> 	maxiter 200
|  9> end
| 10> %elprop
| 11> 	dipole true
| 12> 	 polar 1
| 13> 	 maxiter 200
| 14> end
| 15> 
| 16> * xyz 0 1
| 17> C 0.0000 0.0000 0.0000
| 18> H 0.0000 0.0000 1.0640
| 19> N 0.0000 0.0000 -1.1560
| 20> *
| 21> 
| 22>                          ****END OF INPUT****
================================================================================

                       ****************************
                       * Single Point Calculation *
                       ****************************

---------------------------------
CARTESIAN COORDINATES (ANGSTROEM)
---------------------------------
  C      0.000000    0.000000    0.000000
  H      0.000000    0.000000    1.064000
  N      0.000000    0.000000   -1.156000

----------------------------
CARTESIAN COORDINATES (A.U.)
----------------------------
  NO LB      ZA    FRAG     MASS         X           Y           Z
   0 C     6.0000    0    12.011    0.000000    0.000000    0.000000
   1 H     1.0000    0     1.008    0.000000    0.000000    2.010669
   2 N     7.0000    0    14.007    0.000000    0.000000   -2.184523

--------------------------------
INTERNAL COORDINATES (ANGSTROEM)
--------------------------------
 C      0   0   0     0.000000000000     0.00000000     0.00000000
 H      1   0   0     1.064000000000     0.00000000     0.00000000
 N      1   2   0     1.156000000000   179.99999829     0.00000000

---------------------------
INTERNAL COORDINATES (A.U.)
---------------------------
 C      0   0   0     0.000000000000     0.00000000     0.00000000
 H      1   0   0     2.010668606492     0.00000000     0.00000000
 N      1   2   0     2.184523410813   179.99999829     0.00000000

---------------------
BASIS SET INFORMATION
---------------------
There are 3 groups of distinct atoms

 Group   1 Type C   : 28s12p7d4f3g2h contracted to 9s8p7d4f3g2h pattern {11101111111/51111111/1111111/1111/111/11}
 Group   2 Type H   : 12s7p4d3f2g contracted to 8s7p4d3f2g pattern {51111111/1111111/1111/111/11}
 Group   3 Type N   : 27s12p7d4f3g2h contracted to 9s8p7d4f3g2h pattern {1191111111/51111111/1111111/1111/111/11}

Atom   0C    basis set group =>   1
Atom   1H    basis set group =>   2
Atom   2N    basis set group =>   3
------------------------------------------------------------------------------
                           ORCA GTO INTEGRAL CALCULATION
------------------------------------------------------------------------------

                         BASIS SET STATISTICS AND STARTUP INFO

 # of primitive gaussian shells          ...  139
 # of primitive gaussian functions       ...  443
 # of contracted shells                  ...   90
 # of contracted basis functions         ...  378
 Highest angular momentum                ...    5
 Maximum contraction depth               ...   11
 Integral package used                   ... LIBINT
 Integral threshhold            Thresh   ...  1.000e-12
 Primitive cut-off              TCut     ...  1.000e-14


------------------------------ INTEGRAL EVALUATION ----------------------------


 * One electron integrals 
 Pre-screening matrix                    ... done
 Shell pair data                         ... done (   0.001 sec)

-------------------------------------------------------------------------------
                                 ORCA SCF
-------------------------------------------------------------------------------

------------
SCF SETTINGS
------------
Hamiltonian:
 Density Functional     Method          .... DFT(GTOs)
 Exchange Functional    Exchange        .... PBE
   PBE kappa parameter   XKappa         ....  0.804000
   PBE mue parameter    XMuePBE         ....  0.219520
 Correlation Functional Correlation     .... PBE
   PBE beta parameter  CBetaPBE         ....  0.066725
 LDA part of GGA corr.  LDAOpt          .... PW91-LDA
 Gradients option       PostSCFGGA      .... off
   Density functional embedding theory  .... OFF
   NL short-range parameter             ....  6.400000


General Settings:
 Integral files         IntName         .... hcn_pbe
 Hartree-Fock type      HFTyp           .... UHF
 Total Charge           Charge          ....    0
 Multiplicity           Mult            ....    1
 Number of Electrons    NEL             ....   14
 Basis Dimension        Dim             ....  378
 Nuclear Repulsion      ENuc            ....     23.8788203319 Eh

Convergence Acceleration:
 DIIS                   CNVDIIS         .... on
   Start iteration      DIISMaxIt       ....    12
   Startup error        DIISStart       ....  0.200000
   # of expansion vecs  DIISMaxEq       ....     5
   Bias factor          DIISBfac        ....   1.050
   Max. coefficient     DIISMaxC        ....  10.000
 Newton-Raphson         CNVNR           .... off
 SOSCF                  CNVSOSCF        .... off
 Level Shifting         CNVShift        .... on
   Level shift para.    LevelShift      ....    0.2500
   Turn off err/grad.   ShiftErr        ....    0.0010
 Zerner damping         CNVZerner       .... off
 Static damping         CNVDamp         .... on
   Fraction old density DampFac         ....    0.7000
   Max. Damping (<1)    DampMax         ....    0.9800
   Min. Damping (>=0)   DampMin         ....    0.0000
   Turn off err/grad.   DampErr         ....    0.1000
 Fernandez-Rico         CNVRico         .... off

SCF Procedure:
 Maximum # iterations   MaxIter         ....   200
 SCF integral mode      SCFMode         .... Direct
   Integral package                     .... LIBINT
 Reset frequency        DirectResetFreq ....    20
 Integral Threshold     Thresh          ....  1.000e-12 Eh
 Primitive CutOff       TCut            ....  1.000e-14 Eh

Convergence Tolerance:
 Convergence Check Mode ConvCheckMode   .... Total+1el-Energy
 Convergence forced     ConvForced      .... 0
 Energy Change          TolE            ....  1.000e-09 Eh
 1-El. energy change                    ....  1.000e-06 Eh
 DIIS Error             TolErr          ....  1.000e-08


Diagonalization of the overlap matrix:
Smallest eigenvalue                        ... 2.716e-07
Time for diagonalization                   ...    0.028 sec
Threshold for overlap eigenvalues          ... 1.000e-08
Number of eigenvalues below threshold      ... 0
Time for construction of square roots      ...    0.019 sec
Total time needed                          ...    0.048 sec

-------------------
DFT GRID GENERATION
-------------------

General Integration Accuracy     IntAcc      ...  5.670
Radial Grid Type                 RadialGrid  ... Gauss-Chebyshev
Angular Grid (max. acc.)         AngularGrid ... Lebedev-770
Angular grid pruning method      GridPruning ... 3 (G Style)
Weight generation scheme         WeightScheme... Becke
Basis function cutoff            BFCut       ...    1.0000e-12
Integration weight cutoff        WCut        ...    1.0000e-14
Grids for H and He will be reduced by one unit

# of grid points (after initial pruning)     ...  67904 (   0.0 sec)
# of grid points (after weights+screening)   ...  67089 (   0.0 sec)
nearest neighbour list constructed           ...    0.0 sec
Grid point re-assignment to atoms done       ...    0.0 sec
Grid point division into batches done        ...    1.4 sec
Reduced shell lists constructed in    2.3 sec

Total number of grid points                  ...    67089
Total number of batches                      ...     1050
Average number of points per batch           ...       63
Average number of grid points per atom       ...    22363
Average number of shells per batch           ...    68.03 (75.59%)
Average number of basis functions per batch  ...   293.22 (77.57%)
Average number of large shells per batch     ...    61.35 (90.18%)
Average number of large basis fcns per batch ...   265.74 (90.63%)
Maximum spatial batch extension              ...  21.15, 21.15, 20.47 au
Average spatial batch extension              ...   2.42,  2.41,  2.01 au

Time for grid setup =    2.344 sec

------------------------------
INITIAL GUESS: MODEL POTENTIAL
------------------------------
Loading Hartree-Fock densities                     ... done
Calculating cut-offs                               ... done
Setting up the integral package                    ... done
Initializing the effective Hamiltonian             ... done
Starting the Coulomb interaction                   ... done (   0.1 sec)
Reading the grid                                   ... done
Mapping shells                                     ... done
Starting the XC term evaluation                    ... done (   4.8 sec)
  promolecular density results
     # of electrons  =     13.999510864
     EX              =    -11.842719352
     EC              =     -0.432642058
     EX+EC           =    -12.275361410
Transforming the Hamiltonian                       ... done (   0.0 sec)
Diagonalizing the Hamiltonian                      ... done (   0.0 sec)
Back transforming the eigenvectors                 ... done (   0.0 sec)
Now organizing SCF variables                       ... done
                      ------------------
                      INITIAL GUESS DONE (   7.5 sec)
                      ------------------
--------------
SCF ITERATIONS
--------------
ITER       Energy         Delta-E        Max-DP      RMS-DP      [F,P]     Damp
               ***  Starting incremental Fock matrix formation  ***
  0    -93.2684011105   0.000000000000 0.01304586  0.00016087  0.2664339 0.7000
  1    -93.3158970949  -0.047495984468 0.00718536  0.00009298  0.0703649 0.7000
                               ***Turning on DIIS***
  2    -93.3243008489  -0.008403753977 0.02451042  0.00016612  0.0480394 0.0000
  3    -93.3515424511  -0.027241602129 0.00796332  0.00007076  0.0390129 0.0000
  4    -93.3533241840  -0.001781732981 0.00301554  0.00002675  0.0375624 0.0000
  5    -93.3546445536  -0.001320369557 0.00054014  0.00000939  0.0109605 0.0000
  6    -93.3547607496  -0.000116195991 0.00022273  0.00000290  0.0029181 0.0000
  7    -93.3547689195  -0.000008169888 0.00008575  0.00000141  0.0009027 0.0000
  8    -93.3547698296  -0.000000910096 0.00001683  0.00000027  0.0001564 0.0000
  9    -93.3547698527  -0.000000023161 0.00002307  0.00000021  0.0000402 0.0000
 10    -93.3547698549  -0.000000002188 0.00003026  0.00000023  0.0000060 0.0000
 11    -93.3547698550  -0.000000000061 0.00002380  0.00000032  0.0000005 0.0000
                 **** Energy Check signals convergence ****

               *****************************************************
               *                     SUCCESS                       *
               *           SCF CONVERGED AFTER  12 CYCLES          *
               *****************************************************


----------------
TOTAL SCF ENERGY
----------------

Total Energy       :          -93.35476985 Eh           -2540.31243 eV

Components:
Nuclear Repulsion  :           23.87882033 Eh             649.77574 eV
Electronic Energy  :         -117.23359019 Eh           -3190.08817 eV
One Electron Energy:         -172.82427178 Eh           -4702.78752 eV
Two Electron Energy:           55.59068159 Eh            1512.69935 eV

Virial components:
Potential Energy   :         -186.37069599 Eh           -5071.40446 eV
Kinetic Energy     :           93.01592614 Eh            2531.09203 eV
Virial Ratio       :            2.00364286


DFT components:
N(Alpha)           :        7.000000151721 electrons
N(Beta)            :        7.000000151721 electrons
N(Total)           :       14.000000303442 electrons
E(X)               :      -12.045907165507 Eh       
E(C)               :       -0.439664506149 Eh       
E(XC)              :      -12.485571671656 Eh       
DFET-embed. en.    :        0.000000000000 Eh       

---------------
SCF CONVERGENCE
---------------

  Last Energy change         ...   -3.0553e-12  Tolerance :   1.0000e-09
  Last MAX-Density change    ...    1.9338e-04  Tolerance :   1.0000e-08
  Last RMS-Density change    ...    1.6088e-06  Tolerance :   1.0000e-09
  Last DIIS Error            ...    5.4340e-08  Tolerance :   1.0000e-08

             **** THE GBW FILE WAS UPDATED (hcn_pbe.gbw) ****
             **** DENSITY FILE WAS UPDATED (hcn_pbe.scfp.tmp) ****
             **** ENERGY FILE WAS UPDATED (hcn_pbe.en.tmp) ****
----------------------
UHF SPIN CONTAMINATION
----------------------

Warning: in a DFT calculation there is little theoretical justification to 
         calculate <S**2> as in Hartree-Fock theory. We will do it anyways
         but you should keep in mind that the values have only limited relevance

Expectation value of <S**2>     :    -0.000000
Ideal value S*(S+1) for S=0.0   :     0.000000
Deviation                       :    -0.000000

----------------
ORBITAL ENERGIES
----------------
                 SPIN UP ORBITALS
  NO   OCC          E(Eh)            E(eV) 
   0   1.0000     -14.010130      -381.2350 
   1   1.0000      -9.940164      -270.4856 
   2   1.0000      -0.844929       -22.9917 
   3   1.0000      -0.557272       -15.1642 
   4   1.0000      -0.335960        -9.1419 
   5   1.0000      -0.331608        -9.0235 
   6   1.0000      -0.331608        -9.0235 
   7   0.0000      -0.041593        -1.1318 
   8   0.0000      -0.041593        -1.1318 
   9   0.0000      -0.013757        -0.3743 
  10   0.0000       0.005320         0.1448 
  11   0.0000       0.019444         0.5291 
  12   0.0000       0.019444         0.5291 
  13   0.0000       0.037884         1.0309 
  14   0.0000       0.041063         1.1174 
  15   0.0000       0.052264         1.4222 
  16   0.0000       0.056402         1.5348 
  17   0.0000       0.056402         1.5348 
  18   0.0000       0.081630         2.2213 
  19   0.0000       0.081630         2.2213 
  20   0.0000       0.084611         2.3024 
  21   0.0000       0.084611         2.3024 
  22   0.0000       0.106276         2.8919 
  23   0.0000       0.111279         3.0280 
  24   0.0000       0.114622         3.1190 
  25   0.0000       0.114622         3.1190 
  26   0.0000       0.136178         3.7056 
  27   0.0000       0.145577         3.9614 
  28   0.0000       0.162790         4.4297 
  29   0.0000       0.162790         4.4297 
  30   0.0000       0.166656         4.5349 
  31   0.0000       0.166656         4.5349 
  32   0.0000       0.184405         5.0179 
  33   0.0000       0.184405         5.0179 
  34   0.0000       0.187818         5.1108 
  35   0.0000       0.204076         5.5532 
  36   0.0000       0.204077         5.5532 
  37   0.0000       0.216912         5.9025 
  38   0.0000       0.216912         5.9025 
  39   0.0000       0.223908         6.0929 
  40   0.0000       0.223908         6.0929 
  41   0.0000       0.241151         6.5621 
  42   0.0000       0.249972         6.8021 
  43   0.0000       0.257139         6.9971 
  44   0.0000       0.257139         6.9971 
  45   0.0000       0.287451         7.8219 
  46   0.0000       0.298615         8.1257 
  47   0.0000       0.298615         8.1257 
  48   0.0000       0.302010         8.2181 
  49   0.0000       0.319045         8.6816 
  50   0.0000       0.337035         9.1712 
  51   0.0000       0.337035         9.1712 
  52   0.0000       0.342994         9.3333 
  53   0.0000       0.342994         9.3333 
  54   0.0000       0.346416         9.4265 
  55   0.0000       0.346416         9.4265 
  56   0.0000       0.346741         9.4353 
  57   0.0000       0.346741         9.4353 
  58   0.0000       0.382641        10.4122 
  59   0.0000       0.382641        10.4122 
  60   0.0000       0.395453        10.7608 
  61   0.0000       0.395576        10.7642 
  62   0.0000       0.395576        10.7642 
  63   0.0000       0.415497        11.3062 
  64   0.0000       0.415497        11.3062 
  65   0.0000       0.456586        12.4244 
  66   0.0000       0.456587        12.4244 
  67   0.0000       0.458024        12.4635 
  68   0.0000       0.458024        12.4635 
  69   0.0000       0.463854        12.6221 
  70   0.0000       0.463854        12.6221 
  71   0.0000       0.476972        12.9791 
  72   0.0000       0.484252        13.1772 
  73   0.0000       0.490222        13.3396 
  74   0.0000       0.490222        13.3396 
  75   0.0000       0.495772        13.4906 
  76   0.0000       0.495772        13.4906 
  77   0.0000       0.498055        13.5528 
  78   0.0000       0.518011        14.0958 
  79   0.0000       0.518011        14.0958 
  80   0.0000       0.519243        14.1293 
  81   0.0000       0.541143        14.7252 
  82   0.0000       0.541143        14.7252 
  83   0.0000       0.558142        15.1878 
  84   0.0000       0.558142        15.1878 
  85   0.0000       0.560016        15.2388 
  86   0.0000       0.560016        15.2388 
  87   0.0000       0.564603        15.3636 
  88   0.0000       0.564603        15.3636 
  89   0.0000       0.581519        15.8239 
  90   0.0000       0.614527        16.7221 
  91   0.0000       0.637238        17.3401 
  92   0.0000       0.637238        17.3401 
  93   0.0000       0.648271        17.6403 
  94   0.0000       0.648271        17.6403 
  95   0.0000       0.681157        18.5352 
  96   0.0000       0.681157        18.5352 
  97   0.0000       0.724106        19.7039 
  98   0.0000       0.730345        19.8737 
  99   0.0000       0.730345        19.8737 
 100   0.0000       0.746874        20.3235 
 101   0.0000       0.746874        20.3235 
 102   0.0000       0.784179        21.3386 
 103   0.0000       0.784179        21.3386 
 104   0.0000       0.787262        21.4225 
 105   0.0000       0.787262        21.4225 
 106   0.0000       0.788675        21.4609 
 107   0.0000       0.801113        21.7994 
 108   0.0000       0.833817        22.6893 
 109   0.0000       0.833817        22.6893 
 110   0.0000       0.834074        22.6963 
 111   0.0000       0.834074        22.6963 
 112   0.0000       0.844259        22.9734 
 113   0.0000       0.844259        22.9734 
 114   0.0000       0.856201        23.2984 
 115   0.0000       0.856201        23.2984 
 116   0.0000       0.869839        23.6695 
 117   0.0000       0.880047        23.9473 
 118   0.0000       0.880047        23.9473 
 119   0.0000       0.891929        24.2706 
 120   0.0000       0.891929        24.2706 
 121   0.0000       0.894224        24.3331 
 122   0.0000       0.896750        24.4018 
 123   0.0000       0.896750        24.4018 
 124   0.0000       0.928254        25.2591 
 125   0.0000       0.928254        25.2591 
 126   0.0000       0.939012        25.5518 
 127   0.0000       0.939012        25.5518 
 128   0.0000       0.940839        25.6015 
 129   0.0000       0.952542        25.9200 
 130   0.0000       0.952542        25.9200 
 131   0.0000       0.953407        25.9435 
 132   0.0000       0.953407        25.9435 
 133   0.0000       1.071402        29.1543 
 134   0.0000       1.071402        29.1543 
 135   0.0000       1.075166        29.2567 
 136   0.0000       1.094015        29.7697 
 137   0.0000       1.094015        29.7697 
 138   0.0000       1.114284        30.3212 
 139   0.0000       1.162949        31.6454 
 140   0.0000       1.162949        31.6454 
 141   0.0000       1.183181        32.1960 
 142   0.0000       1.214120        33.0379 
 143   0.0000       1.251338        34.0506 
 144   0.0000       1.251338        34.0506 
 145   0.0000       1.373593        37.3774 
 146   0.0000       1.373593        37.3774 
 147   0.0000       1.482233        40.3336 
 148   0.0000       1.483129        40.3580 
 149   0.0000       1.483129        40.3580 
 150   0.0000       1.566997        42.6402 
 151   0.0000       1.566997        42.6402 
 152   0.0000       1.572245        42.7830 
 153   0.0000       1.608305        43.7642 
 154   0.0000       1.614137        43.9229 
 155   0.0000       1.614137        43.9229 
 156   0.0000       1.695579        46.1391 
 157   0.0000       1.695579        46.1391 
 158   0.0000       1.749522        47.6069 
 159   0.0000       1.749522        47.6069 
 160   0.0000       1.780462        48.4488 
 161   0.0000       1.873341        50.9762 
 162   0.0000       1.873341        50.9762 
 163   0.0000       1.893320        51.5199 
 164   0.0000       1.893320        51.5199 
 165   0.0000       1.904073        51.8125 
 166   0.0000       2.020400        54.9779 
 167   0.0000       2.020400        54.9779 
 168   0.0000       2.084849        56.7316 
 169   0.0000       2.084849        56.7316 
 170   0.0000       2.125990        57.8511 
 171   0.0000       2.204526        59.9882 
 172   0.0000       2.204526        59.9882 
 173   0.0000       2.319936        63.1287 
 174   0.0000       2.374546        64.6147 
 175   0.0000       2.374546        64.6147 
 176   0.0000       2.418805        65.8190 
 177   0.0000       2.418805        65.8190 
 178   0.0000       2.450497        66.6814 
 179   0.0000       2.570679        69.9517 
 180   0.0000       2.770009        75.3758 
 181   0.0000       2.770009        75.3758 
 182   0.0000       2.887495        78.5727 
 183   0.0000       3.047908        82.9378 
 184   0.0000       3.058458        83.2249 
 185   0.0000       3.058458        83.2249 
 186   0.0000       3.102098        84.4124 
 187   0.0000       3.102098        84.4124 
 188   0.0000       3.140470        85.4565 
 189   0.0000       3.140470        85.4565 
 190   0.0000       3.393023        92.3288 
 191   0.0000       3.481571        94.7384 
 192   0.0000       3.481571        94.7384 
 193   0.0000       3.515323        95.6568 
 194   0.0000       3.515323        95.6568 
 195   0.0000       3.550698        96.6194 
 196   0.0000       3.605367        98.1070 
 197   0.0000       3.605367        98.1070 
 198   0.0000       3.887993       105.7977 
 199   0.0000       3.902897       106.2032 
 200   0.0000       3.902897       106.2032 
 201   0.0000       4.034016       109.7712 
 202   0.0000       4.034016       109.7712 
 203   0.0000       4.075314       110.8949 
 204   0.0000       4.081034       111.0506 
 205   0.0000       4.081034       111.0506 
 206   0.0000       4.122003       112.1654 
 207   0.0000       4.122003       112.1654 
 208   0.0000       4.203471       114.3823 
 209   0.0000       4.203471       114.3823 
 210   0.0000       4.237497       115.3082 
 211   0.0000       4.354955       118.5044 
 212   0.0000       4.354955       118.5044 
 213   0.0000       4.388264       119.4107 
 214   0.0000       4.388264       119.4107 
 215   0.0000       4.557835       124.0250 
 216   0.0000       4.557835       124.0250 
 217   0.0000       4.615605       125.5970 
 218   0.0000       4.628531       125.9487 
 219   0.0000       4.628531       125.9487 
 220   0.0000       4.700622       127.9104 
 221   0.0000       4.700622       127.9104 
 222   0.0000       4.766825       129.7119 
 223   0.0000       4.766825       129.7119 
 224   0.0000       4.908090       133.5559 
 225   0.0000       5.007280       136.2550 
 226   0.0000       5.041829       137.1951 
 227   0.0000       5.041829       137.1951 
 228   0.0000       5.076378       138.1353 
 229   0.0000       5.076378       138.1353 
 230   0.0000       5.634503       153.3226 
 231   0.0000       5.634503       153.3226 
 232   0.0000       5.728851       155.8900 
 233   0.0000       5.728851       155.8900 
 234   0.0000       5.764375       156.8566 
 235   0.0000       5.955433       162.0556 
 236   0.0000       5.955433       162.0556 
 237   0.0000       6.043309       164.4468 
 238   0.0000       6.289759       171.1531 
 239   0.0000       6.289759       171.1531 
 240   0.0000       6.501316       176.9098 
 241   0.0000       6.556487       178.4111 
 242   0.0000       6.556487       178.4111 
 243   0.0000       6.811432       185.3485 
 244   0.0000       6.811432       185.3485 
 245   0.0000       6.852850       186.4755 
 246   0.0000       6.852850       186.4755 
 247   0.0000       7.140397       194.3001 
 248   0.0000       7.266082       197.7201 
 249   0.0000       7.310163       198.9196 
 250   0.0000       7.310163       198.9197 
 251   0.0000       7.482690       203.6144 
 252   0.0000       7.482690       203.6144 
 253   0.0000       7.643529       207.9910 
 254   0.0000       8.121998       221.0108 
 255   0.0000       8.415489       228.9971 
 256   0.0000       8.584227       233.5887 
 257   0.0000       8.584227       233.5887 
 258   0.0000       8.793180       239.2746 
 259   0.0000       8.793180       239.2746 
 260   0.0000       8.845559       240.6999 
 261   0.0000       8.845559       240.6999 
 262   0.0000       9.447132       257.0695 
 263   0.0000       9.447132       257.0695 
 264   0.0000       9.463959       257.5274 
 265   0.0000       9.931429       270.2479 
 266   0.0000      10.025806       272.8160 
 267   0.0000      10.025806       272.8160 
 268   0.0000      10.148643       276.1586 
 269   0.0000      10.148643       276.1586 
 270   0.0000      10.343033       281.4482 
 271   0.0000      10.343033       281.4482 
 272   0.0000      10.373754       282.2842 
 273   0.0000      10.373754       282.2842 
 274   0.0000      10.457027       284.5502 
 275   0.0000      10.457027       284.5502 
 276   0.0000      10.472295       284.9656 
 277   0.0000      10.472295       284.9656 
 278   0.0000      10.732343       292.0419 
 279   0.0000      10.732343       292.0419 
 280   0.0000      10.851848       295.2938 
 281   0.0000      11.068311       301.1841 
 282   0.0000      11.178450       304.1811 
 283   0.0000      11.178450       304.1811 
 284   0.0000      11.179185       304.2011 
 285   0.0000      11.179185       304.2011 
 286   0.0000      11.398573       310.1709 
 287   0.0000      11.398573       310.1709 
 288   0.0000      11.497390       312.8599 
 289   0.0000      11.497390       312.8599 
 290   0.0000      11.685982       317.9917 
 291   0.0000      11.685982       317.9917 
 292   0.0000      11.714750       318.7745 
 293   0.0000      11.714750       318.7746 
 294   0.0000      11.721372       318.9547 
 295   0.0000      11.721372       318.9547 
 296   0.0000      11.756263       319.9042 
 297   0.0000      11.762510       320.0742 
 298   0.0000      11.762510       320.0742 
 299   0.0000      11.810391       321.3771 
 300   0.0000      11.810391       321.3771 
 301   0.0000      11.874872       323.1317 
 302   0.0000      12.005806       326.6946 
 303   0.0000      12.005806       326.6946 
 304   0.0000      12.055807       328.0552 
 305   0.0000      12.055807       328.0552 
 306   0.0000      12.309355       334.9546 
 307   0.0000      12.309355       334.9546 
 308   0.0000      12.453569       338.8788 
 309   0.0000      13.118757       356.9795 
 310   0.0000      13.118757       356.9795 
 311   0.0000      13.196308       359.0898 
 312   0.0000      13.196308       359.0898 
 313   0.0000      13.326514       362.6329 
 314   0.0000      13.662228       371.7681 
 315   0.0000      13.662228       371.7681 
 316   0.0000      13.725070       373.4781 
 317   0.0000      13.725070       373.4781 
 318   0.0000      14.090782       383.4297 
 319   0.0000      14.266521       388.2118 
 320   0.0000      14.266521       388.2118 
 321   0.0000      14.546029       395.8176 
 322   0.0000      14.546029       395.8176 
 323   0.0000      15.236479       414.6057 
 324   0.0000      15.236479       414.6057 
 325   0.0000      15.281126       415.8206 
 326   0.0000      15.281126       415.8206 
 327   0.0000      15.284362       415.9086 
 328   0.0000      15.700942       427.2444 
 329   0.0000      15.700942       427.2444 
 330   0.0000      16.047782       436.6823 
 331   0.0000      16.209152       441.0734 
 332   0.0000      16.209152       441.0734 
 333   0.0000      16.492134       448.7738 
 334   0.0000      16.659921       453.3395 
 335   0.0000      16.659921       453.3395 
 336   0.0000      16.966931       461.6937 
 337   0.0000      16.966931       461.6937 
 338   0.0000      17.004957       462.7284 
 339   0.0000      17.004957       462.7284 
 340   0.0000      17.135286       466.2748 
 341   0.0000      17.135286       466.2748 
 342   0.0000      17.575902       478.2646 
 343   0.0000      18.164109       494.2705 
 344   0.0000      18.164109       494.2705 
 345   0.0000      18.241133       496.3665 
 346   0.0000      19.026873       517.7475 
 347   0.0000      19.026873       517.7475 
 348   0.0000      19.548351       531.9377 
 349   0.0000      19.548351       531.9377 
 350   0.0000      19.678516       535.4796 
 351   0.0000      20.605297       560.6986 
 352   0.0000      21.155434       575.6686 
 353   0.0000      21.155434       575.6686 
 354   0.0000      23.314184       634.4112 
 355   0.0000      23.782043       647.1423 
 356   0.0000      23.782043       647.1423 
 357   0.0000      24.855629       676.3561 
 358   0.0000      26.115097       710.6279 
 359   0.0000      26.305949       715.8213 
 360   0.0000      26.305949       715.8213 
 361   0.0000      28.366603       771.8945 
 362   0.0000      31.893972       867.8791 
 363   0.0000      31.893975       867.8792 
 364   0.0000      33.175018       902.7381 
 365   0.0000      33.175018       902.7381 
 366   0.0000      35.462056       964.9716 
 367   0.0000      41.359314      1125.4441 
 368   0.0000      47.721740      1298.5746 
 369   0.0000      47.721745      1298.5747 
 370   0.0000      48.133978      1309.7921 
 371   0.0000      48.133978      1309.7921 
 372   0.0000      49.042125      1334.5041 
 373   0.0000      76.753661      2088.5733 
 374   0.0000      91.185265      2481.2772 
 375   0.0000      91.185265      2481.2772 
 376   0.0000      92.486510      2516.6859 
 377   0.0000     105.404423      2868.2002 

                 SPIN DOWN ORBITALS
  NO   OCC          E(Eh)            E(eV) 
   0   1.0000     -14.010130      -381.2350 
   1   1.0000      -9.940164      -270.4856 
   2   1.0000      -0.844929       -22.9917 
   3   1.0000      -0.557272       -15.1642 
   4   1.0000      -0.335960        -9.1419 
   5   1.0000      -0.331608        -9.0235 
   6   1.0000      -0.331608        -9.0235 
   7   0.0000      -0.041593        -1.1318 
   8   0.0000      -0.041593        -1.1318 
   9   0.0000      -0.013757        -0.3743 
  10   0.0000       0.005320         0.1448 
  11   0.0000       0.019444         0.5291 
  12   0.0000       0.019444         0.5291 
  13   0.0000       0.037884         1.0309 
  14   0.0000       0.041063         1.1174 
  15   0.0000       0.052264         1.4222 
  16   0.0000       0.056402         1.5348 
  17   0.0000       0.056402         1.5348 
  18   0.0000       0.081630         2.2213 
  19   0.0000       0.081630         2.2213 
  20   0.0000       0.084611         2.3024 
  21   0.0000       0.084611         2.3024 
  22   0.0000       0.106276         2.8919 
  23   0.0000       0.111279         3.0280 
  24   0.0000       0.114622         3.1190 
  25   0.0000       0.114622         3.1190 
  26   0.0000       0.136178         3.7056 
  27   0.0000       0.145577         3.9614 
  28   0.0000       0.162790         4.4297 
  29   0.0000       0.162790         4.4297 
  30   0.0000       0.166656         4.5349 
  31   0.0000       0.166656         4.5349 
  32   0.0000       0.184405         5.0179 
  33   0.0000       0.184405         5.0179 
  34   0.0000       0.187818         5.1108 
  35   0.0000       0.204076         5.5532 
  36   0.0000       0.204077         5.5532 
  37   0.0000       0.216912         5.9025 
  38   0.0000       0.216912         5.9025 
  39   0.0000       0.223908         6.0929 
  40   0.0000       0.223908         6.0929 
  41   0.0000       0.241151         6.5621 
  42   0.0000       0.249972         6.8021 
  43   0.0000       0.257139         6.9971 
  44   0.0000       0.257139         6.9971 
  45   0.0000       0.287451         7.8219 
  46   0.0000       0.298615         8.1257 
  47   0.0000       0.298615         8.1257 
  48   0.0000       0.302010         8.2181 
  49   0.0000       0.319045         8.6816 
  50   0.0000       0.337035         9.1712 
  51   0.0000       0.337035         9.1712 
  52   0.0000       0.342994         9.3333 
  53   0.0000       0.342994         9.3333 
  54   0.0000       0.346416         9.4265 
  55   0.0000       0.346416         9.4265 
  56   0.0000       0.346741         9.4353 
  57   0.0000       0.346741         9.4353 
  58   0.0000       0.382641        10.4122 
  59   0.0000       0.382641        10.4122 
  60   0.0000       0.395453        10.7608 
  61   0.0000       0.395576        10.7642 
  62   0.0000       0.395576        10.7642 
  63   0.0000       0.415497        11.3062 
  64   0.0000       0.415497        11.3062 
  65   0.0000       0.456586        12.4244 
  66   0.0000       0.456587        12.4244 
  67   0.0000       0.458024        12.4635 
  68   0.0000       0.458024        12.4635 
  69   0.0000       0.463854        12.6221 
  70   0.0000       0.463854        12.6221 
  71   0.0000       0.476972        12.9791 
  72   0.0000       0.484252        13.1772 
  73   0.0000       0.490222        13.3396 
  74   0.0000       0.490222        13.3396 
  75   0.0000       0.495772        13.4906 
  76   0.0000       0.495772        13.4906 
  77   0.0000       0.498055        13.5528 
  78   0.0000       0.518011        14.0958 
  79   0.0000       0.518011        14.0958 
  80   0.0000       0.519243        14.1293 
  81   0.0000       0.541143        14.7252 
  82   0.0000       0.541143        14.7252 
  83   0.0000       0.558142        15.1878 
  84   0.0000       0.558142        15.1878 
  85   0.0000       0.560016        15.2388 
  86   0.0000       0.560016        15.2388 
  87   0.0000       0.564603        15.3636 
  88   0.0000       0.564603        15.3636 
  89   0.0000       0.581519        15.8239 
  90   0.0000       0.614527        16.7221 
  91   0.0000       0.637238        17.3401 
  92   0.0000       0.637238        17.3401 
  93   0.0000       0.648271        17.6403 
  94   0.0000       0.648271        17.6403 
  95   0.0000       0.681157        18.5352 
  96   0.0000       0.681157        18.5352 
  97   0.0000       0.724106        19.7039 
  98   0.0000       0.730345        19.8737 
  99   0.0000       0.730345        19.8737 
 100   0.0000       0.746874        20.3235 
 101   0.0000       0.746874        20.3235 
 102   0.0000       0.784179        21.3386 
 103   0.0000       0.784179        21.3386 
 104   0.0000       0.787262        21.4225 
 105   0.0000       0.787262        21.4225 
 106   0.0000       0.788675        21.4609 
 107   0.0000       0.801113        21.7994 
 108   0.0000       0.833817        22.6893 
 109   0.0000       0.833817        22.6893 
 110   0.0000       0.834074        22.6963 
 111   0.0000       0.834074        22.6963 
 112   0.0000       0.844259        22.9734 
 113   0.0000       0.844259        22.9734 
 114   0.0000       0.856201        23.2984 
 115   0.0000       0.856201        23.2984 
 116   0.0000       0.869839        23.6695 
 117   0.0000       0.880047        23.9473 
 118   0.0000       0.880047        23.9473 
 119   0.0000       0.891929        24.2706 
 120   0.0000       0.891929        24.2706 
 121   0.0000       0.894224        24.3331 
 122   0.0000       0.896750        24.4018 
 123   0.0000       0.896750        24.4018 
 124   0.0000       0.928254        25.2591 
 125   0.0000       0.928254        25.2591 
 126   0.0000       0.939012        25.5518 
 127   0.0000       0.939012        25.5518 
 128   0.0000       0.940839        25.6015 
 129   0.0000       0.952542        25.9200 
 130   0.0000       0.952542        25.9200 
 131   0.0000       0.953407        25.9435 
 132   0.0000       0.953407        25.9435 
 133   0.0000       1.071402        29.1543 
 134   0.0000       1.071402        29.1543 
 135   0.0000       1.075166        29.2567 
 136   0.0000       1.094015        29.7697 
 137   0.0000       1.094015        29.7697 
 138   0.0000       1.114284        30.3212 
 139   0.0000       1.162949        31.6454 
 140   0.0000       1.162949        31.6454 
 141   0.0000       1.183181        32.1960 
 142   0.0000       1.214120        33.0379 
 143   0.0000       1.251338        34.0506 
 144   0.0000       1.251338        34.0506 
 145   0.0000       1.373593        37.3774 
 146   0.0000       1.373593        37.3774 
 147   0.0000       1.482233        40.3336 
 148   0.0000       1.483129        40.3580 
 149   0.0000       1.483129        40.3580 
 150   0.0000       1.566997        42.6402 
 151   0.0000       1.566997        42.6402 
 152   0.0000       1.572245        42.7830 
 153   0.0000       1.608305        43.7642 
 154   0.0000       1.614137        43.9229 
 155   0.0000       1.614137        43.9229 
 156   0.0000       1.695579        46.1391 
 157   0.0000       1.695579        46.1391 
 158   0.0000       1.749522        47.6069 
 159   0.0000       1.749522        47.6069 
 160   0.0000       1.780462        48.4488 
 161   0.0000       1.873341        50.9762 
 162   0.0000       1.873341        50.9762 
 163   0.0000       1.893320        51.5199 
 164   0.0000       1.893320        51.5199 
 165   0.0000       1.904073        51.8125 
 166   0.0000       2.020400        54.9779 
 167   0.0000       2.020400        54.9779 
 168   0.0000       2.084849        56.7316 
 169   0.0000       2.084849        56.7316 
 170   0.0000       2.125990        57.8511 
 171   0.0000       2.204526        59.9882 
 172   0.0000       2.204526        59.9882 
 173   0.0000       2.319936        63.1287 
 174   0.0000       2.374546        64.6147 
 175   0.0000       2.374546        64.6147 
 176   0.0000       2.418805        65.8190 
 177   0.0000       2.418805        65.8190 
 178   0.0000       2.450497        66.6814 
 179   0.0000       2.570679        69.9517 
 180   0.0000       2.770009        75.3758 
 181   0.0000       2.770009        75.3758 
 182   0.0000       2.887495        78.5727 
 183   0.0000       3.047908        82.9378 
 184   0.0000       3.058458        83.2249 
 185   0.0000       3.058458        83.2249 
 186   0.0000       3.102098        84.4124 
 187   0.0000       3.102098        84.4124 
 188   0.0000       3.140470        85.4565 
 189   0.0000       3.140470        85.4565 
 190   0.0000       3.393023        92.3288 
 191   0.0000       3.481571        94.7384 
 192   0.0000       3.481571        94.7384 
 193   0.0000       3.515323        95.6568 
 194   0.0000       3.515323        95.6568 
 195   0.0000       3.550698        96.6194 
 196   0.0000       3.605367        98.1070 
 197   0.0000       3.605367        98.1070 
 198   0.0000       3.887993       105.7977 
 199   0.0000       3.902897       106.2032 
 200   0.0000       3.902897       106.2032 
 201   0.0000       4.034016       109.7712 
 202   0.0000       4.034016       109.7712 
 203   0.0000       4.075314       110.8949 
 204   0.0000       4.081034       111.0506 
 205   0.0000       4.081034       111.0506 
 206   0.0000       4.122003       112.1654 
 207   0.0000       4.122003       112.1654 
 208   0.0000       4.203471       114.3823 
 209   0.0000       4.203471       114.3823 
 210   0.0000       4.237497       115.3082 
 211   0.0000       4.354955       118.5044 
 212   0.0000       4.354955       118.5044 
 213   0.0000       4.388264       119.4107 
 214   0.0000       4.388264       119.4107 
 215   0.0000       4.557835       124.0250 
 216   0.0000       4.557835       124.0250 
 217   0.0000       4.615605       125.5970 
 218   0.0000       4.628531       125.9487 
 219   0.0000       4.628531       125.9487 
 220   0.0000       4.700622       127.9104 
 221   0.0000       4.700622       127.9104 
 222   0.0000       4.766825       129.7119 
 223   0.0000       4.766825       129.7119 
 224   0.0000       4.908090       133.5559 
 225   0.0000       5.007280       136.2550 
 226   0.0000       5.041829       137.1951 
 227   0.0000       5.041829       137.1951 
 228   0.0000       5.076378       138.1353 
 229   0.0000       5.076378       138.1353 
 230   0.0000       5.634503       153.3226 
 231   0.0000       5.634503       153.3226 
 232   0.0000       5.728851       155.8900 
 233   0.0000       5.728851       155.8900 
 234   0.0000       5.764375       156.8566 
 235   0.0000       5.955433       162.0556 
 236   0.0000       5.955433       162.0556 
 237   0.0000       6.043309       164.4468 
 238   0.0000       6.289759       171.1531 
 239   0.0000       6.289759       171.1531 
 240   0.0000       6.501316       176.9098 
 241   0.0000       6.556487       178.4111 
 242   0.0000       6.556487       178.4111 
 243   0.0000       6.811432       185.3485 
 244   0.0000       6.811432       185.3485 
 245   0.0000       6.852850       186.4755 
 246   0.0000       6.852850       186.4755 
 247   0.0000       7.140397       194.3001 
 248   0.0000       7.266082       197.7201 
 249   0.0000       7.310163       198.9196 
 250   0.0000       7.310163       198.9197 
 251   0.0000       7.482690       203.6144 
 252   0.0000       7.482690       203.6144 
 253   0.0000       7.643529       207.9910 
 254   0.0000       8.121998       221.0108 
 255   0.0000       8.415489       228.9971 
 256   0.0000       8.584227       233.5887 
 257   0.0000       8.584227       233.5887 
 258   0.0000       8.793180       239.2746 
 259   0.0000       8.793180       239.2746 
 260   0.0000       8.845559       240.6999 
 261   0.0000       8.845559       240.6999 
 262   0.0000       9.447132       257.0695 
 263   0.0000       9.447132       257.0695 
 264   0.0000       9.463959       257.5274 
 265   0.0000       9.931429       270.2479 
 266   0.0000      10.025806       272.8160 
 267   0.0000      10.025806       272.8160 
 268   0.0000      10.148643       276.1586 
 269   0.0000      10.148643       276.1586 
 270   0.0000      10.343033       281.4482 
 271   0.0000      10.343033       281.4482 
 272   0.0000      10.373754       282.2842 
 273   0.0000      10.373754       282.2842 
 274   0.0000      10.457027       284.5502 
 275   0.0000      10.457027       284.5502 
 276   0.0000      10.472295       284.9656 
 277   0.0000      10.472295       284.9656 
 278   0.0000      10.732343       292.0419 
 279   0.0000      10.732343       292.0419 
 280   0.0000      10.851848       295.2938 
 281   0.0000      11.068311       301.1841 
 282   0.0000      11.178450       304.1811 
 283   0.0000      11.178450       304.1811 
 284   0.0000      11.179185       304.2011 
 285   0.0000      11.179185       304.2011 
 286   0.0000      11.398573       310.1709 
 287   0.0000      11.398573       310.1709 
 288   0.0000      11.497390       312.8599 
 289   0.0000      11.497390       312.8599 
 290   0.0000      11.685982       317.9917 
 291   0.0000      11.685982       317.9917 
 292   0.0000      11.714750       318.7745 
 293   0.0000      11.714750       318.7746 
 294   0.0000      11.721372       318.9547 
 295   0.0000      11.721372       318.9547 
 296   0.0000      11.756263       319.9042 
 297   0.0000      11.762510       320.0742 
 298   0.0000      11.762510       320.0742 
 299   0.0000      11.810391       321.3771 
 300   0.0000      11.810391       321.3771 
 301   0.0000      11.874872       323.1317 
 302   0.0000      12.005806       326.6946 
 303   0.0000      12.005806       326.6946 
 304   0.0000      12.055807       328.0552 
 305   0.0000      12.055807       328.0552 
 306   0.0000      12.309355       334.9546 
 307   0.0000      12.309355       334.9546 
 308   0.0000      12.453569       338.8788 
 309   0.0000      13.118757       356.9795 
 310   0.0000      13.118757       356.9795 
 311   0.0000      13.196308       359.0898 
 312   0.0000      13.196308       359.0898 
 313   0.0000      13.326514       362.6329 
 314   0.0000      13.662228       371.7681 
 315   0.0000      13.662228       371.7681 
 316   0.0000      13.725070       373.4781 
 317   0.0000      13.725070       373.4781 
 318   0.0000      14.090782       383.4297 
 319   0.0000      14.266521       388.2118 
 320   0.0000      14.266521       388.2118 
 321   0.0000      14.546029       395.8176 
 322   0.0000      14.546029       395.8176 
 323   0.0000      15.236479       414.6057 
 324   0.0000      15.236479       414.6057 
 325   0.0000      15.281126       415.8206 
 326   0.0000      15.281126       415.8206 
 327   0.0000      15.284362       415.9086 
 328   0.0000      15.700942       427.2444 
 329   0.0000      15.700942       427.2444 
 330   0.0000      16.047782       436.6823 
 331   0.0000      16.209152       441.0734 
 332   0.0000      16.209152       441.0734 
 333   0.0000      16.492134       448.7738 
 334   0.0000      16.659921       453.3395 
 335   0.0000      16.659921       453.3395 
 336   0.0000      16.966931       461.6937 
 337   0.0000      16.966931       461.6937 
 338   0.0000      17.004957       462.7284 
 339   0.0000      17.004957       462.7284 
 340   0.0000      17.135286       466.2748 
 341   0.0000      17.135286       466.2748 
 342   0.0000      17.575902       478.2646 
 343   0.0000      18.164109       494.2705 
 344   0.0000      18.164109       494.2705 
 345   0.0000      18.241133       496.3665 
 346   0.0000      19.026873       517.7475 
 347   0.0000      19.026873       517.7475 
 348   0.0000      19.548351       531.9377 
 349   0.0000      19.548351       531.9377 
 350   0.0000      19.678516       535.4796 
 351   0.0000      20.605297       560.6986 
 352   0.0000      21.155434       575.6686 
 353   0.0000      21.155434       575.6686 
 354   0.0000      23.314184       634.4112 
 355   0.0000      23.782043       647.1423 
 356   0.0000      23.782043       647.1423 
 357   0.0000      24.855629       676.3561 
 358   0.0000      26.115097       710.6279 
 359   0.0000      26.305949       715.8213 
 360   0.0000      26.305949       715.8213 
 361   0.0000      28.366603       771.8945 
 362   0.0000      31.893972       867.8791 
 363   0.0000      31.893975       867.8792 
 364   0.0000      33.175018       902.7381 
 365   0.0000      33.175018       902.7381 
 366   0.0000      35.462056       964.9716 
 367   0.0000      41.359314      1125.4441 
 368   0.0000      47.721740      1298.5746 
 369   0.0000      47.721745      1298.5747 
 370   0.0000      48.133978      1309.7921 
 371   0.0000      48.133978      1309.7921 
 372   0.0000      49.042125      1334.5041 
 373   0.0000      76.753661      2088.5733 
 374   0.0000      91.185265      2481.2772 
 375   0.0000      91.185265      2481.2772 
 376   0.0000      92.486510      2516.6859 
 377   0.0000     105.404423      2868.2002 

                    ********************************
                    * MULLIKEN POPULATION ANALYSIS *
                    ********************************

--------------------------------------------
MULLIKEN ATOMIC CHARGES AND SPIN POPULATIONS
--------------------------------------------
   0 C :   -0.103233   -0.000000
   1 H :    0.091856    0.000000
   2 N :    0.011377   -0.000000
Sum of atomic charges         :   -0.0000000
Sum of atomic spin populations:   -0.0000000

-----------------------------------------------------
MULLIKEN REDUCED ORBITAL CHARGES AND SPIN POPULATIONS
-----------------------------------------------------
CHARGE
  0 C s       :     3.190282  s :     3.190282
      pz      :     1.047863  p :     2.829154
      px      :     0.890646
      py      :     0.890646
      dz2     :     0.030199  d :     0.071161
      dxz     :     0.020481
      dyz     :     0.020481
      dx2y2   :     0.000000
      dxy     :    -0.000000
      f0      :     0.005175  f :     0.011393
      f+1     :     0.003109
      f-1     :     0.003109
      f+2     :    -0.000000
      f-2     :    -0.000000
      f+3     :     0.000000
      f-3     :     0.000000
      g0      :     0.000094  g :     0.001229
      g+1     :     0.000568
      g-1     :     0.000568
      g+2     :     0.000000
      g-2     :     0.000000
      g+3     :     0.000000
      g-3     :     0.000000
      g+4     :     0.000000
      g-4     :     0.000000
      h0      :     0.000030  h :     0.000014
      h+1     :    -0.000008
      h-1     :    -0.000008
      h+2     :     0.000000
      h-2     :     0.000000
      h+3     :     0.000000
      h-3     :     0.000000
      h+4     :     0.000000
      h-4     :     0.000000
      h+5     :     0.000000
      h-5     :     0.000000
  1 H s       :     0.842170  s :     0.842170
      pz      :     0.037526  p :     0.065435
      px      :     0.013955
      py      :     0.013955
      dz2     :     0.007275  d :    -0.000044
      dxz     :    -0.003659
      dyz     :    -0.003660
      dx2y2   :     0.000000
      dxy     :     0.000000
      f0      :     0.001323  f :     0.000546
      f+1     :    -0.000389
      f-1     :    -0.000389
      f+2     :    -0.000000
      f-2     :    -0.000000
      f+3     :     0.000000
      f-3     :     0.000000
      g0      :     0.000079  g :     0.000037
      g+1     :    -0.000021
      g-1     :    -0.000021
      g+2     :     0.000000
      g-2     :    -0.000000
      g+3     :    -0.000000
      g-3     :    -0.000000
      g+4     :     0.000000
      g-4     :    -0.000000
  2 N s       :     3.685327  s :     3.685327
      pz      :     1.146834  p :     3.241878
      px      :     1.047522
      py      :     1.047522
      dz2     :     0.006059  d :     0.055212
      dxz     :     0.024577
      dyz     :     0.024577
      dx2y2   :     0.000000
      dxy     :     0.000000
      f0      :    -0.000054  f :     0.005750
      f+1     :     0.002902
      f-1     :     0.002902
      f+2     :     0.000000
      f-2     :     0.000000
      f+3     :     0.000000
      f-3     :     0.000000
      g0      :    -0.000168  g :     0.000456
      g+1     :     0.000312
      g-1     :     0.000312
      g+2     :    -0.000000
      g-2     :    -0.000000
      g+3     :     0.000000
      g-3     :     0.000000
      g+4     :     0.000000
      g-4     :    -0.000000
      h0      :    -0.000013  h :    -0.000000
      h+1     :     0.000006
      h-1     :     0.000006
      h+2     :     0.000000
      h-2     :     0.000000
      h+3     :     0.000000
      h-3     :     0.000000
      h+4     :     0.000000
      h-4     :     0.000000
      h+5     :     0.000000
      h-5     :     0.000000

SPIN
  0 C s       :    -0.000000  s :    -0.000000
      pz      :     0.000000  p :     0.000000
      px      :     0.000000
      py      :    -0.000000
      dz2     :    -0.000000  d :    -0.000000
      dxz     :    -0.000000
      dyz     :     0.000000
      dx2y2   :    -0.000000
      dxy     :    -0.000000
      f0      :    -0.000000  f :    -0.000000
      f+1     :     0.000000
      f-1     :     0.000000
      f+2     :     0.000000
      f-2     :     0.000000
      f+3     :     0.000000
      f-3     :     0.000000
      g0      :    -0.000000  g :    -0.000000
      g+1     :     0.000000
      g-1     :    -0.000000
      g+2     :     0.000000
      g-2     :    -0.000000
      g+3     :     0.000000
      g-3     :    -0.000000
      g+4     :     0.000000
      g-4     :    -0.000000
      h0      :     0.000000  h :     0.000000
      h+1     :     0.000000
      h-1     :    -0.000000
      h+2     :    -0.000000
      h-2     :    -0.000000
      h+3     :     0.000000
      h-3     :     0.000000
      h+4     :     0.000000
      h-4     :     0.000000
      h+5     :    -0.000000
      h-5     :    -0.000000
  1 H s       :     0.000000  s :     0.000000
      pz      :     0.000000  p :     0.000000
      px      :     0.000000
      py      :     0.000000
      dz2     :    -0.000000  d :    -0.000000
      dxz     :     0.000000
      dyz     :     0.000000
      dx2y2   :    -0.000000
      dxy     :     0.000000
      f0      :    -0.000000  f :    -0.000000
      f+1     :     0.000000
      f-1     :     0.000000
      f+2     :     0.000000
      f-2     :     0.000000
      f+3     :     0.000000
      f-3     :    -0.000000
      g0      :    -0.000000  g :    -0.000000
      g+1     :     0.000000
      g-1     :    -0.000000
      g+2     :     0.000000
      g-2     :    -0.000000
      g+3     :     0.000000
      g-3     :    -0.000000
      g+4     :    -0.000000
      g-4     :    -0.000000
  2 N s       :    -0.000000  s :    -0.000000
      pz      :     0.000000  p :     0.000000
      px      :    -0.000000
      py      :    -0.000000
      dz2     :     0.000000  d :     0.000000
      dxz     :    -0.000000
      dyz     :    -0.000000
      dx2y2   :     0.000000
      dxy     :     0.000000
      f0      :     0.000000  f :     0.000000
      f+1     :    -0.000000
      f-1     :     0.000000
      f+2     :    -0.000000
      f-2     :     0.000000
      f+3     :    -0.000000
      f-3     :     0.000000
      g0      :    -0.000000  g :    -0.000000
      g+1     :    -0.000000
      g-1     :     0.000000
      g+2     :     0.000000
      g-2     :    -0.000000
      g+3     :    -0.000000
      g-3     :     0.000000
      g+4     :    -0.000000
      g-4     :    -0.000000
      h0      :    -0.000000  h :    -0.000000
      h+1     :     0.000000
      h-1     :     0.000000
      h+2     :    -0.000000
      h-2     :     0.000000
      h+3     :     0.000000
      h-3     :     0.000000
      h+4     :     0.000000
      h-4     :     0.000000
      h+5     :    -0.000000
      h-5     :    -0.000000


                     *******************************
                     * LOEWDIN POPULATION ANALYSIS *
                     *******************************

-------------------------------------------
LOEWDIN ATOMIC CHARGES AND SPIN POPULATIONS
-------------------------------------------
   0 C :    0.275973   -0.000000
   1 H :   -0.535945    0.000000
   2 N :    0.259971   -0.000000

----------------------------------------------------
LOEWDIN REDUCED ORBITAL CHARGES AND SPIN POPULATIONS
----------------------------------------------------
CHARGE
  0 C s       :     2.698104  s :     2.698104
      pz      :     1.119067  p :     2.479722
      px      :     0.680328
      py      :     0.680328
      dz2     :     0.220981  d :     0.383555
      dxz     :     0.081287
      dyz     :     0.081287
      dx2y2   :     0.000000
      dxy     :     0.000000
      f0      :     0.053796  f :     0.120998
      f+1     :     0.033601
      f-1     :     0.033601
      f+2     :     0.000000
      f-2     :     0.000000
      f+3     :     0.000000
      f-3     :     0.000000
      g0      :     0.012971  g :     0.034834
      g+1     :     0.010932
      g-1     :     0.010932
      g+2     :     0.000000
      g-2     :     0.000000
      g+3     :     0.000000
      g-3     :     0.000000
      g+4     :     0.000000
      g-4     :     0.000000
      h0      :     0.002692  h :     0.006813
      h+1     :     0.002061
      h-1     :     0.002061
      h+2     :     0.000000
      h-2     :     0.000000
      h+3     :     0.000000
      h-3     :     0.000000
      h+4     :     0.000000
      h-4     :     0.000000
      h+5     :     0.000000
      h-5     :     0.000000
  1 H s       :     0.749822  s :     0.749822
      pz      :     0.182009  p :     0.323900
      px      :     0.070946
      py      :     0.070946
      dz2     :     0.096272  d :     0.249793
      dxz     :     0.076760
      dyz     :     0.076760
      dx2y2   :     0.000000
      dxy     :     0.000000
      f0      :     0.057932  f :     0.132976
      f+1     :     0.037522
      f-1     :     0.037522
      f+2     :     0.000000
      f-2     :     0.000000
      f+3     :     0.000000
      f-3     :     0.000000
      g0      :     0.035773  g :     0.079453
      g+1     :     0.021840
      g-1     :     0.021840
      g+2     :     0.000000
      g-2     :     0.000000
      g+3     :     0.000000
      g-3     :     0.000000
      g+4     :     0.000000
      g-4     :     0.000000
  2 N s       :     3.094168  s :     3.094168
      pz      :     1.454375  p :     3.226540
      px      :     0.886082
      py      :     0.886082
      dz2     :     0.134584  d :     0.261549
      dxz     :     0.063483
      dyz     :     0.063483
      dx2y2   :     0.000000
      dxy     :     0.000000
      f0      :     0.052512  f :     0.106894
      f+1     :     0.027191
      f-1     :     0.027191
      f+2     :     0.000000
      f-2     :     0.000000
      f+3     :     0.000000
      f-3     :     0.000000
      g0      :     0.025576  g :     0.039452
      g+1     :     0.006938
      g-1     :     0.006938
      g+2     :     0.000000
      g-2     :     0.000000
      g+3     :     0.000000
      g-3     :     0.000000
      g+4     :     0.000000
      g-4     :     0.000000
      h0      :     0.009366  h :     0.011426
      h+1     :     0.001030
      h-1     :     0.001030
      h+2     :     0.000000
      h-2     :     0.000000
      h+3     :     0.000000
      h-3     :     0.000000
      h+4     :     0.000000
      h-4     :     0.000000
      h+5     :     0.000000
      h-5     :     0.000000

SPIN
  0 C s       :    -0.000000  s :    -0.000000
      pz      :     0.000000  p :    -0.000000
      px      :    -0.000000
      py      :    -0.000000
      dz2     :     0.000000  d :     0.000000
      dxz     :    -0.000000
      dyz     :    -0.000000
      dx2y2   :    -0.000000
      dxy     :    -0.000000
      f0      :    -0.000000  f :    -0.000000
      f+1     :     0.000000
      f-1     :     0.000000
      f+2     :    -0.000000
      f-2     :     0.000000
      f+3     :     0.000000
      f-3     :     0.000000
      g0      :    -0.000000  g :    -0.000000
      g+1     :     0.000000
      g-1     :     0.000000
      g+2     :     0.000000
      g-2     :    -0.000000
      g+3     :     0.000000
      g-3     :    -0.000000
      g+4     :     0.000000
      g-4     :    -0.000000
      h0      :    -0.000000  h :     0.000000
      h+1     :     0.000000
      h-1     :     0.000000
      h+2     :    -0.000000
      h-2     :    -0.000000
      h+3     :     0.000000
      h-3     :     0.000000
      h+4     :     0.000000
      h-4     :     0.000000
      h+5     :    -0.000000
      h-5     :    -0.000000
  1 H s       :     0.000000  s :     0.000000
      pz      :     0.000000  p :     0.000000
      px      :     0.000000
      py      :     0.000000
      dz2     :    -0.000000  d :    -0.000000
      dxz     :    -0.000000
      dyz     :    -0.000000
      dx2y2   :    -0.000000
      dxy     :     0.000000
      f0      :     0.000000  f :     0.000000
      f+1     :     0.000000
      f-1     :     0.000000
      f+2     :     0.000000
      f-2     :     0.000000
      f+3     :     0.000000
      f-3     :    -0.000000
      g0      :     0.000000  g :     0.000000
      g+1     :    -0.000000
      g-1     :    -0.000000
      g+2     :    -0.000000
      g-2     :     0.000000
      g+3     :    -0.000000
      g-3     :     0.000000
      g+4     :    -0.000000
      g-4     :     0.000000
  2 N s       :    -0.000000  s :    -0.000000
      pz      :     0.000000  p :     0.000000
      px      :     0.000000
      py      :     0.000000
      dz2     :    -0.000000  d :    -0.000000
      dxz     :    -0.000000
      dyz     :    -0.000000
      dx2y2   :     0.000000
      dxy     :     0.000000
      f0      :     0.000000  f :     0.000000
      f+1     :    -0.000000
      f-1     :    -0.000000
      f+2     :    -0.000000
      f-2     :     0.000000
      f+3     :    -0.000000
      f-3     :     0.000000
      g0      :    -0.000000  g :    -0.000000
      g+1     :     0.000000
      g-1     :    -0.000000
      g+2     :     0.000000
      g-2     :     0.000000
      g+3     :    -0.000000
      g-3     :     0.000000
      g+4     :    -0.000000
      g-4     :    -0.000000
      h0      :    -0.000000  h :    -0.000000
      h+1     :    -0.000000
      h-1     :     0.000000
      h+2     :    -0.000000
      h-2     :     0.000000
      h+3     :     0.000000
      h-3     :     0.000000
      h+4     :     0.000000
      h-4     :     0.000000
      h+5     :    -0.000000
      h-5     :    -0.000000


                      *****************************
                      * MAYER POPULATION ANALYSIS *
                      *****************************

  NA   - Mulliken gross atomic population
  ZA   - Total nuclear charge
  QA   - Mulliken gross atomic charge
  VA   - Mayer's total valence
  BVA  - Mayer's bonded valence
  FA   - Mayer's free valence

  ATOM       NA         ZA         QA         VA         BVA        FA
  0 C      6.1032     6.0000    -0.1032     3.8712     3.8712    -0.0000
  1 H      0.9081     1.0000     0.0919     1.1060     1.1060     0.0000
  2 N      6.9886     7.0000     0.0114     3.0266     3.0266    -0.0000

  Mayer bond orders larger than 0.1
B(  0-C ,  1-H ) :   0.9753 B(  0-C ,  2-N ) :   2.8959 B(  1-H ,  2-N ) :   0.1307 


-------
TIMINGS
-------

Total SCF time: 0 days 0 hours 54 min 44 sec 

Total time                  ....    3284.291 sec
Sum of individual times     ....    3283.308 sec  (100.0%)

Fock matrix formation       ....    3273.501 sec  ( 99.7%)
  XC integration            ....     125.134 sec  (  3.8% of F)
    Basis function eval.    ....       8.148 sec  (  6.5% of XC)
    Density eval.           ....      26.622 sec  ( 21.3% of XC)
    XC-Functional eval.     ....       2.118 sec  (  1.7% of XC)
    XC-Potential eval.      ....      86.870 sec  ( 69.4% of XC)
Diagonalization             ....       1.258 sec  (  0.0%)
Density matrix formation    ....       0.024 sec  (  0.0%)
Population analysis         ....       0.132 sec  (  0.0%)
Initial guess               ....       5.113 sec  (  0.2%)
Orbital Transformation      ....       0.000 sec  (  0.0%)
Orbital Orthonormalization  ....       0.000 sec  (  0.0%)
DIIS solution               ....       0.936 sec  (  0.0%)
Grid generation             ....       2.344 sec  (  0.1%)

-------------------------   --------------------
FINAL SINGLE POINT ENERGY       -93.354769854976
-------------------------   --------------------


                            ***************************************
                            *     ORCA property calculations      *
                            ***************************************

                                    ---------------------
                                    Active property flags
                                    ---------------------
   (+) Dipole Moment
   (+) Polarizability


------------------------------------------------------------------------------
                       ORCA ELECTRIC PROPERTIES CALCULATION
------------------------------------------------------------------------------

Dipole Moment Calculation                       ... on
Quadrupole Moment Calculation                   ... off
Polarizability Calculation                      ... Analytic (CP-SCF)
GBWName                                         ... hcn_pbe.gbw
Electron density file                           ... hcn_pbe.scfp.tmp
The origin for moment calculation is the CENTER OF MASS  = ( 0.000000,  0.000000 -1.057199)

-------------
DIPOLE MOMENT
-------------
                                X             Y             Z
Electronic contribution:     -0.00000       0.00000      -0.36206
Nuclear contribution   :      0.00000       0.00000       1.51979
                        -----------------------------------------
Total Dipole Moment    :     -0.00000       0.00000       1.15774
                        -----------------------------------------
Magnitude (a.u.)       :      1.15774
Magnitude (Debye)      :      2.94273



--------------------
Rotational spectrum 
--------------------
 
Rotational constants in cm-1:     0.000000     1.478659     1.478659 
Rotational constants in MHz :     0.000000 44329.095918 44329.095918 

 Dipole components along the rotational axes: 
x,y,z [a.u.] :     1.157736     0.000000    -0.000000 
x,y,z [Debye]:     2.942731     0.000000    -0.000000 

 
Transforming and storing MO dipole integrals   ... done

                ... starting polarizability calculation

Opening the Dipole integral file               ... (hcn_pbe.dmo.tmp) done
Reading Dipole-MO integrals                    ... done
Solving CP-SCF equations                       ... 
------------------------------------------------------------------------------
                           ORCA CP-SCF CALCULATION
------------------------------------------------------------------------------

Input orbitals are from        ... hcn_pbe.gbw
Input Perturbation             ... hcn_pbe.cpv.tmp
Wavefunction output            ... hcn_pbe.cpu.tmp
Perturbation mode              ... Real perturbation (singlet)
Solver                         ... POPLE
Max. number of iterations      ... 200
Convergence tolerance          ... 1.000e-06
Integral handling              ... Direct
Number of perturbations        ... 3
Number of operators            ... 2
Orbital ranges used for CP-SCF:
 Operator 0:  Orbitals   0...  6  to   7...377
 Operator 1:  Orbitals   0...  6  to   7...377
DFT calculation                         ... on
Exchange functional (SCF)               ... PBE
Exchange functional (CP-SCF)            ... PBE
   PBE kappa parameter  XKappa (SCF)    ...  0.804000
   PBE kappa parameter  XKappa (CP-SCF) ...  0.804000
   PBE mue parameter   XMuePBE (SCF)    ...  0.219520
   PBE mue parameter   XMuePBE (CP-SCF) ...  0.219520
Correlation functional (SCF)            ... PBE
Correlation functional (CP-SCF)         ... PBE
   PBE beta parameter CBetaPBE (SCF)    ...  0.066725
   PBE beta parameter CBetaPBE (CP-SCF) ...  0.066725
 LDA part of GGA corr.  LDAOpt (SCF)    ... PW91-LDA
 LDA part of GGA corr.  LDAOpt (CP-SCF) ... PW91-LDA
Variables per vector in CP-SCF ... 5194
Number of vectors sought       ... 3
Recalculating density on grid  ... done
Calculating the xc-kernel      ... done
     CP-SCF ITERATION   0: 
     CP-SCF ITERATION   1:      0.135503004689
     CP-SCF ITERATION   2:      0.005865544817
     CP-SCF ITERATION   3:      0.000202254084
     CP-SCF ITERATION   4:      0.000001555844
     CP-SCF ITERATION   5:      0.000000118186
done
Reading CP-SCF coefficients                    ... done
Doing the polarizability tensor   ... done
Cleaning up                                    ... done

-------------------------
THE POLARIZABILITY TENSOR
-------------------------

The raw cartesian tensor (atomic units):
   14.71668     -0.00000      0.00000  
   -0.00000     14.71668      0.00000  
    0.00000      0.00000     23.36225  
diagonalized tensor: 
   14.71668     14.71668     23.36225  

    0.94004      0.34105      0.00000  
    0.34105     -0.94004      0.00000  
   -0.00000      0.00000      1.00000  

Isotropic polarizability :  17.59854


Timings for individual modules:

Sum of individual times         ...     5580.193 sec (=  93.003 min)
GTO integral calculation        ...        1.697 sec (=   0.028 min)   0.0 %
SCF iterations                  ...     3284.392 sec (=  54.740 min)  58.9 %
Solution of CP-SCF eqns.        ...     2294.104 sec (=  38.235 min)  41.1 %
                             ****ORCA TERMINATED NORMALLY****
TOTAL RUN TIME: 0 days 1 hours 33 minutes 0 seconds 737 msec
