
                                 *****************
                                 * O   R   C   A *
                                 *****************

           --- An Ab Initio, DFT and Semiempirical electronic structure package ---

                  #######################################################
                  #                        -***-                        #
                  #          Department of theory and spectroscopy      #
                  #               Directorship: Frank Neese             #
                  #        Max Planck Institute fuer Kohlenforschung    #
                  #                Kaiser Wilhelm Platz 1               #
                  #                 D-45470 Muelheim/Ruhr               #
                  #                      Germany                        #
                  #                                                     #
                  #                  All rights reserved                #
                  #                        -***-                        #
                  #######################################################


                         Program Version 4.1.2  - RELEASE  -


 With contributions from (in alphabetic order):
   Daniel Aravena         : Magnetic Properties
   Michael Atanasov       : Ab Initio Ligand Field Theory
   Alexander A. Auer      : GIAO ZORA
   Ute Becker             : Parallelization
   Giovanni Bistoni       : ED, Open-shell LED
   Martin Brehm           : Molecular dynamics
   Dmytro Bykov           : SCF Hessian
   Vijay G. Chilkuri      : MRCI spin determinant printing
   Dipayan Datta          : RHF DLPNO-CCSD density
   Achintya Kumar Dutta   : EOM-CC, STEOM-CC
   Dmitry Ganyushin       : Spin-Orbit,Spin-Spin,Magnetic field MRCI
   Miquel Garcia          : C-PCM Hessian
   Yang Guo               : DLPNO-NEVPT2, CIM, IAO-localization
   Andreas Hansen         : Spin unrestricted coupled pair/coupled cluster methods
   Benjamin Helmich-Paris : CASSCF linear response (MC-RPA)
   Lee Huntington         : MR-EOM, pCC
   Robert Izsak           : Overlap fitted RIJCOSX, COSX-SCS-MP3, EOM
   Christian Kollmar      : KDIIS, OOCD, Brueckner-CCSD(T), CCSD density
   Simone Kossmann        : Meta GGA functionals, TD-DFT gradient, OOMP2, MP2 Hessian
   Martin Krupicka        : AUTO-CI
   Lucas Lang             : DCDCAS
   Dagmar Lenk            : GEPOL surface, SMD
   Dimitrios Liakos       : Extrapolation schemes; parallel MDCI
   Dimitrios Manganas     : ROCIS; embedding schemes
   Dimitrios Pantazis     : SARC Basis sets
   Taras Petrenko         : DFT Hessian,TD-DFT gradient, ASA, ECA, R-Raman, ABS, FL, XAS/XES, NRVS
   Peter Pinski           : DLPNO-MP2, DLPNO-MP2 Gradient
   Christoph Reimann      : Effective Core Potentials
   Marius Retegan         : Local ZFS, SOC
   Christoph Riplinger    : Optimizer, TS searches, QM/MM, DLPNO-CCSD(T), (RO)-DLPNO pert. Triples
   Tobias Risthaus        : Range-separated hybrids, TD-DFT gradient, RPA, STAB
   Michael Roemelt        : Restricted open shell CIS
   Masaaki Saitow         : Open-shell DLPNO
   Barbara Sandhoefer     : DKH picture change effects
   Avijit Sen             : IP-ROCIS
   Kantharuban Sivalingam : CASSCF convergence, NEVPT2, FIC-MRCI
   Bernardo de Souza      : ESD, SOC TD-DFT
   Georgi Stoychev        : AutoAux, RI-MP2 NMR
   Willem Van den Heuvel  : Paramagnetic NMR
   Boris Wezisla          : Elementary symmetry handling
   Frank Wennmohs         : Technical directorship


 We gratefully acknowledge several colleagues who have allowed us to
 interface, adapt or use parts of their codes:
   Stefan Grimme, W. Hujo, H. Kruse,             : VdW corrections, initial TS optimization,
                  C. Bannwarth                     DFT functionals, gCP, sTDA/sTD-DF
   Ed Valeev                                     : LibInt (2-el integral package), F12 methods
   Garnet Chan, S. Sharma, J. Yang, R. Olivares  : DMRG
   Ulf Ekstrom                                   : XCFun DFT Library
   Mihaly Kallay                                 : mrcc  (arbitrary order and MRCC methods)
   Andreas Klamt, Michael Diedenhofen            : otool_cosmo (COSMO solvation model)
   Jiri Pittner, Ondrej Demel                    : Mk-CCSD
   Frank Weinhold                                : gennbo (NPA and NBO analysis)
   Christopher J. Cramer and Donald G. Truhlar   : smd solvation model
   Lars Goerigk                                  : TD-DFT with DH, B97 family of functionals
   V. Asgeirsson, H. Jonsson                     : NEB implementation
   FAccTs GmbH                                   : IRC, NEB, NEB-TS, Multilevel


 Your calculation uses the libint2 library for the computation of 2-el integrals
 For citations please refer to: http://libint.valeyev.net

 This ORCA versions uses:
   CBLAS   interface :  Fast vector & matrix operations
   LAPACKE interface :  Fast linear algebra routines
   SCALAPACK package :  Parallel linear algebra routines


----- Orbital basis set information -----
Your calculation utilizes the basis: aug-pc-4
   H, C-F              : F. Jensen, J. Chem. Phys. 115, 9113 (2001).
                         F. Jensen, J. Chem. Phys. 116, 7372 (2002).
                         F. Jensen, J. Chem. Phys. 117, 9234 (2002).
   Si-Cl               : F. Jensen, T. Helgaker, J. Chem. Phys. 121, 3463 (2004).
   He-B, Ne-Mg, Al, Ar : F. Jensen, J. Phys. Chem. A 111, 11198 (2007).
   K, Ca, Ga-Kr        : F. Jensen, J. Chem. Phys. 136, 094110 (2012).
   Sc-Zn               : F. Jensen, J. Chem. Phys. 138, 014107 (2013).

================================================================================
                                        WARNINGS
                       Please study these warnings very carefully!
================================================================================


INFO   : the flag for use of LIBINT has been found!

================================================================================
                                       INPUT FILE
================================================================================
NAME = hco_pbe.inp
|  1> !uks pbe nori aug-pc-4 grid7 nofinalgrid verytightscf
|  2> 
|  3> %maxcore 1500
|  4> 
|  5> %pal nprocs 1 end
|  6> 
|  7> %scf
|  8> 	maxiter 200
|  9> end
| 10> %elprop
| 11> 	dipole true
| 12> 	 polar 1
| 13> 	 maxiter 200
| 14> end
| 15> 
| 16> * xyz 0 2
| 17> C 0.0000 0.0000 0.0000
| 18> H 1.0800 0.0000 0.0000
| 19> O -0.5899 1.0427 0.0000
| 20> *
| 21> 
| 22>                          ****END OF INPUT****
================================================================================

                       ****************************
                       * Single Point Calculation *
                       ****************************

---------------------------------
CARTESIAN COORDINATES (ANGSTROEM)
---------------------------------
  C      0.000000    0.000000    0.000000
  H      1.080000    0.000000    0.000000
  O     -0.589900    1.042700    0.000000

----------------------------
CARTESIAN COORDINATES (A.U.)
----------------------------
  NO LB      ZA    FRAG     MASS         X           Y           Z
   0 C     6.0000    0    12.011    0.000000    0.000000    0.000000
   1 H     1.0000    0     1.008    2.040904    0.000000    0.000000
   2 O     8.0000    0    15.999   -1.114749    1.970417    0.000000

--------------------------------
INTERNAL COORDINATES (ANGSTROEM)
--------------------------------
 C      0   0   0     0.000000000000     0.00000000     0.00000000
 H      1   0   0     1.080000000000     0.00000000     0.00000000
 O      1   2   0     1.198000542571   119.49869812     0.00000000

---------------------------
INTERNAL COORDINATES (A.U.)
---------------------------
 C      0   0   0     0.000000000000     0.00000000     0.00000000
 H      1   0   0     2.040904224635     0.00000000     0.00000000
 O      1   2   0     2.263892933748   119.49869812     0.00000000

---------------------
BASIS SET INFORMATION
---------------------
There are 3 groups of distinct atoms

 Group   1 Type C   : 28s12p7d4f3g2h contracted to 9s8p7d4f3g2h pattern {11101111111/51111111/1111111/1111/111/11}
 Group   2 Type H   : 12s7p4d3f2g contracted to 8s7p4d3f2g pattern {51111111/1111111/1111/111/11}
 Group   3 Type O   : 27s12p7d4f3g2h contracted to 9s8p7d4f3g2h pattern {1191111111/51111111/1111111/1111/111/11}

Atom   0C    basis set group =>   1
Atom   1H    basis set group =>   2
Atom   2O    basis set group =>   3
------------------------------------------------------------------------------
                           ORCA GTO INTEGRAL CALCULATION
------------------------------------------------------------------------------

                         BASIS SET STATISTICS AND STARTUP INFO

 # of primitive gaussian shells          ...  139
 # of primitive gaussian functions       ...  443
 # of contracted shells                  ...   90
 # of contracted basis functions         ...  378
 Highest angular momentum                ...    5
 Maximum contraction depth               ...   11
 Integral package used                   ... LIBINT
 Integral threshhold            Thresh   ...  1.000e-12
 Primitive cut-off              TCut     ...  1.000e-14


------------------------------ INTEGRAL EVALUATION ----------------------------


 * One electron integrals 
 Pre-screening matrix                    ... done
 Shell pair data                         ... done (   0.001 sec)

-------------------------------------------------------------------------------
                                 ORCA SCF
-------------------------------------------------------------------------------

------------
SCF SETTINGS
------------
Hamiltonian:
 Density Functional     Method          .... DFT(GTOs)
 Exchange Functional    Exchange        .... PBE
   PBE kappa parameter   XKappa         ....  0.804000
   PBE mue parameter    XMuePBE         ....  0.219520
 Correlation Functional Correlation     .... PBE
   PBE beta parameter  CBetaPBE         ....  0.066725
 LDA part of GGA corr.  LDAOpt          .... PW91-LDA
 Gradients option       PostSCFGGA      .... off
   Density functional embedding theory  .... OFF
   NL short-range parameter             ....  6.400000


General Settings:
 Integral files         IntName         .... hco_pbe
 Hartree-Fock type      HFTyp           .... UHF
 Total Charge           Charge          ....    0
 Multiplicity           Mult            ....    2
 Number of Electrons    NEL             ....   15
 Basis Dimension        Dim             ....  378
 Nuclear Repulsion      ENuc            ....     26.2926488177 Eh

Convergence Acceleration:
 DIIS                   CNVDIIS         .... on
   Start iteration      DIISMaxIt       ....    12
   Startup error        DIISStart       ....  0.200000
   # of expansion vecs  DIISMaxEq       ....     5
   Bias factor          DIISBfac        ....   1.050
   Max. coefficient     DIISMaxC        ....  10.000
 Newton-Raphson         CNVNR           .... off
 SOSCF                  CNVSOSCF        .... off
 Level Shifting         CNVShift        .... on
   Level shift para.    LevelShift      ....    0.2500
   Turn off err/grad.   ShiftErr        ....    0.0010
 Zerner damping         CNVZerner       .... off
 Static damping         CNVDamp         .... on
   Fraction old density DampFac         ....    0.7000
   Max. Damping (<1)    DampMax         ....    0.9800
   Min. Damping (>=0)   DampMin         ....    0.0000
   Turn off err/grad.   DampErr         ....    0.1000
 Fernandez-Rico         CNVRico         .... off

SCF Procedure:
 Maximum # iterations   MaxIter         ....   200
 SCF integral mode      SCFMode         .... Direct
   Integral package                     .... LIBINT
 Reset frequency        DirectResetFreq ....    20
 Integral Threshold     Thresh          ....  1.000e-12 Eh
 Primitive CutOff       TCut            ....  1.000e-14 Eh

Convergence Tolerance:
 Convergence Check Mode ConvCheckMode   .... Total+1el-Energy
 Convergence forced     ConvForced      .... 0
 Energy Change          TolE            ....  1.000e-09 Eh
 1-El. energy change                    ....  1.000e-06 Eh
 DIIS Error             TolErr          ....  1.000e-08


Diagonalization of the overlap matrix:
Smallest eigenvalue                        ... 6.105e-07
Time for diagonalization                   ...    0.125 sec
Threshold for overlap eigenvalues          ... 1.000e-08
Number of eigenvalues below threshold      ... 0
Time for construction of square roots      ...    0.016 sec
Total time needed                          ...    0.142 sec

-------------------
DFT GRID GENERATION
-------------------

General Integration Accuracy     IntAcc      ...  5.670
Radial Grid Type                 RadialGrid  ... Gauss-Chebyshev
Angular Grid (max. acc.)         AngularGrid ... Lebedev-770
Angular grid pruning method      GridPruning ... 3 (G Style)
Weight generation scheme         WeightScheme... Becke
Basis function cutoff            BFCut       ...    1.0000e-12
Integration weight cutoff        WCut        ...    1.0000e-14
Grids for H and He will be reduced by one unit

# of grid points (after initial pruning)     ...  67880 (   0.0 sec)
# of grid points (after weights+screening)   ...  67199 (   0.0 sec)
nearest neighbour list constructed           ...    0.0 sec
Grid point re-assignment to atoms done       ...    0.0 sec
Grid point division into batches done        ...    1.3 sec
Reduced shell lists constructed in    2.1 sec

Total number of grid points                  ...    67199
Total number of batches                      ...     1052
Average number of points per batch           ...       63
Average number of grid points per atom       ...    22400
Average number of shells per batch           ...    67.55 (75.05%)
Average number of basis functions per batch  ...   292.17 (77.29%)
Average number of large shells per batch     ...    60.72 (89.88%)
Average number of large basis fcns per batch ...   263.75 (90.27%)
Maximum spatial batch extension              ...  15.57, 17.35, 20.36 au
Average spatial batch extension              ...   2.20,  2.27,  2.39 au

Time for grid setup =    2.106 sec

------------------------------
INITIAL GUESS: MODEL POTENTIAL
------------------------------
Loading Hartree-Fock densities                     ... done
Calculating cut-offs                               ... done
Setting up the integral package                    ... done
Initializing the effective Hamiltonian             ... done
Starting the Coulomb interaction                   ... done (   0.1 sec)
Reading the grid                                   ... done
Mapping shells                                     ... done
Starting the XC term evaluation                    ... done (   4.2 sec)
  promolecular density results
     # of electrons  =     14.999509800
     EX              =    -13.476244326
     EC              =     -0.476743741
     EX+EC           =    -13.952988067
Transforming the Hamiltonian                       ... done (   0.0 sec)
Diagonalizing the Hamiltonian                      ... done (   0.0 sec)
Back transforming the eigenvectors                 ... done (   0.0 sec)
Now organizing SCF variables                       ... done
                      ------------------
                      INITIAL GUESS DONE (   6.5 sec)
                      ------------------
--------------
SCF ITERATIONS
--------------
ITER       Energy         Delta-E        Max-DP      RMS-DP      [F,P]     Damp
               ***  Starting incremental Fock matrix formation  ***
  0   -113.7328558109   0.000000000000 0.01054578  0.00013294  0.2176348 0.7000
  1   -113.7597692781  -0.026913467237 0.00743677  0.00007882  0.0444044 0.7000
                               ***Turning on DIIS***
  2   -113.7637312377  -0.003961959574 0.01990209  0.00015973  0.0378617 0.0000
  3   -113.7811055050  -0.017374267348 0.00423516  0.00004448  0.0241706 0.0000
  4   -113.7820837346  -0.000978229597 0.00108340  0.00001438  0.0159741 0.0000
  5   -113.7823398440  -0.000256109368 0.00062482  0.00000694  0.0038918 0.0000
  6   -113.7823605073  -0.000020663277 0.00038171  0.00000339  0.0011095 0.0000
  7   -113.7823627980  -0.000002290701 0.00019786  0.00000318  0.0004044 0.0000
  8   -113.7823634701  -0.000000672124 0.00003782  0.00000040  0.0001132 0.0000
  9   -113.7823635008  -0.000000030678 0.00001153  0.00000008  0.0000406 0.0000
 10   -113.7823635042  -0.000000003401 0.00000675  0.00000007  0.0000183 0.0000
 11   -113.7823635052  -0.000000000993 0.00000537  0.00000007  0.0000030 0.0000
 12   -113.7823635053  -0.000000000086 0.00000594  0.00000007  0.0000022 0.0000
 13   -113.7823635053  -0.000000000038 0.00002811  0.00000025  0.0000002 0.0000
                 **** Energy Check signals convergence ****

               *****************************************************
               *                     SUCCESS                       *
               *           SCF CONVERGED AFTER  14 CYCLES          *
               *****************************************************


----------------
TOTAL SCF ENERGY
----------------

Total Energy       :         -113.78236351 Eh           -3096.17552 eV

Components:
Nuclear Repulsion  :           26.29264882 Eh             715.45935 eV
Electronic Energy  :         -140.07501232 Eh           -3811.63487 eV
One Electron Energy:         -206.69107987 Eh           -5624.35022 eV
Two Electron Energy:           66.61606755 Eh            1812.71535 eV

Virial components:
Potential Energy   :         -227.18104444 Eh           -6181.91050 eV
Kinetic Energy     :          113.39868093 Eh            3085.73498 eV
Virial Ratio       :            2.00338348


DFT components:
N(Alpha)           :        7.999999807529 electrons
N(Beta)            :        6.999999802608 electrons
N(Total)           :       14.999999610137 electrons
E(X)               :      -13.669794409152 Eh       
E(C)               :       -0.477275290050 Eh       
E(XC)              :      -14.147069699201 Eh       
DFET-embed. en.    :        0.000000000000 Eh       

---------------
SCF CONVERGENCE
---------------

  Last Energy change         ...   -8.4839e-12  Tolerance :   1.0000e-09
  Last MAX-Density change    ...    3.2488e-05  Tolerance :   1.0000e-08
  Last RMS-Density change    ...    2.5523e-07  Tolerance :   1.0000e-09
  Last DIIS Error            ...    9.4037e-08  Tolerance :   1.0000e-08

             **** THE GBW FILE WAS UPDATED (hco_pbe.gbw) ****
             **** DENSITY FILE WAS UPDATED (hco_pbe.scfp.tmp) ****
             **** ENERGY FILE WAS UPDATED (hco_pbe.en.tmp) ****
----------------------
UHF SPIN CONTAMINATION
----------------------

Warning: in a DFT calculation there is little theoretical justification to 
         calculate <S**2> as in Hartree-Fock theory. We will do it anyways
         but you should keep in mind that the values have only limited relevance

Expectation value of <S**2>     :     0.752333
Ideal value S*(S+1) for S=0.5   :     0.750000
Deviation                       :     0.002333

----------------
ORBITAL ENERGIES
----------------
                 SPIN UP ORBITALS
  NO   OCC          E(Eh)            E(eV) 
   0   1.0000     -18.821967      -512.1718 
   1   1.0000      -9.991792      -271.8905 
   2   1.0000      -1.016920       -27.6718 
   3   1.0000      -0.570844       -15.5334 
   4   1.0000      -0.450105       -12.2480 
   5   1.0000      -0.395835       -10.7712 
   6   1.0000      -0.385149       -10.4804 
   7   1.0000      -0.189612        -5.1596 
   8   0.0000      -0.105165        -2.8617 
   9   0.0000      -0.015187        -0.4133 
  10   0.0000       0.011024         0.3000 
  11   0.0000       0.013083         0.3560 
  12   0.0000       0.017555         0.4777 
  13   0.0000       0.039901         1.0858 
  14   0.0000       0.050237         1.3670 
  15   0.0000       0.054816         1.4916 
  16   0.0000       0.057115         1.5542 
  17   0.0000       0.061158         1.6642 
  18   0.0000       0.064042         1.7427 
  19   0.0000       0.074861         2.0371 
  20   0.0000       0.078170         2.1271 
  21   0.0000       0.083381         2.2689 
  22   0.0000       0.116891         3.1808 
  23   0.0000       0.122415         3.3311 
  24   0.0000       0.131086         3.5670 
  25   0.0000       0.134443         3.6584 
  26   0.0000       0.135919         3.6986 
  27   0.0000       0.136516         3.7148 
  28   0.0000       0.147719         4.0196 
  29   0.0000       0.163153         4.4396 
  30   0.0000       0.171593         4.6693 
  31   0.0000       0.180329         4.9070 
  32   0.0000       0.180477         4.9110 
  33   0.0000       0.188448         5.1279 
  34   0.0000       0.188452         5.1280 
  35   0.0000       0.202022         5.4973 
  36   0.0000       0.218709         5.9514 
  37   0.0000       0.229566         6.2468 
  38   0.0000       0.236148         6.4259 
  39   0.0000       0.236288         6.4297 
  40   0.0000       0.253662         6.9025 
  41   0.0000       0.255417         6.9503 
  42   0.0000       0.257348         7.0028 
  43   0.0000       0.260750         7.0954 
  44   0.0000       0.264466         7.1965 
  45   0.0000       0.268056         7.2942 
  46   0.0000       0.274761         7.4766 
  47   0.0000       0.294964         8.0264 
  48   0.0000       0.297526         8.0961 
  49   0.0000       0.308303         8.3894 
  50   0.0000       0.317739         8.6461 
  51   0.0000       0.320824         8.7301 
  52   0.0000       0.329878         8.9764 
  53   0.0000       0.335963         9.1420 
  54   0.0000       0.342452         9.3186 
  55   0.0000       0.344864         9.3842 
  56   0.0000       0.374419        10.1885 
  57   0.0000       0.375275        10.2118 
  58   0.0000       0.385644        10.4939 
  59   0.0000       0.396993        10.8027 
  60   0.0000       0.399091        10.8598 
  61   0.0000       0.417372        11.3573 
  62   0.0000       0.420081        11.4310 
  63   0.0000       0.430344        11.7103 
  64   0.0000       0.431657        11.7460 
  65   0.0000       0.443913        12.0795 
  66   0.0000       0.449731        12.2378 
  67   0.0000       0.457163        12.4400 
  68   0.0000       0.457506        12.4494 
  69   0.0000       0.472727        12.8636 
  70   0.0000       0.473945        12.8967 
  71   0.0000       0.485060        13.1992 
  72   0.0000       0.498933        13.5767 
  73   0.0000       0.499665        13.5966 
  74   0.0000       0.521285        14.1849 
  75   0.0000       0.528577        14.3833 
  76   0.0000       0.535708        14.5773 
  77   0.0000       0.544619        14.8198 
  78   0.0000       0.551140        14.9973 
  79   0.0000       0.553035        15.0488 
  80   0.0000       0.556365        15.1394 
  81   0.0000       0.566441        15.4136 
  82   0.0000       0.573325        15.6010 
  83   0.0000       0.578337        15.7374 
  84   0.0000       0.582296        15.8451 
  85   0.0000       0.586212        15.9516 
  86   0.0000       0.610174        16.6037 
  87   0.0000       0.612391        16.6640 
  88   0.0000       0.624341        16.9892 
  89   0.0000       0.638219        17.3668 
  90   0.0000       0.639443        17.4001 
  91   0.0000       0.648901        17.6575 
  92   0.0000       0.659746        17.9526 
  93   0.0000       0.662060        18.0156 
  94   0.0000       0.672085        18.2884 
  95   0.0000       0.674884        18.3645 
  96   0.0000       0.677192        18.4273 
  97   0.0000       0.689761        18.7693 
  98   0.0000       0.689882        18.7726 
  99   0.0000       0.704499        19.1704 
 100   0.0000       0.721318        19.6281 
 101   0.0000       0.722782        19.6679 
 102   0.0000       0.750625        20.4255 
 103   0.0000       0.757845        20.6220 
 104   0.0000       0.762784        20.7564 
 105   0.0000       0.778449        21.1827 
 106   0.0000       0.787221        21.4214 
 107   0.0000       0.796842        21.6832 
 108   0.0000       0.809142        22.0179 
 109   0.0000       0.831768        22.6336 
 110   0.0000       0.844981        22.9931 
 111   0.0000       0.847508        23.0619 
 112   0.0000       0.857635        23.3374 
 113   0.0000       0.859605        23.3910 
 114   0.0000       0.872780        23.7496 
 115   0.0000       0.879814        23.9409 
 116   0.0000       0.884866        24.0784 
 117   0.0000       0.908446        24.7201 
 118   0.0000       0.910308        24.7708 
 119   0.0000       0.926494        25.2112 
 120   0.0000       0.945560        25.7300 
 121   0.0000       0.949547        25.8385 
 122   0.0000       0.976749        26.5787 
 123   0.0000       0.983851        26.7720 
 124   0.0000       0.988142        26.8887 
 125   0.0000       0.999407        27.1952 
 126   0.0000       1.000065        27.2131 
 127   0.0000       1.014173        27.5971 
 128   0.0000       1.014680        27.6109 
 129   0.0000       1.059387        28.8274 
 130   0.0000       1.068881        29.0857 
 131   0.0000       1.074124        29.2284 
 132   0.0000       1.089609        29.6498 
 133   0.0000       1.098832        29.9007 
 134   0.0000       1.114842        30.3364 
 135   0.0000       1.144870        31.1535 
 136   0.0000       1.148509        31.2525 
 137   0.0000       1.157825        31.5060 
 138   0.0000       1.201077        32.6830 
 139   0.0000       1.202980        32.7347 
 140   0.0000       1.231508        33.5110 
 141   0.0000       1.246395        33.9161 
 142   0.0000       1.288661        35.0662 
 143   0.0000       1.302455        35.4416 
 144   0.0000       1.362943        37.0876 
 145   0.0000       1.415749        38.5245 
 146   0.0000       1.431112        38.9425 
 147   0.0000       1.440621        39.2013 
 148   0.0000       1.493734        40.6466 
 149   0.0000       1.525799        41.5191 
 150   0.0000       1.600590        43.5543 
 151   0.0000       1.641212        44.6597 
 152   0.0000       1.650789        44.9202 
 153   0.0000       1.674687        45.5705 
 154   0.0000       1.684762        45.8447 
 155   0.0000       1.772181        48.2235 
 156   0.0000       1.783152        48.5220 
 157   0.0000       1.820959        49.5508 
 158   0.0000       1.829596        49.7858 
 159   0.0000       1.895932        51.5909 
 160   0.0000       1.903417        51.7946 
 161   0.0000       1.944524        52.9132 
 162   0.0000       1.964700        53.4622 
 163   0.0000       2.003975        54.5309 
 164   0.0000       2.012689        54.7681 
 165   0.0000       2.099241        57.1232 
 166   0.0000       2.113230        57.5039 
 167   0.0000       2.116208        57.5850 
 168   0.0000       2.147463        58.4354 
 169   0.0000       2.210810        60.1592 
 170   0.0000       2.234118        60.7935 
 171   0.0000       2.251899        61.2773 
 172   0.0000       2.283385        62.1341 
 173   0.0000       2.351116        63.9771 
 174   0.0000       2.377895        64.7058 
 175   0.0000       2.395248        65.1780 
 176   0.0000       2.472729        67.2864 
 177   0.0000       2.503919        68.1351 
 178   0.0000       2.564799        69.7917 
 179   0.0000       2.649395        72.0937 
 180   0.0000       2.681197        72.9591 
 181   0.0000       2.769314        75.3569 
 182   0.0000       2.867321        78.0238 
 183   0.0000       3.004074        81.7450 
 184   0.0000       3.057488        83.1985 
 185   0.0000       3.187609        86.7393 
 186   0.0000       3.199557        87.0644 
 187   0.0000       3.315722        90.2254 
 188   0.0000       3.351780        91.2066 
 189   0.0000       3.399253        92.4984 
 190   0.0000       3.509630        95.5019 
 191   0.0000       3.573683        97.2448 
 192   0.0000       3.583090        97.5008 
 193   0.0000       3.709299       100.9352 
 194   0.0000       3.748352       101.9978 
 195   0.0000       3.855735       104.9199 
 196   0.0000       3.865845       105.1950 
 197   0.0000       3.954460       107.6063 
 198   0.0000       3.981609       108.3451 
 199   0.0000       4.063342       110.5692 
 200   0.0000       4.078077       110.9701 
 201   0.0000       4.117955       112.0552 
 202   0.0000       4.158724       113.1646 
 203   0.0000       4.236503       115.2811 
 204   0.0000       4.274449       116.3137 
 205   0.0000       4.339709       118.0895 
 206   0.0000       4.400150       119.7342 
 207   0.0000       4.420695       120.2932 
 208   0.0000       4.450166       121.0952 
 209   0.0000       4.504105       122.5629 
 210   0.0000       4.548005       123.7575 
 211   0.0000       4.567551       124.2894 
 212   0.0000       4.604950       125.3071 
 213   0.0000       4.607806       125.3848 
 214   0.0000       4.729569       128.6981 
 215   0.0000       4.744616       129.1076 
 216   0.0000       4.786537       130.2483 
 217   0.0000       4.819130       131.1352 
 218   0.0000       4.858854       132.2161 
 219   0.0000       4.991411       135.8232 
 220   0.0000       5.040585       137.1613 
 221   0.0000       5.093377       138.5978 
 222   0.0000       5.219607       142.0327 
 223   0.0000       5.255743       143.0160 
 224   0.0000       5.298730       144.1858 
 225   0.0000       5.320766       144.7854 
 226   0.0000       5.342035       145.3642 
 227   0.0000       5.397126       146.8633 
 228   0.0000       5.496873       149.5775 
 229   0.0000       5.668435       154.2459 
 230   0.0000       5.760300       156.7457 
 231   0.0000       5.822142       158.4285 
 232   0.0000       5.846871       159.1014 
 233   0.0000       5.909565       160.8074 
 234   0.0000       5.943942       161.7429 
 235   0.0000       6.032274       164.1465 
 236   0.0000       6.109180       166.2392 
 237   0.0000       6.147090       167.2708 
 238   0.0000       6.311891       171.7553 
 239   0.0000       6.466473       175.9617 
 240   0.0000       6.555371       178.3807 
 241   0.0000       6.569645       178.7691 
 242   0.0000       6.587409       179.2525 
 243   0.0000       6.714687       182.7159 
 244   0.0000       6.809587       185.2983 
 245   0.0000       7.022617       191.0951 
 246   0.0000       7.491004       203.8406 
 247   0.0000       7.498990       204.0579 
 248   0.0000       7.639014       207.8681 
 249   0.0000       7.960885       216.6267 
 250   0.0000       8.228677       223.9137 
 251   0.0000       8.319537       226.3861 
 252   0.0000       8.453081       230.0200 
 253   0.0000       8.632929       234.9140 
 254   0.0000       8.808107       239.6808 
 255   0.0000       8.864741       241.2219 
 256   0.0000       8.934113       243.1096 
 257   0.0000       9.059840       246.5308 
 258   0.0000       9.242797       251.5093 
 259   0.0000       9.338486       254.1131 
 260   0.0000       9.356910       254.6145 
 261   0.0000       9.510729       258.8001 
 262   0.0000       9.825275       267.3593 
 263   0.0000      10.027611       272.8652 
 264   0.0000      10.181657       277.0570 
 265   0.0000      10.256536       279.0945 
 266   0.0000      10.261916       279.2409 
 267   0.0000      10.345379       281.5121 
 268   0.0000      10.474013       285.0124 
 269   0.0000      10.539086       286.7831 
 270   0.0000      10.555772       287.2372 
 271   0.0000      10.636169       289.4249 
 272   0.0000      10.647809       289.7416 
 273   0.0000      10.743079       292.3340 
 274   0.0000      10.762701       292.8680 
 275   0.0000      10.788859       293.5798 
 276   0.0000      11.084249       301.6177 
 277   0.0000      11.092682       301.8472 
 278   0.0000      11.107076       302.2389 
 279   0.0000      11.197060       304.6875 
 280   0.0000      11.249204       306.1064 
 281   0.0000      11.289109       307.1923 
 282   0.0000      11.531363       313.7843 
 283   0.0000      11.540925       314.0445 
 284   0.0000      11.632743       316.5430 
 285   0.0000      11.645740       316.8967 
 286   0.0000      11.665817       317.4430 
 287   0.0000      11.730801       319.2113 
 288   0.0000      11.817373       321.5671 
 289   0.0000      11.956430       325.3510 
 290   0.0000      11.987578       326.1986 
 291   0.0000      11.987700       326.2019 
 292   0.0000      12.039752       327.6183 
 293   0.0000      12.078603       328.6755 
 294   0.0000      12.183166       331.5208 
 295   0.0000      12.195056       331.8443 
 296   0.0000      12.217959       332.4676 
 297   0.0000      12.289517       334.4148 
 298   0.0000      12.339063       335.7630 
 299   0.0000      12.494526       339.9933 
 300   0.0000      12.504386       340.2616 
 301   0.0000      12.556607       341.6827 
 302   0.0000      12.567777       341.9866 
 303   0.0000      12.673495       344.8633 
 304   0.0000      12.700088       345.5870 
 305   0.0000      12.767042       347.4089 
 306   0.0000      12.770328       347.4983 
 307   0.0000      12.962507       352.7277 
 308   0.0000      13.001345       353.7846 
 309   0.0000      13.071363       355.6899 
 310   0.0000      13.223827       359.8386 
 311   0.0000      13.291985       361.6933 
 312   0.0000      13.371077       363.8455 
 313   0.0000      13.619731       370.6117 
 314   0.0000      13.687190       372.4474 
 315   0.0000      13.802464       375.5841 
 316   0.0000      13.914260       378.6263 
 317   0.0000      13.934075       379.1654 
 318   0.0000      14.308174       389.3452 
 319   0.0000      14.989040       407.8725 
 320   0.0000      14.995413       408.0459 
 321   0.0000      15.322333       416.9419 
 322   0.0000      15.388467       418.7415 
 323   0.0000      15.781423       429.4343 
 324   0.0000      16.125683       438.8021 
 325   0.0000      16.222770       441.4440 
 326   0.0000      16.677738       453.8243 
 327   0.0000      16.684524       454.0090 
 328   0.0000      16.929933       460.6869 
 329   0.0000      16.940693       460.9797 
 330   0.0000      16.961072       461.5342 
 331   0.0000      17.055001       464.0902 
 332   0.0000      17.108613       465.5490 
 333   0.0000      17.264075       469.7794 
 334   0.0000      17.309069       471.0037 
 335   0.0000      17.725174       482.3265 
 336   0.0000      18.011131       490.1078 
 337   0.0000      18.072282       491.7718 
 338   0.0000      18.286061       497.5890 
 339   0.0000      18.386775       500.3296 
 340   0.0000      18.632325       507.0113 
 341   0.0000      18.645298       507.3643 
 342   0.0000      18.842870       512.7406 
 343   0.0000      18.877890       513.6935 
 344   0.0000      18.892805       514.0993 
 345   0.0000      19.944603       542.7202 
 346   0.0000      20.200125       549.6733 
 347   0.0000      20.314185       552.7771 
 348   0.0000      20.770435       565.1923 
 349   0.0000      22.298786       606.7808 
 350   0.0000      22.953117       624.5861 
 351   0.0000      23.012105       626.1912 
 352   0.0000      23.451890       638.1584 
 353   0.0000      23.596557       642.0950 
 354   0.0000      23.922461       650.9633 
 355   0.0000      24.134632       656.7367 
 356   0.0000      25.467440       693.0043 
 357   0.0000      26.488033       720.7760 
 358   0.0000      30.145163       820.2916 
 359   0.0000      31.909503       868.3017 
 360   0.0000      31.975707       870.1032 
 361   0.0000      32.036017       871.7443 
 362   0.0000      32.283761       878.4858 
 363   0.0000      32.704288       889.9289 
 364   0.0000      33.854309       921.2226 
 365   0.0000      34.267307       932.4608 
 366   0.0000      34.495548       938.6716 
 367   0.0000      40.927181      1113.6852 
 368   0.0000      66.519328      1810.0829 
 369   0.0000      66.556680      1811.0993 
 370   0.0000      67.048663      1824.4869 
 371   0.0000      67.174418      1827.9088 
 372   0.0000      68.625364      1867.3911 
 373   0.0000      75.007797      2041.0659 
 374   0.0000      90.991909      2476.0157 
 375   0.0000      91.086122      2478.5794 
 376   0.0000      92.284846      2511.1983 
 377   0.0000     143.319733      3899.9282 

                 SPIN DOWN ORBITALS
  NO   OCC          E(Eh)            E(eV) 
   0   1.0000     -18.814131      -511.9585 
   1   1.0000      -9.983314      -271.6598 
   2   1.0000      -1.003836       -27.3158 
   3   1.0000      -0.550014       -14.9666 
   4   1.0000      -0.432251       -11.7622 
   5   1.0000      -0.388171       -10.5627 
   6   1.0000      -0.347856        -9.4656 
   7   0.0000      -0.127227        -3.4620 
   8   0.0000      -0.088882        -2.4186 
   9   0.0000      -0.005861        -0.1595 
  10   0.0000       0.014944         0.4066 
  11   0.0000       0.021239         0.5779 
  12   0.0000       0.021544         0.5862 
  13   0.0000       0.044343         1.2066 
  14   0.0000       0.054027         1.4702 
  15   0.0000       0.058123         1.5816 
  16   0.0000       0.058737         1.5983 
  17   0.0000       0.065935         1.7942 
  18   0.0000       0.073299         1.9946 
  19   0.0000       0.082683         2.2499 
  20   0.0000       0.089080         2.4240 
  21   0.0000       0.089969         2.4482 
  22   0.0000       0.123445         3.3591 
  23   0.0000       0.127962         3.4820 
  24   0.0000       0.136151         3.7049 
  25   0.0000       0.140649         3.8272 
  26   0.0000       0.141730         3.8567 
  27   0.0000       0.143717         3.9107 
  28   0.0000       0.155087         4.2201 
  29   0.0000       0.168384         4.5820 
  30   0.0000       0.182986         4.9793 
  31   0.0000       0.187620         5.1054 
  32   0.0000       0.188938         5.1413 
  33   0.0000       0.191452         5.2097 
  34   0.0000       0.195544         5.3210 
  35   0.0000       0.210741         5.7346 
  36   0.0000       0.229611         6.2480 
  37   0.0000       0.239525         6.5178 
  38   0.0000       0.243584         6.6283 
  39   0.0000       0.244218         6.6455 
  40   0.0000       0.260949         7.1008 
  41   0.0000       0.261159         7.1065 
  42   0.0000       0.264337         7.1930 
  43   0.0000       0.266345         7.2476 
  44   0.0000       0.272765         7.4223 
  45   0.0000       0.273845         7.4517 
  46   0.0000       0.281787         7.6678 
  47   0.0000       0.301691         8.2094 
  48   0.0000       0.305486         8.3127 
  49   0.0000       0.317341         8.6353 
  50   0.0000       0.327259         8.9052 
  51   0.0000       0.329270         8.9599 
  52   0.0000       0.340178         9.2567 
  53   0.0000       0.344772         9.3817 
  54   0.0000       0.350562         9.5393 
  55   0.0000       0.356934         9.7127 
  56   0.0000       0.383947        10.4477 
  57   0.0000       0.386444        10.5157 
  58   0.0000       0.393971        10.7205 
  59   0.0000       0.403139        10.9700 
  60   0.0000       0.406532        11.0623 
  61   0.0000       0.423441        11.5224 
  62   0.0000       0.428441        11.6585 
  63   0.0000       0.438361        11.9284 
  64   0.0000       0.438649        11.9363 
  65   0.0000       0.452688        12.3183 
  66   0.0000       0.457144        12.4395 
  67   0.0000       0.466674        12.6989 
  68   0.0000       0.469057        12.7637 
  69   0.0000       0.480028        13.0622 
  70   0.0000       0.489714        13.3258 
  71   0.0000       0.495432        13.4814 
  72   0.0000       0.508518        13.8375 
  73   0.0000       0.511439        13.9170 
  74   0.0000       0.528301        14.3758 
  75   0.0000       0.542569        14.7641 
  76   0.0000       0.542624        14.7656 
  77   0.0000       0.556848        15.1526 
  78   0.0000       0.558109        15.1869 
  79   0.0000       0.564595        15.3634 
  80   0.0000       0.566856        15.4249 
  81   0.0000       0.574223        15.6254 
  82   0.0000       0.581409        15.8209 
  83   0.0000       0.584362        15.9013 
  84   0.0000       0.590824        16.0771 
  85   0.0000       0.595395        16.2015 
  86   0.0000       0.618127        16.8201 
  87   0.0000       0.621538        16.9129 
  88   0.0000       0.633886        17.2489 
  89   0.0000       0.646110        17.5815 
  90   0.0000       0.646396        17.5893 
  91   0.0000       0.656648        17.8683 
  92   0.0000       0.667854        18.1732 
  93   0.0000       0.670277        18.2392 
  94   0.0000       0.682201        18.5636 
  95   0.0000       0.686860        18.6904 
  96   0.0000       0.687069        18.6961 
  97   0.0000       0.701195        19.0805 
  98   0.0000       0.701701        19.0943 
  99   0.0000       0.718335        19.5469 
 100   0.0000       0.733217        19.9518 
 101   0.0000       0.735842        20.0233 
 102   0.0000       0.761343        20.7172 
 103   0.0000       0.771359        20.9897 
 104   0.0000       0.773686        21.0531 
 105   0.0000       0.791022        21.5248 
 106   0.0000       0.797329        21.6964 
 107   0.0000       0.807532        21.9741 
 108   0.0000       0.817489        22.2450 
 109   0.0000       0.844467        22.9791 
 110   0.0000       0.852172        23.1888 
 111   0.0000       0.854785        23.2599 
 112   0.0000       0.868390        23.6301 
 113   0.0000       0.871415        23.7124 
 114   0.0000       0.880838        23.9688 
 115   0.0000       0.888512        24.1776 
 116   0.0000       0.892068        24.2744 
 117   0.0000       0.914265        24.8784 
 118   0.0000       0.916476        24.9386 
 119   0.0000       0.932716        25.3805 
 120   0.0000       0.955441        25.9989 
 121   0.0000       0.961827        26.1726 
 122   0.0000       0.988290        26.8927 
 123   0.0000       0.989231        26.9184 
 124   0.0000       1.001758        27.2592 
 125   0.0000       1.007566        27.4173 
 126   0.0000       1.008980        27.4557 
 127   0.0000       1.024259        27.8715 
 128   0.0000       1.029430        28.0122 
 129   0.0000       1.070313        29.1247 
 130   0.0000       1.077695        29.3256 
 131   0.0000       1.081227        29.4217 
 132   0.0000       1.099978        29.9319 
 133   0.0000       1.106954        30.1217 
 134   0.0000       1.118483        30.4355 
 135   0.0000       1.154616        31.4187 
 136   0.0000       1.156984        31.4831 
 137   0.0000       1.163361        31.6567 
 138   0.0000       1.208257        32.8784 
 139   0.0000       1.212550        32.9952 
 140   0.0000       1.241113        33.7724 
 141   0.0000       1.256956        34.2035 
 142   0.0000       1.295260        35.2458 
 143   0.0000       1.317042        35.8385 
 144   0.0000       1.378654        37.5151 
 145   0.0000       1.430175        38.9170 
 146   0.0000       1.444476        39.3062 
 147   0.0000       1.454996        39.5924 
 148   0.0000       1.511159        41.1207 
 149   0.0000       1.539334        41.8874 
 150   0.0000       1.615825        43.9688 
 151   0.0000       1.653326        44.9893 
 152   0.0000       1.665865        45.3305 
 153   0.0000       1.691435        46.0263 
 154   0.0000       1.697959        46.2038 
 155   0.0000       1.787395        48.6375 
 156   0.0000       1.793702        48.8091 
 157   0.0000       1.833408        49.8896 
 158   0.0000       1.843616        50.1673 
 159   0.0000       1.906495        51.8784 
 160   0.0000       1.913619        52.0722 
 161   0.0000       1.951234        53.0958 
 162   0.0000       1.982670        53.9512 
 163   0.0000       2.022403        55.0324 
 164   0.0000       2.033922        55.3458 
 165   0.0000       2.111897        57.4676 
 166   0.0000       2.140245        58.2390 
 167   0.0000       2.142297        58.2949 
 168   0.0000       2.165955        58.9386 
 169   0.0000       2.225811        60.5674 
 170   0.0000       2.261683        61.5435 
 171   0.0000       2.267521        61.7024 
 172   0.0000       2.301570        62.6289 
 173   0.0000       2.369289        64.4716 
 174   0.0000       2.386943        64.9520 
 175   0.0000       2.411238        65.6131 
 176   0.0000       2.491668        67.8017 
 177   0.0000       2.517452        68.5034 
 178   0.0000       2.577051        70.1251 
 179   0.0000       2.680793        72.9481 
 180   0.0000       2.691780        73.2471 
 181   0.0000       2.795506        76.0696 
 182   0.0000       2.888524        78.6007 
 183   0.0000       3.016784        82.0909 
 184   0.0000       3.078980        83.7833 
 185   0.0000       3.206705        87.2589 
 186   0.0000       3.214950        87.4832 
 187   0.0000       3.342316        90.9490 
 188   0.0000       3.361704        91.4766 
 189   0.0000       3.417311        92.9898 
 190   0.0000       3.533078        96.1399 
 191   0.0000       3.600533        97.9755 
 192   0.0000       3.610064        98.2348 
 193   0.0000       3.726347       101.3991 
 194   0.0000       3.775794       102.7446 
 195   0.0000       3.876305       105.4796 
 196   0.0000       3.886381       105.7538 
 197   0.0000       3.965133       107.8968 
 198   0.0000       4.003494       108.9406 
 199   0.0000       4.084242       111.1379 
 200   0.0000       4.101375       111.6041 
 201   0.0000       4.139786       112.6493 
 202   0.0000       4.177725       113.6817 
 203   0.0000       4.257695       115.8578 
 204   0.0000       4.311419       117.3197 
 205   0.0000       4.353630       118.4683 
 206   0.0000       4.411978       120.0560 
 207   0.0000       4.441643       120.8633 
 208   0.0000       4.472067       121.6911 
 209   0.0000       4.532363       123.3319 
 210   0.0000       4.580176       124.6329 
 211   0.0000       4.587989       124.8455 
 212   0.0000       4.635834       126.1475 
 213   0.0000       4.640028       126.2616 
 214   0.0000       4.764341       129.6443 
 215   0.0000       4.767995       129.7437 
 216   0.0000       4.814669       131.0138 
 217   0.0000       4.848801       131.9426 
 218   0.0000       4.892516       133.1321 
 219   0.0000       5.013566       136.4261 
 220   0.0000       5.064690       137.8172 
 221   0.0000       5.116255       139.2204 
 222   0.0000       5.233820       142.4195 
 223   0.0000       5.293508       144.0437 
 224   0.0000       5.328210       144.9880 
 225   0.0000       5.351706       145.6273 
 226   0.0000       5.357453       145.7837 
 227   0.0000       5.416453       147.3892 
 228   0.0000       5.512633       150.0064 
 229   0.0000       5.685231       154.7030 
 230   0.0000       5.778251       157.2342 
 231   0.0000       5.849864       159.1829 
 232   0.0000       5.866286       159.6298 
 233   0.0000       5.928360       161.3189 
 234   0.0000       5.962646       162.2518 
 235   0.0000       6.058453       164.8589 
 236   0.0000       6.134898       166.9391 
 237   0.0000       6.160932       167.6475 
 238   0.0000       6.333978       172.3563 
 239   0.0000       6.495065       176.7397 
 240   0.0000       6.573228       178.8666 
 241   0.0000       6.601313       179.6309 
 242   0.0000       6.603741       179.6969 
 243   0.0000       6.724033       182.9702 
 244   0.0000       6.846237       186.2956 
 245   0.0000       7.045944       191.7299 
 246   0.0000       7.512475       204.4248 
 247   0.0000       7.516016       204.5212 
 248   0.0000       7.658071       208.3867 
 249   0.0000       7.976182       217.0429 
 250   0.0000       8.233808       224.0533 
 251   0.0000       8.341749       226.9905 
 252   0.0000       8.480458       230.7650 
 253   0.0000       8.661320       235.6865 
 254   0.0000       8.844081       240.6597 
 255   0.0000       8.890348       241.9187 
 256   0.0000       8.969647       244.0765 
 257   0.0000       9.097969       247.5683 
 258   0.0000       9.274973       252.3848 
 259   0.0000       9.368331       254.9252 
 260   0.0000       9.390018       255.5154 
 261   0.0000       9.541867       259.6474 
 262   0.0000       9.830946       267.5136 
 263   0.0000      10.058940       273.7177 
 264   0.0000      10.200311       277.5646 
 265   0.0000      10.295031       280.1420 
 266   0.0000      10.300546       280.2921 
 267   0.0000      10.366032       282.0741 
 268   0.0000      10.507212       285.9158 
 269   0.0000      10.577100       287.8175 
 270   0.0000      10.585079       288.0346 
 271   0.0000      10.676767       290.5296 
 272   0.0000      10.686241       290.7874 
 273   0.0000      10.774574       293.1911 
 274   0.0000      10.785180       293.4797 
 275   0.0000      10.811400       294.1931 
 276   0.0000      11.103841       302.1509 
 277   0.0000      11.114189       302.4325 
 278   0.0000      11.121310       302.6262 
 279   0.0000      11.235822       305.7423 
 280   0.0000      11.274529       306.7955 
 281   0.0000      11.322864       308.1108 
 282   0.0000      11.567292       314.7620 
 283   0.0000      11.569664       314.8266 
 284   0.0000      11.642710       316.8142 
 285   0.0000      11.688386       318.0572 
 286   0.0000      11.698480       318.3318 
 287   0.0000      11.772505       320.3461 
 288   0.0000      11.862946       322.8072 
 289   0.0000      12.003363       326.6281 
 290   0.0000      12.011640       326.8533 
 291   0.0000      12.013522       326.9046 
 292   0.0000      12.081054       328.7422 
 293   0.0000      12.102480       329.3252 
 294   0.0000      12.205159       332.1192 
 295   0.0000      12.227414       332.7249 
 296   0.0000      12.242106       333.1246 
 297   0.0000      12.323472       335.3387 
 298   0.0000      12.370437       336.6167 
 299   0.0000      12.524603       340.8118 
 300   0.0000      12.529079       340.9336 
 301   0.0000      12.585112       342.4583 
 302   0.0000      12.597138       342.7856 
 303   0.0000      12.701637       345.6291 
 304   0.0000      12.743236       346.7611 
 305   0.0000      12.792049       348.0893 
 306   0.0000      12.797684       348.2427 
 307   0.0000      12.987390       353.4048 
 308   0.0000      13.036365       354.7375 
 309   0.0000      13.101422       356.5078 
 310   0.0000      13.243901       360.3849 
 311   0.0000      13.311211       362.2165 
 312   0.0000      13.403178       364.7190 
 313   0.0000      13.654534       371.5588 
 314   0.0000      13.718976       373.3123 
 315   0.0000      13.830928       376.3587 
 316   0.0000      13.939798       379.3212 
 317   0.0000      13.950923       379.6239 
 318   0.0000      14.352719       390.5573 
 319   0.0000      15.018480       408.6736 
 320   0.0000      15.024865       408.8474 
 321   0.0000      15.337948       417.3668 
 322   0.0000      15.415132       419.4671 
 323   0.0000      15.821740       430.5314 
 324   0.0000      16.167904       439.9510 
 325   0.0000      16.254734       442.3138 
 326   0.0000      16.716081       454.8677 
 327   0.0000      16.722881       455.0527 
 328   0.0000      16.951019       461.2607 
 329   0.0000      16.973691       461.8776 
 330   0.0000      16.983662       462.1490 
 331   0.0000      17.093048       465.1255 
 332   0.0000      17.143243       466.4914 
 333   0.0000      17.290323       470.4936 
 334   0.0000      17.337742       471.7839 
 335   0.0000      17.755930       483.1634 
 336   0.0000      18.030692       490.6401 
 337   0.0000      18.085016       492.1183 
 338   0.0000      18.308935       498.2114 
 339   0.0000      18.400086       500.6918 
 340   0.0000      18.663651       507.8638 
 341   0.0000      18.674495       508.1588 
 342   0.0000      18.859690       513.1983 
 343   0.0000      18.901499       514.3359 
 344   0.0000      18.909653       514.5578 
 345   0.0000      19.975895       543.5717 
 346   0.0000      20.231241       550.5201 
 347   0.0000      20.347162       553.6744 
 348   0.0000      20.799936       565.9950 
 349   0.0000      22.311337       607.1223 
 350   0.0000      22.987390       625.5187 
 351   0.0000      23.045452       627.0986 
 352   0.0000      23.500395       639.4783 
 353   0.0000      23.644966       643.4122 
 354   0.0000      23.925551       651.0473 
 355   0.0000      24.167526       657.6318 
 356   0.0000      25.511614       694.2063 
 357   0.0000      26.501687       721.1476 
 358   0.0000      30.158700       820.6600 
 359   0.0000      31.919525       868.5744 
 360   0.0000      32.011727       871.0834 
 361   0.0000      32.060268       872.4042 
 362   0.0000      32.316407       879.3741 
 363   0.0000      32.712322       890.1475 
 364   0.0000      33.873707       921.7504 
 365   0.0000      34.278540       932.7665 
 366   0.0000      34.514043       939.1749 
 367   0.0000      40.971118      1114.8808 
 368   0.0000      66.542431      1810.7116 
 369   0.0000      66.579506      1811.7205 
 370   0.0000      67.051432      1824.5622 
 371   0.0000      67.198363      1828.5604 
 372   0.0000      68.635875      1867.6771 
 373   0.0000      75.019869      2041.3944 
 374   0.0000      91.043958      2477.4320 
 375   0.0000      91.138147      2479.9951 
 376   0.0000      92.335559      2512.5783 
 377   0.0000     143.328347      3900.1626 

                    ********************************
                    * MULLIKEN POPULATION ANALYSIS *
                    ********************************

--------------------------------------------
MULLIKEN ATOMIC CHARGES AND SPIN POPULATIONS
--------------------------------------------
   0 C :    0.154490    0.446491
   1 H :    0.031145    0.181078
   2 O :   -0.185635    0.372431
Sum of atomic charges         :   -0.0000000
Sum of atomic spin populations:    1.0000000

-----------------------------------------------------
MULLIKEN REDUCED ORBITAL CHARGES AND SPIN POPULATIONS
-----------------------------------------------------
CHARGE
  0 C s       :     3.339496  s :     3.339496
      pz      :     0.568387  p :     2.361203
      px      :     0.871844
      py      :     0.920972
      dz2     :     0.008247  d :     0.130749
      dxz     :     0.005058
      dyz     :     0.022864
      dx2y2   :     0.065008
      dxy     :     0.029572
      f0      :     0.001072  f :     0.012101
      f+1     :     0.000550
      f-1     :     0.000848
      f+2     :     0.000812
      f-2     :     0.001924
      f+3     :     0.002067
      f-3     :     0.004830
      g0      :     0.000060  g :     0.001833
      g+1     :     0.000126
      g-1     :     0.000282
      g+2     :     0.000117
      g-2     :     0.000098
      g+3     :     0.000247
      g-3     :    -0.000002
      g+4     :     0.000513
      g-4     :     0.000393
      h0      :    -0.000002  h :     0.000128
      h+1     :    -0.000001
      h-1     :     0.000006
      h+2     :     0.000013
      h-2     :     0.000008
      h+3     :     0.000012
      h-3     :     0.000003
      h+4     :     0.000007
      h-4     :     0.000017
      h+5     :     0.000030
      h-5     :     0.000035
  1 H s       :     0.898981  s :     0.898981
      pz      :     0.012930  p :     0.063231
      px      :     0.032437
      py      :     0.017865
      dz2     :     0.002010  d :     0.003511
      dxz     :     0.002651
      dyz     :    -0.000157
      dx2y2   :    -0.001500
      dxy     :     0.000506
      f0      :     0.001256  f :     0.002606
      f+1     :     0.000570
      f-1     :     0.000141
      f+2     :     0.000226
      f-2     :     0.000250
      f+3     :    -0.000164
      f-3     :     0.000328
      g0      :     0.000021  g :     0.000527
      g+1     :     0.000267
      g-1     :     0.000029
      g+2     :     0.000055
      g-2     :     0.000035
      g+3     :    -0.000003
      g-3     :    -0.000006
      g+4     :     0.000044
      g-4     :     0.000086
  2 O s       :     3.864497  s :     3.864497
      pz      :     1.363912  p :     4.262207
      px      :     1.533689
      py      :     1.364606
      dz2     :     0.001832  d :     0.051544
      dxz     :     0.004562
      dyz     :     0.011356
      dx2y2   :     0.026775
      dxy     :     0.007019
      f0      :     0.000284  f :     0.006580
      f+1     :     0.000096
      f-1     :    -0.000026
      f+2     :     0.000323
      f-2     :     0.001093
      f+3     :     0.000765
      f-3     :     0.004046
      g0      :    -0.000021  g :     0.000726
      g+1     :    -0.000008
      g-1     :     0.000055
      g+2     :    -0.000067
      g-2     :     0.000012
      g+3     :     0.000149
      g-3     :     0.000000
      g+4     :     0.000329
      g-4     :     0.000276
      h0      :     0.000003  h :     0.000081
      h+1     :    -0.000016
      h-1     :     0.000000
      h+2     :     0.000005
      h-2     :     0.000002
      h+3     :     0.000002
      h-3     :    -0.000022
      h+4     :     0.000002
      h-4     :     0.000008
      h+5     :     0.000084
      h-5     :     0.000014

SPIN
  0 C s       :     0.007040  s :     0.007040
      pz      :     0.011936  p :     0.412103
      px      :     0.081877
      py      :     0.318289
      dz2     :     0.003026  d :     0.028483
      dxz     :     0.001881
      dyz     :    -0.002500
      dx2y2   :     0.022769
      dxy     :     0.003307
      f0      :    -0.000291  f :    -0.001176
      f+1     :    -0.000225
      f-1     :     0.000092
      f+2     :     0.000358
      f-2     :    -0.000738
      f+3     :    -0.000250
      f-3     :    -0.000122
      g0      :     0.000005  g :     0.000000
      g+1     :    -0.000026
      g-1     :    -0.000015
      g+2     :     0.000009
      g-2     :    -0.000013
      g+3     :     0.000023
      g-3     :     0.000001
      g+4     :    -0.000088
      g-4     :     0.000104
      h0      :    -0.000003  h :     0.000041
      h+1     :    -0.000003
      h-1     :    -0.000002
      h+2     :    -0.000000
      h-2     :    -0.000001
      h+3     :     0.000006
      h-3     :     0.000003
      h+4     :    -0.000001
      h-4     :     0.000005
      h+5     :     0.000026
      h-5     :     0.000010
  1 H s       :     0.161656  s :     0.161656
      pz      :     0.003418  p :     0.019317
      px      :     0.009793
      py      :     0.006106
      dz2     :     0.000619  d :     0.000555
      dxz     :     0.000672
      dyz     :    -0.000425
      dx2y2   :     0.000018
      dxy     :    -0.000330
      f0      :     0.000018  f :    -0.000282
      f+1     :    -0.000005
      f-1     :     0.000121
      f+2     :    -0.000080
      f-2     :    -0.000375
      f+3     :     0.000336
      f-3     :    -0.000297
      g0      :     0.000001  g :    -0.000167
      g+1     :    -0.000011
      g-1     :    -0.000023
      g+2     :    -0.000023
      g-2     :     0.000017
      g+3     :    -0.000001
      g-3     :    -0.000089
      g+4     :     0.000028
      g-4     :    -0.000066
  2 O s       :     0.046316  s :     0.046316
      pz      :    -0.013391  p :     0.310066
      px      :     0.173945
      py      :     0.149511
      dz2     :     0.001140  d :     0.014659
      dxz     :     0.000037
      dyz     :    -0.000288
      dx2y2   :     0.012407
      dxy     :     0.001363
      f0      :     0.000096  f :     0.001268
      f+1     :    -0.000080
      f-1     :    -0.000139
      f+2     :    -0.000019
      f-2     :    -0.000187
      f+3     :    -0.000411
      f-3     :     0.002007
      g0      :    -0.000053  g :     0.000102
      g+1     :    -0.000020
      g-1     :    -0.000002
      g+2     :    -0.000096
      g-2     :    -0.000039
      g+3     :     0.000040
      g-3     :    -0.000002
      g+4     :     0.000245
      g-4     :     0.000029
      h0      :    -0.000002  h :     0.000020
      h+1     :    -0.000014
      h-1     :    -0.000007
      h+2     :     0.000004
      h-2     :    -0.000004
      h+3     :    -0.000007
      h-3     :    -0.000015
      h+4     :    -0.000003
      h-4     :     0.000003
      h+5     :     0.000065
      h-5     :    -0.000000


                     *******************************
                     * LOEWDIN POPULATION ANALYSIS *
                     *******************************

-------------------------------------------
LOEWDIN ATOMIC CHARGES AND SPIN POPULATIONS
-------------------------------------------
   0 C :    0.215211    0.481238
   1 H :   -0.571032    0.152311
   2 O :    0.355821    0.366452

----------------------------------------------------
LOEWDIN REDUCED ORBITAL CHARGES AND SPIN POPULATIONS
----------------------------------------------------
CHARGE
  0 C s       :     2.746052  s :     2.746052
      pz      :     0.477418  p :     2.226414
      px      :     0.862580
      py      :     0.886417
      dz2     :     0.058971  d :     0.560261
      dxz     :     0.027665
      dyz     :     0.073660
      dx2y2   :     0.229789
      dxy     :     0.170177
      f0      :     0.016691  f :     0.198917
      f+1     :     0.010492
      f-1     :     0.019057
      f+2     :     0.010076
      f-2     :     0.023840
      f+3     :     0.047417
      f-3     :     0.071344
      g0      :     0.001791  g :     0.046496
      g+1     :     0.002188
      g-1     :     0.006143
      g+2     :     0.003521
      g-2     :     0.003618
      g+3     :     0.006237
      g-3     :     0.000031
      g+4     :     0.014636
      g-4     :     0.008332
      h0      :     0.000613  h :     0.006649
      h+1     :     0.000291
      h-1     :     0.000505
      h+2     :     0.000142
      h-2     :     0.000782
      h+3     :     0.000745
      h-3     :     0.000407
      h+4     :     0.000118
      h-4     :     0.000364
      h+5     :     0.001349
      h-5     :     0.001334
  1 H s       :     0.760809  s :     0.760809
      pz      :     0.051259  p :     0.359269
      px      :     0.220665
      py      :     0.087345
      dz2     :     0.026743  d :     0.253429
      dxz     :     0.056138
      dyz     :     0.003674
      dx2y2   :     0.063609
      dxy     :     0.103264
      f0      :     0.012448  f :     0.124105
      f+1     :     0.015814
      f-1     :     0.006448
      f+2     :     0.010011
      f-2     :     0.007402
      f+3     :     0.031035
      f-3     :     0.040947
      g0      :     0.004615  g :     0.073421
      g+1     :     0.009218
      g-1     :     0.002353
      g+2     :     0.004254
      g-2     :     0.008565
      g+3     :     0.000228
      g-3     :     0.005757
      g+4     :     0.020535
      g-4     :     0.017895
  2 O s       :     3.227391  s :     3.227391
      pz      :     1.144665  p :     3.977906
      px      :     1.377763
      py      :     1.455478
      dz2     :     0.034076  d :     0.281466
      dxz     :     0.008665
      dyz     :     0.022903
      dx2y2   :     0.118952
      dxy     :     0.096871
      f0      :     0.005108  f :     0.112311
      f+1     :     0.010420
      f-1     :     0.011835
      f+2     :     0.002529
      f-2     :     0.007006
      f+3     :     0.020833
      f-3     :     0.054579
      g0      :     0.002773  g :     0.034507
      g+1     :     0.000482
      g-1     :     0.001593
      g+2     :     0.002477
      g-2     :     0.005311
      g+3     :     0.001740
      g-3     :     0.000018
      g+4     :     0.010639
      g-4     :     0.009475
      h0      :     0.000179  h :     0.010598
      h+1     :     0.001068
      h-1     :     0.000753
      h+2     :     0.000124
      h-2     :     0.000263
      h+3     :     0.000660
      h-3     :     0.002172
      h+4     :     0.000041
      h-4     :     0.000229
      h+5     :     0.004540
      h-5     :     0.000570

SPIN
  0 C s       :     0.055862  s :     0.055862
      pz      :     0.009907  p :     0.284079
      px      :     0.088606
      py      :     0.185565
      dz2     :     0.005867  d :     0.112406
      dxz     :     0.000532
      dyz     :    -0.003918
      dx2y2   :     0.086190
      dxy     :     0.023734
      f0      :    -0.000078  f :     0.022935
      f+1     :     0.000503
      f-1     :     0.000471
      f+2     :     0.000087
      f-2     :    -0.000954
      f+3     :     0.002423
      f-3     :     0.020483
      g0      :     0.000113  g :     0.005323
      g+1     :    -0.000054
      g-1     :    -0.000004
      g+2     :     0.000925
      g-2     :     0.000342
      g+3     :     0.000029
      g-3     :    -0.000002
      g+4     :     0.003102
      g-4     :     0.000871
      h0      :     0.000004  h :     0.000633
      h+1     :     0.000011
      h-1     :     0.000009
      h+2     :    -0.000003
      h-2     :    -0.000002
      h+3     :     0.000020
      h-3     :     0.000092
      h+4     :    -0.000003
      h-4     :     0.000004
      h+5     :     0.000342
      h-5     :     0.000160
  1 H s       :     0.061011  s :     0.061011
      pz      :     0.000750  p :     0.055439
      px      :     0.043844
      py      :     0.010844
      dz2     :     0.004266  d :     0.018096
      dxz     :     0.000680
      dyz     :    -0.000153
      dx2y2   :     0.001780
      dxy     :     0.011523
      f0      :     0.000092  f :     0.009523
      f+1     :     0.000142
      f-1     :     0.000139
      f+2     :     0.000175
      f-2     :    -0.000303
      f+3     :     0.000848
      f-3     :     0.008432
      g0      :     0.000032  g :     0.008242
      g+1     :     0.000041
      g-1     :    -0.000057
      g+2     :     0.000299
      g-2     :     0.000117
      g+3     :     0.000015
      g-3     :    -0.000227
      g+4     :     0.000652
      g-4     :     0.007369
  2 O s       :     0.008833  s :     0.008833
      pz      :    -0.008311  p :     0.224817
      px      :     0.138115
      py      :     0.095012
      dz2     :     0.001088  d :     0.082619
      dxz     :     0.000122
      dyz     :     0.000781
      dx2y2   :     0.075771
      dxy     :     0.004857
      f0      :     0.000340  f :     0.034724
      f+1     :     0.001672
      f-1     :     0.001375
      f+2     :     0.000174
      f-2     :     0.000064
      f+3     :     0.002706
      f-3     :     0.028394
      g0      :     0.000161  g :     0.011641
      g+1     :     0.000017
      g-1     :     0.000107
      g+2     :     0.001640
      g-2     :     0.000397
      g+3     :     0.000086
      g-3     :     0.000009
      g+4     :     0.002813
      g-4     :     0.006412
      h0      :     0.000018  h :     0.003818
      h+1     :     0.000221
      h-1     :     0.000045
      h+2     :     0.000014
      h-2     :     0.000015
      h+3     :     0.000096
      h-3     :     0.000963
      h+4     :    -0.000009
      h-4     :     0.000015
      h+5     :     0.002397
      h-5     :     0.000043


                      *****************************
                      * MAYER POPULATION ANALYSIS *
                      *****************************

  NA   - Mulliken gross atomic population
  ZA   - Total nuclear charge
  QA   - Mulliken gross atomic charge
  VA   - Mayer's total valence
  BVA  - Mayer's bonded valence
  FA   - Mayer's free valence

  ATOM       NA         ZA         QA         VA         BVA        FA
  0 C      5.8455     6.0000     0.1545     3.6118     3.2569     0.3550
  1 H      0.9689     1.0000     0.0311     1.0669     1.0371     0.0297
  2 O      8.1856     8.0000    -0.1856     2.4119     2.3182     0.0937

  Mayer bond orders larger than 0.1
B(  0-C ,  1-H ) :   0.9879 B(  0-C ,  2-O ) :   2.2690 

-------
TIMINGS
-------

Total SCF time: 0 days 0 hours 51 min 59 sec 

Total time                  ....    3119.587 sec
Sum of individual times     ....    3118.789 sec  (100.0%)

Fock matrix formation       ....    3110.260 sec  ( 99.7%)
  XC integration            ....     122.432 sec  (  3.9% of F)
    Basis function eval.    ....       8.530 sec  (  7.0% of XC)
    Density eval.           ....      26.934 sec  ( 22.0% of XC)
    XC-Functional eval.     ....       1.071 sec  (  0.9% of XC)
    XC-Potential eval.      ....      85.142 sec  ( 69.5% of XC)
Diagonalization             ....       1.268 sec  (  0.0%)
Density matrix formation    ....       0.024 sec  (  0.0%)
Population analysis         ....       0.094 sec  (  0.0%)
Initial guess               ....       4.427 sec  (  0.1%)
Orbital Transformation      ....       0.000 sec  (  0.0%)
Orbital Orthonormalization  ....       0.000 sec  (  0.0%)
DIIS solution               ....       0.609 sec  (  0.0%)
Grid generation             ....       2.106 sec  (  0.1%)

-------------------------   --------------------
FINAL SINGLE POINT ENERGY      -113.782363505321
-------------------------   --------------------


                            ***************************************
                            *     ORCA property calculations      *
                            ***************************************

                                    ---------------------
                                    Active property flags
                                    ---------------------
   (+) Dipole Moment
   (+) Polarizability


------------------------------------------------------------------------------
                       ORCA ELECTRIC PROPERTIES CALCULATION
------------------------------------------------------------------------------

Dipole Moment Calculation                       ... on
Quadrupole Moment Calculation                   ... off
Polarizability Calculation                      ... Analytic (CP-SCF)
GBWName                                         ... hco_pbe.gbw
Electron density file                           ... hco_pbe.scfp.tmp
The origin for moment calculation is the CENTER OF MASS  = (-0.543719,  1.086385  0.000000)

-------------
DIPOLE MOMENT
-------------
                                X             Y             Z
Electronic contribution:     -0.70265       0.32784      -0.00000
Nuclear contribution   :      1.27870      -0.53243       0.00000
                        -----------------------------------------
Total Dipole Moment    :      0.57605      -0.20459      -0.00000
                        -----------------------------------------
Magnitude (a.u.)       :      0.61130
Magnitude (Debye)      :      1.55380



--------------------
Rotational spectrum 
--------------------
 
Rotational constants in cm-1:    22.707377     1.478412     1.388041 
Rotational constants in MHz : 680750.036446 44321.680166 41612.415293 

 Dipole components along the rotational axes: 
x,y,z [a.u.] :     0.501199    -0.349979    -0.000000 
x,y,z [Debye]:     1.273946    -0.889577    -0.000000 

 
Transforming and storing MO dipole integrals   ... done

                ... starting polarizability calculation

Opening the Dipole integral file               ... (hco_pbe.dmo.tmp) done
Reading Dipole-MO integrals                    ... done
Solving CP-SCF equations                       ... 
------------------------------------------------------------------------------
                           ORCA CP-SCF CALCULATION
------------------------------------------------------------------------------

Input orbitals are from        ... hco_pbe.gbw
Input Perturbation             ... hco_pbe.cpv.tmp
Wavefunction output            ... hco_pbe.cpu.tmp
Perturbation mode              ... Real perturbation (singlet)
Solver                         ... POPLE
Max. number of iterations      ... 200
Convergence tolerance          ... 1.000e-06
Integral handling              ... Direct
Number of perturbations        ... 3
Number of operators            ... 2
Orbital ranges used for CP-SCF:
 Operator 0:  Orbitals   0...  7  to   8...377
 Operator 1:  Orbitals   0...  6  to   7...377
DFT calculation                         ... on
Exchange functional (SCF)               ... PBE
Exchange functional (CP-SCF)            ... PBE
   PBE kappa parameter  XKappa (SCF)    ...  0.804000
   PBE kappa parameter  XKappa (CP-SCF) ...  0.804000
   PBE mue parameter   XMuePBE (SCF)    ...  0.219520
   PBE mue parameter   XMuePBE (CP-SCF) ...  0.219520
Correlation functional (SCF)            ... PBE
Correlation functional (CP-SCF)         ... PBE
   PBE beta parameter CBetaPBE (SCF)    ...  0.066725
   PBE beta parameter CBetaPBE (CP-SCF) ...  0.066725
 LDA part of GGA corr.  LDAOpt (SCF)    ... PW91-LDA
 LDA part of GGA corr.  LDAOpt (CP-SCF) ... PW91-LDA
Variables per vector in CP-SCF ... 5557
Number of vectors sought       ... 3
Recalculating density on grid  ... done
Calculating the xc-kernel      ... done
     CP-SCF ITERATION   0: 
     CP-SCF ITERATION   1:      0.701719991590
     CP-SCF ITERATION   2:      0.048132799899
     CP-SCF ITERATION   3:      0.006983263044
     CP-SCF ITERATION   4:      0.000596327429
     CP-SCF ITERATION   5:      0.000060108736
     CP-SCF ITERATION   6:      0.000003453876
     CP-SCF ITERATION   7:      0.000000566623
done
Reading CP-SCF coefficients                    ... done
Doing the polarizability tensor   ... done
Cleaning up                                    ... done

-------------------------
THE POLARIZABILITY TENSOR
-------------------------

The raw cartesian tensor (atomic units):
   19.58193     -2.06250      0.00000  
   -2.06250     20.69725     -0.00000  
    0.00000     -0.00000     13.90640  
diagonalized tensor: 
   13.90640     18.00303     22.27615  

   -0.00000     -0.79404      0.60786  
   -0.00000     -0.60786     -0.79404  
    1.00000     -0.00000      0.00000  

Isotropic polarizability :  18.06186


Timings for individual modules:

Sum of individual times         ...     5832.494 sec (=  97.208 min)
GTO integral calculation        ...        5.598 sec (=   0.093 min)   0.1 %
SCF iterations                  ...     3124.149 sec (=  52.069 min)  53.6 %
Solution of CP-SCF eqns.        ...     2702.748 sec (=  45.046 min)  46.3 %
                             ****ORCA TERMINATED NORMALLY****
TOTAL RUN TIME: 0 days 1 hours 37 minutes 20 seconds 567 msec
