
                                 *****************
                                 * O   R   C   A *
                                 *****************

           --- An Ab Initio, DFT and Semiempirical electronic structure package ---

                  #######################################################
                  #                        -***-                        #
                  #          Department of theory and spectroscopy      #
                  #               Directorship: Frank Neese             #
                  #        Max Planck Institute fuer Kohlenforschung    #
                  #                Kaiser Wilhelm Platz 1               #
                  #                 D-45470 Muelheim/Ruhr               #
                  #                      Germany                        #
                  #                                                     #
                  #                  All rights reserved                #
                  #                        -***-                        #
                  #######################################################


                         Program Version 4.1.2  - RELEASE  -


 With contributions from (in alphabetic order):
   Daniel Aravena         : Magnetic Properties
   Michael Atanasov       : Ab Initio Ligand Field Theory
   Alexander A. Auer      : GIAO ZORA
   Ute Becker             : Parallelization
   Giovanni Bistoni       : ED, Open-shell LED
   Martin Brehm           : Molecular dynamics
   Dmytro Bykov           : SCF Hessian
   Vijay G. Chilkuri      : MRCI spin determinant printing
   Dipayan Datta          : RHF DLPNO-CCSD density
   Achintya Kumar Dutta   : EOM-CC, STEOM-CC
   Dmitry Ganyushin       : Spin-Orbit,Spin-Spin,Magnetic field MRCI
   Miquel Garcia          : C-PCM Hessian
   Yang Guo               : DLPNO-NEVPT2, CIM, IAO-localization
   Andreas Hansen         : Spin unrestricted coupled pair/coupled cluster methods
   Benjamin Helmich-Paris : CASSCF linear response (MC-RPA)
   Lee Huntington         : MR-EOM, pCC
   Robert Izsak           : Overlap fitted RIJCOSX, COSX-SCS-MP3, EOM
   Christian Kollmar      : KDIIS, OOCD, Brueckner-CCSD(T), CCSD density
   Simone Kossmann        : Meta GGA functionals, TD-DFT gradient, OOMP2, MP2 Hessian
   Martin Krupicka        : AUTO-CI
   Lucas Lang             : DCDCAS
   Dagmar Lenk            : GEPOL surface, SMD
   Dimitrios Liakos       : Extrapolation schemes; parallel MDCI
   Dimitrios Manganas     : ROCIS; embedding schemes
   Dimitrios Pantazis     : SARC Basis sets
   Taras Petrenko         : DFT Hessian,TD-DFT gradient, ASA, ECA, R-Raman, ABS, FL, XAS/XES, NRVS
   Peter Pinski           : DLPNO-MP2, DLPNO-MP2 Gradient
   Christoph Reimann      : Effective Core Potentials
   Marius Retegan         : Local ZFS, SOC
   Christoph Riplinger    : Optimizer, TS searches, QM/MM, DLPNO-CCSD(T), (RO)-DLPNO pert. Triples
   Tobias Risthaus        : Range-separated hybrids, TD-DFT gradient, RPA, STAB
   Michael Roemelt        : Restricted open shell CIS
   Masaaki Saitow         : Open-shell DLPNO
   Barbara Sandhoefer     : DKH picture change effects
   Avijit Sen             : IP-ROCIS
   Kantharuban Sivalingam : CASSCF convergence, NEVPT2, FIC-MRCI
   Bernardo de Souza      : ESD, SOC TD-DFT
   Georgi Stoychev        : AutoAux, RI-MP2 NMR
   Willem Van den Heuvel  : Paramagnetic NMR
   Boris Wezisla          : Elementary symmetry handling
   Frank Wennmohs         : Technical directorship


 We gratefully acknowledge several colleagues who have allowed us to
 interface, adapt or use parts of their codes:
   Stefan Grimme, W. Hujo, H. Kruse,             : VdW corrections, initial TS optimization,
                  C. Bannwarth                     DFT functionals, gCP, sTDA/sTD-DF
   Ed Valeev                                     : LibInt (2-el integral package), F12 methods
   Garnet Chan, S. Sharma, J. Yang, R. Olivares  : DMRG
   Ulf Ekstrom                                   : XCFun DFT Library
   Mihaly Kallay                                 : mrcc  (arbitrary order and MRCC methods)
   Andreas Klamt, Michael Diedenhofen            : otool_cosmo (COSMO solvation model)
   Jiri Pittner, Ondrej Demel                    : Mk-CCSD
   Frank Weinhold                                : gennbo (NPA and NBO analysis)
   Christopher J. Cramer and Donald G. Truhlar   : smd solvation model
   Lars Goerigk                                  : TD-DFT with DH, B97 family of functionals
   V. Asgeirsson, H. Jonsson                     : NEB implementation
   FAccTs GmbH                                   : IRC, NEB, NEB-TS, Multilevel


 Your calculation uses the libint2 library for the computation of 2-el integrals
 For citations please refer to: http://libint.valeyev.net

 This ORCA versions uses:
   CBLAS   interface :  Fast vector & matrix operations
   LAPACKE interface :  Fast linear algebra routines
   SCALAPACK package :  Parallel linear algebra routines


----- Orbital basis set information -----
Your calculation utilizes the basis: aug-pc-4
   H, C-F              : F. Jensen, J. Chem. Phys. 115, 9113 (2001).
                         F. Jensen, J. Chem. Phys. 116, 7372 (2002).
                         F. Jensen, J. Chem. Phys. 117, 9234 (2002).
   Si-Cl               : F. Jensen, T. Helgaker, J. Chem. Phys. 121, 3463 (2004).
   He-B, Ne-Mg, Al, Ar : F. Jensen, J. Phys. Chem. A 111, 11198 (2007).
   K, Ca, Ga-Kr        : F. Jensen, J. Chem. Phys. 136, 094110 (2012).
   Sc-Zn               : F. Jensen, J. Chem. Phys. 138, 014107 (2013).

================================================================================
                                        WARNINGS
                       Please study these warnings very carefully!
================================================================================


INFO   : the flag for use of LIBINT has been found!

================================================================================
                                       INPUT FILE
================================================================================
NAME = hconh2_pbe.inp
|  1> !uks pbe nori aug-pc-4 grid7 nofinalgrid verytightscf
|  2> 
|  3> %maxcore 1500
|  4> 
|  5> %pal nprocs 4 end
|  6> 
|  7> %scf
|  8> 	maxiter 200
|  9> end
| 10> %elprop
| 11> 	dipole true
| 12> 	 polar 1
| 13> 	 maxiter 200
| 14> end
| 15> 
| 16> * xyz 0 1
| 17> C 0.0000 0.4165 0.0000
| 18> O 1.1942 0.2217 0.0000
| 19> N -0.9373 -0.5551 0.0000
| 20> H -0.4299 1.4182 0.0000
| 21> H -0.6608 -1.5171 0.0000
| 22> H -1.9020 -0.2881 0.0000
| 23> *
| 24> 
| 25>                          ****END OF INPUT****
================================================================================

                       ****************************
                       * Single Point Calculation *
                       ****************************

---------------------------------
CARTESIAN COORDINATES (ANGSTROEM)
---------------------------------
  C      0.000000    0.416500    0.000000
  O      1.194200    0.221700    0.000000
  N     -0.937300   -0.555100    0.000000
  H     -0.429900    1.418200    0.000000
  H     -0.660800   -1.517100    0.000000
  H     -1.902000   -0.288100    0.000000

----------------------------
CARTESIAN COORDINATES (A.U.)
----------------------------
  NO LB      ZA    FRAG     MASS         X           Y           Z
   0 C     6.0000    0    12.011    0.000000    0.787071    0.000000
   1 O     8.0000    0    15.999    2.256711    0.418952    0.000000
   2 N     7.0000    0    14.007   -1.771240   -1.048987    0.000000
   3 H     1.0000    0     1.008   -0.812393    2.680010    0.000000
   4 H     1.0000    0     1.008   -1.248731   -2.866904    0.000000
   5 H     1.0000    0     1.008   -3.594259   -0.544430    0.000000

--------------------------------
INTERNAL COORDINATES (ANGSTROEM)
--------------------------------
 C      0   0   0     0.000000000000     0.00000000     0.00000000
 O      1   0   0     1.209983751957     0.00000000     0.00000000
 N      1   2   0     1.350014018446   124.70600338     0.00000000
 H      1   2   3     1.090053622534   122.49216824   180.00000085
 H      3   1   2     1.000947675955   119.99358902     0.00000000
 H      3   1   2     1.000967077381   118.50010283   180.00000000

---------------------------
INTERNAL COORDINATES (A.U.)
---------------------------
 C      0   0   0     0.000000000000     0.00000000     0.00000000
 O      1   0   0     2.286537917693     0.00000000     0.00000000
 N      1   2   0     2.551156771817   124.70600338     0.00000000
 H      1   2   3     2.059902817878   122.49216824   180.00000085
 H      3   1   2     1.891516981940   119.99358902     0.00000000
 H      3   1   2     1.891553645321   118.50010283   180.00000000

---------------------
BASIS SET INFORMATION
---------------------
There are 4 groups of distinct atoms

 Group   1 Type C   : 28s12p7d4f3g2h contracted to 9s8p7d4f3g2h pattern {11101111111/51111111/1111111/1111/111/11}
 Group   2 Type O   : 27s12p7d4f3g2h contracted to 9s8p7d4f3g2h pattern {1191111111/51111111/1111111/1111/111/11}
 Group   3 Type N   : 27s12p7d4f3g2h contracted to 9s8p7d4f3g2h pattern {1191111111/51111111/1111111/1111/111/11}
 Group   4 Type H   : 12s7p4d3f2g contracted to 8s7p4d3f2g pattern {51111111/1111111/1111/111/11}

Atom   0C    basis set group =>   1
Atom   1O    basis set group =>   2
Atom   2N    basis set group =>   3
Atom   3H    basis set group =>   4
Atom   4H    basis set group =>   4
Atom   5H    basis set group =>   4


           ************************************************************
           *        Program running with 4 parallel MPI-processes     *
           *              working on a common directory               *
           ************************************************************
------------------------------------------------------------------------------
                           ORCA GTO INTEGRAL CALCULATION
------------------------------------------------------------------------------

                         BASIS SET STATISTICS AND STARTUP INFO

 # of primitive gaussian shells          ...  250
 # of primitive gaussian functions       ...  802
 # of contracted shells                  ...  171
 # of contracted basis functions         ...  699
 Highest angular momentum                ...    5
 Maximum contraction depth               ...   11
 Integral package used                   ... LIBINT
 Integral threshhold            Thresh   ...  1.000e-12
 Primitive cut-off              TCut     ...  1.000e-14


------------------------------ INTEGRAL EVALUATION ----------------------------


 * One electron integrals 
 Pre-screening matrix                    ... done
 Shell pair data                         ... done (   0.005 sec)



           ************************************************************
           *        Program running with 4 parallel MPI-processes     *
           *              working on a common directory               *
           ************************************************************
-------------------------------------------------------------------------------
                                 ORCA SCF
-------------------------------------------------------------------------------

------------
SCF SETTINGS
------------
Hamiltonian:
 Density Functional     Method          .... DFT(GTOs)
 Exchange Functional    Exchange        .... PBE
   PBE kappa parameter   XKappa         ....  0.804000
   PBE mue parameter    XMuePBE         ....  0.219520
 Correlation Functional Correlation     .... PBE
   PBE beta parameter  CBetaPBE         ....  0.066725
 LDA part of GGA corr.  LDAOpt          .... PW91-LDA
 Gradients option       PostSCFGGA      .... off
   Density functional embedding theory  .... OFF
   NL short-range parameter             ....  6.400000


General Settings:
 Integral files         IntName         .... hconh2_pbe
 Hartree-Fock type      HFTyp           .... UHF
 Total Charge           Charge          ....    0
 Multiplicity           Mult            ....    1
 Number of Electrons    NEL             ....   24
 Basis Dimension        Dim             ....  699
 Nuclear Repulsion      ENuc            ....     71.5996504178 Eh

Convergence Acceleration:
 DIIS                   CNVDIIS         .... on
   Start iteration      DIISMaxIt       ....    12
   Startup error        DIISStart       ....  0.200000
   # of expansion vecs  DIISMaxEq       ....     5
   Bias factor          DIISBfac        ....   1.050
   Max. coefficient     DIISMaxC        ....  10.000
 Newton-Raphson         CNVNR           .... off
 SOSCF                  CNVSOSCF        .... off
 Level Shifting         CNVShift        .... on
   Level shift para.    LevelShift      ....    0.2500
   Turn off err/grad.   ShiftErr        ....    0.0010
 Zerner damping         CNVZerner       .... off
 Static damping         CNVDamp         .... on
   Fraction old density DampFac         ....    0.7000
   Max. Damping (<1)    DampMax         ....    0.9800
   Min. Damping (>=0)   DampMin         ....    0.0000
   Turn off err/grad.   DampErr         ....    0.1000
 Fernandez-Rico         CNVRico         .... off

SCF Procedure:
 Maximum # iterations   MaxIter         ....   200
 SCF integral mode      SCFMode         .... Direct
   Integral package                     .... LIBINT
 Reset frequency        DirectResetFreq ....    20
 Integral Threshold     Thresh          ....  1.000e-12 Eh
 Primitive CutOff       TCut            ....  1.000e-14 Eh

Convergence Tolerance:
 Convergence Check Mode ConvCheckMode   .... Total+1el-Energy
 Convergence forced     ConvForced      .... 0
 Energy Change          TolE            ....  1.000e-09 Eh
 1-El. energy change                    ....  1.000e-06 Eh
 DIIS Error             TolErr          ....  1.000e-08


Diagonalization of the overlap matrix:
Smallest eigenvalue                        ... 4.148e-08
Time for diagonalization                   ...    0.198 sec
Threshold for overlap eigenvalues          ... 1.000e-08
Number of eigenvalues below threshold      ... 0
Time for construction of square roots      ...    0.087 sec
Total time needed                          ...    0.286 sec

-------------------
DFT GRID GENERATION
-------------------

General Integration Accuracy     IntAcc      ...  5.670
Radial Grid Type                 RadialGrid  ... Gauss-Chebyshev
Angular Grid (max. acc.)         AngularGrid ... Lebedev-770
Angular grid pruning method      GridPruning ... 3 (G Style)
Weight generation scheme         WeightScheme... Becke
Basis function cutoff            BFCut       ...    1.0000e-12
Integration weight cutoff        WCut        ...    1.0000e-14
Grids for H and He will be reduced by one unit

# of grid points (after initial pruning)     ... 128586 (   0.0 sec)
# of grid points (after weights+screening)   ... 124216 (   0.0 sec)
nearest neighbour list constructed           ...    0.0 sec
Grid point re-assignment to atoms done       ...    0.0 sec
Grid point division into batches done        ...    2.3 sec
Reduced shell lists constructed in    3.0 sec

Total number of grid points                  ...   124216
Total number of batches                      ...     1943
Average number of points per batch           ...       63
Average number of grid points per atom       ...    20703
Average number of shells per batch           ...   118.72 (69.43%)
Average number of basis functions per batch  ...   501.88 (71.80%)
Average number of large shells per batch     ...   103.93 (87.54%)
Average number of large basis fcns per batch ...   443.12 (88.29%)
Maximum spatial batch extension              ...  13.41, 13.78, 15.84 au
Average spatial batch extension              ...   0.48,  0.50,  0.54 au

Time for grid setup =    3.097 sec

------------------------------
INITIAL GUESS: MODEL POTENTIAL
------------------------------
Loading Hartree-Fock densities                     ... done
Calculating cut-offs                               ... done
Setting up the integral package                    ... done
Initializing the effective Hamiltonian             ... done
Starting the Coulomb interaction                   ... done (   0.1 sec)
Reading the grid                                   ... done
Mapping shells                                     ... done
Starting the XC term evaluation                    ... done (   5.6 sec)
  promolecular density results
     # of electrons  =     23.998530977
     EX              =    -20.683535737
     EC              =     -0.786292584
     EX+EC           =    -21.469828321
Transforming the Hamiltonian                       ... done (   0.1 sec)
Diagonalizing the Hamiltonian                      ... done (   0.1 sec)
Back transforming the eigenvectors                 ... done (   0.0 sec)
Now organizing SCF variables                       ... done
                      ------------------
                      INITIAL GUESS DONE (   9.2 sec)
                      ------------------
--------------
SCF ITERATIONS
--------------
ITER       Energy         Delta-E        Max-DP      RMS-DP      [F,P]     Damp
               ***  Starting incremental Fock matrix formation  ***
  0   -169.6401067995   0.000000000000 0.02469331  0.00019085  0.3011662 0.7000
  1   -169.7204635178  -0.080356718298 0.01692363  0.00011930  0.0992360 0.7000
                               ***Turning on DIIS***
  2   -169.7399984193  -0.019534901515 0.02879465  0.00020254  0.0286370 0.0000
  3   -169.7845537336  -0.044555314282 0.00924043  0.00007213  0.0679304 0.0000
  4   -169.7904505957  -0.005896862050 0.00341095  0.00002700  0.0384295 0.0000
  5   -169.7923316189  -0.001881023231 0.00144612  0.00001198  0.0048770 0.0000
  6   -169.7923932167  -0.000061597805 0.00110985  0.00000786  0.0016223 0.0000
  7   -169.7924000991  -0.000006882367 0.00185622  0.00001202  0.0004375 0.0000
  8   -169.7924016686  -0.000001569500 0.00012172  0.00000099  0.0002564 0.0000
  9   -169.7924018766  -0.000000208051 0.00004514  0.00000046  0.0001601 0.0000
 10   -169.7924019190  -0.000000042375 0.00004658  0.00000044  0.0000778 0.0000
 11   -169.7924019306  -0.000000011579 0.00009205  0.00000088  0.0000117 0.0000
 12   -169.7924019309  -0.000000000288 0.00017264  0.00000185  0.0000025 0.0000
 13   -169.7924019308   0.000000000021 0.00012184  0.00000121  0.0000041 0.0000
 14   -169.7924019309  -0.000000000028 0.00054748  0.00000330  0.0000006 0.0000
 15   -169.7924019309   0.000000000016 0.00101091  0.00000492  0.0000002 0.0000
 16   -169.7924019308   0.000000000029 0.00058643  0.00000519  0.0000000 0.0000
                 **** Energy Check signals convergence ****

               *****************************************************
               *                     SUCCESS                       *
               *           SCF CONVERGED AFTER  17 CYCLES          *
               *****************************************************


----------------
TOTAL SCF ENERGY
----------------

Total Energy       :         -169.79240193 Eh           -4620.28615 eV

Components:
Nuclear Repulsion  :           71.59965042 Eh            1948.32554 eV
Electronic Energy  :         -241.39205235 Eh           -6568.61169 eV
One Electron Energy:         -372.61206706 Eh          -10139.28982 eV
Two Electron Energy:          131.22001471 Eh            3570.67813 eV

Virial components:
Potential Energy   :         -339.08055135 Eh           -9226.85089 eV
Kinetic Energy     :          169.28814942 Eh            4606.56474 eV
Virial Ratio       :            2.00297866


DFT components:
N(Alpha)           :       11.999999830447 electrons
N(Beta)            :       11.999999830447 electrons
N(Total)           :       23.999999660894 electrons
E(X)               :      -21.069922864588 Eh       
E(C)               :       -0.793219665509 Eh       
E(XC)              :      -21.863142530096 Eh       
DFET-embed. en.    :        0.000000000000 Eh       

---------------
SCF CONVERGENCE
---------------

  Last Energy change         ...    1.3671e-11  Tolerance :   1.0000e-09
  Last MAX-Density change    ...    4.7536e-04  Tolerance :   1.0000e-08
  Last RMS-Density change    ...    2.6708e-06  Tolerance :   1.0000e-09
  Last DIIS Error            ...    1.0735e-08  Tolerance :   1.0000e-08

             **** THE GBW FILE WAS UPDATED (hconh2_pbe.gbw) ****
             **** DENSITY FILE WAS UPDATED (hconh2_pbe.scfp.tmp) ****
             **** ENERGY FILE WAS UPDATED (hconh2_pbe.en.tmp) ****
----------------------
UHF SPIN CONTAMINATION
----------------------

Warning: in a DFT calculation there is little theoretical justification to 
         calculate <S**2> as in Hartree-Fock theory. We will do it anyways
         but you should keep in mind that the values have only limited relevance

Expectation value of <S**2>     :     0.000000
Ideal value S*(S+1) for S=0.0   :     0.000000
Deviation                       :     0.000000

----------------
ORBITAL ENERGIES
----------------
                 SPIN UP ORBITALS
  NO   OCC          E(Eh)            E(eV) 
   0   1.0000     -18.724373      -509.5161 
   1   1.0000     -14.020695      -381.5225 
   2   1.0000      -9.979633      -271.5596 
   3   1.0000      -0.957430       -26.0530 
   4   1.0000      -0.844227       -22.9726 
   5   1.0000      -0.577989       -15.7279 
   6   1.0000      -0.516301       -14.0493 
   7   1.0000      -0.441745       -12.0205 
   8   1.0000      -0.372320       -10.1313 
   9   1.0000      -0.369475       -10.0539 
  10   1.0000      -0.250731        -6.8227 
  11   1.0000      -0.221092        -6.0162 
  12   0.0000      -0.030593        -0.8325 
  13   0.0000      -0.029493        -0.8026 
  14   0.0000      -0.006351        -0.1728 
  15   0.0000       0.010677         0.2905 
  16   0.0000       0.012431         0.3383 
  17   0.0000       0.025544         0.6951 
  18   0.0000       0.030780         0.8376 
  19   0.0000       0.034122         0.9285 
  20   0.0000       0.036763         1.0004 
  21   0.0000       0.041997         1.1428 
  22   0.0000       0.045734         1.2445 
  23   0.0000       0.052788         1.4364 
  24   0.0000       0.056758         1.5445 
  25   0.0000       0.064447         1.7537 
  26   0.0000       0.069435         1.8894 
  27   0.0000       0.070829         1.9274 
  28   0.0000       0.081318         2.2128 
  29   0.0000       0.085055         2.3145 
  30   0.0000       0.094472         2.5707 
  31   0.0000       0.101113         2.7514 
  32   0.0000       0.105371         2.8673 
  33   0.0000       0.111728         3.0403 
  34   0.0000       0.111848         3.0435 
  35   0.0000       0.115497         3.1428 
  36   0.0000       0.118234         3.2173 
  37   0.0000       0.122280         3.3274 
  38   0.0000       0.122800         3.3416 
  39   0.0000       0.134354         3.6560 
  40   0.0000       0.143376         3.9015 
  41   0.0000       0.147517         4.0141 
  42   0.0000       0.149623         4.0714 
  43   0.0000       0.152907         4.1608 
  44   0.0000       0.155950         4.2436 
  45   0.0000       0.161503         4.3947 
  46   0.0000       0.171008         4.6534 
  47   0.0000       0.175276         4.7695 
  48   0.0000       0.182773         4.9735 
  49   0.0000       0.184830         5.0295 
  50   0.0000       0.191368         5.2074 
  51   0.0000       0.198551         5.4028 
  52   0.0000       0.202021         5.4973 
  53   0.0000       0.202119         5.4999 
  54   0.0000       0.210660         5.7323 
  55   0.0000       0.216109         5.8806 
  56   0.0000       0.217357         5.9146 
  57   0.0000       0.228226         6.2104 
  58   0.0000       0.233073         6.3422 
  59   0.0000       0.235737         6.4147 
  60   0.0000       0.245861         6.6902 
  61   0.0000       0.249064         6.7774 
  62   0.0000       0.254547         6.9266 
  63   0.0000       0.258986         7.0474 
  64   0.0000       0.262249         7.1362 
  65   0.0000       0.264932         7.2092 
  66   0.0000       0.269418         7.3312 
  67   0.0000       0.277310         7.5460 
  68   0.0000       0.280094         7.6217 
  69   0.0000       0.281572         7.6620 
  70   0.0000       0.285567         7.7707 
  71   0.0000       0.289748         7.8845 
  72   0.0000       0.292065         7.9475 
  73   0.0000       0.293965         7.9992 
  74   0.0000       0.301037         8.1916 
  75   0.0000       0.305383         8.3099 
  76   0.0000       0.308571         8.3966 
  77   0.0000       0.311083         8.4650 
  78   0.0000       0.313096         8.5198 
  79   0.0000       0.319723         8.7001 
  80   0.0000       0.328997         8.9525 
  81   0.0000       0.330587         8.9957 
  82   0.0000       0.331909         9.0317 
  83   0.0000       0.336798         9.1647 
  84   0.0000       0.339006         9.2248 
  85   0.0000       0.343465         9.3462 
  86   0.0000       0.357512         9.7284 
  87   0.0000       0.360581         9.8119 
  88   0.0000       0.382683        10.4133 
  89   0.0000       0.385804        10.4982 
  90   0.0000       0.386989        10.5305 
  91   0.0000       0.392696        10.6858 
  92   0.0000       0.396749        10.7961 
  93   0.0000       0.413407        11.2494 
  94   0.0000       0.417098        11.3498 
  95   0.0000       0.420527        11.4431 
  96   0.0000       0.430979        11.7275 
  97   0.0000       0.431265        11.7353 
  98   0.0000       0.434835        11.8325 
  99   0.0000       0.439753        11.9663 
 100   0.0000       0.447953        12.1894 
 101   0.0000       0.448536        12.2053 
 102   0.0000       0.456124        12.4118 
 103   0.0000       0.459305        12.4983 
 104   0.0000       0.462805        12.5936 
 105   0.0000       0.468232        12.7412 
 106   0.0000       0.469811        12.7842 
 107   0.0000       0.472548        12.8587 
 108   0.0000       0.477519        12.9940 
 109   0.0000       0.481637        13.1060 
 110   0.0000       0.485735        13.2175 
 111   0.0000       0.490304        13.3419 
 112   0.0000       0.498357        13.5610 
 113   0.0000       0.499737        13.5985 
 114   0.0000       0.502599        13.6764 
 115   0.0000       0.508144        13.8273 
 116   0.0000       0.513422        13.9709 
 117   0.0000       0.516443        14.0531 
 118   0.0000       0.520600        14.1663 
 119   0.0000       0.522121        14.2076 
 120   0.0000       0.523406        14.2426 
 121   0.0000       0.531055        14.4507 
 122   0.0000       0.535511        14.5720 
 123   0.0000       0.535657        14.5760 
 124   0.0000       0.544707        14.8222 
 125   0.0000       0.546266        14.8646 
 126   0.0000       0.551874        15.0172 
 127   0.0000       0.558283        15.1916 
 128   0.0000       0.567409        15.4400 
 129   0.0000       0.571002        15.5377 
 130   0.0000       0.572181        15.5698 
 131   0.0000       0.577714        15.7204 
 132   0.0000       0.583555        15.8793 
 133   0.0000       0.588658        16.0182 
 134   0.0000       0.591683        16.1005 
 135   0.0000       0.597401        16.2561 
 136   0.0000       0.601246        16.3607 
 137   0.0000       0.605814        16.4850 
 138   0.0000       0.609449        16.5839 
 139   0.0000       0.612342        16.6627 
 140   0.0000       0.620845        16.8941 
 141   0.0000       0.623832        16.9753 
 142   0.0000       0.628495        17.1022 
 143   0.0000       0.642502        17.4834 
 144   0.0000       0.659948        17.9581 
 145   0.0000       0.665393        18.1063 
 146   0.0000       0.678892        18.4736 
 147   0.0000       0.681397        18.5418 
 148   0.0000       0.683531        18.5998 
 149   0.0000       0.690458        18.7883 
 150   0.0000       0.700540        19.0627 
 151   0.0000       0.701582        19.0910 
 152   0.0000       0.706999        19.2384 
 153   0.0000       0.718076        19.5399 
 154   0.0000       0.719808        19.5870 
 155   0.0000       0.730113        19.8674 
 156   0.0000       0.731118        19.8947 
 157   0.0000       0.740978        20.1630 
 158   0.0000       0.752880        20.4869 
 159   0.0000       0.761127        20.7113 
 160   0.0000       0.761521        20.7221 
 161   0.0000       0.768900        20.9228 
 162   0.0000       0.770640        20.9702 
 163   0.0000       0.780161        21.2292 
 164   0.0000       0.784071        21.3357 
 165   0.0000       0.793348        21.5881 
 166   0.0000       0.794477        21.6188 
 167   0.0000       0.795704        21.6522 
 168   0.0000       0.810296        22.0493 
 169   0.0000       0.814004        22.1502 
 170   0.0000       0.815250        22.1841 
 171   0.0000       0.823778        22.4161 
 172   0.0000       0.826623        22.4936 
 173   0.0000       0.835991        22.7485 
 174   0.0000       0.841365        22.8947 
 175   0.0000       0.843866        22.9628 
 176   0.0000       0.850921        23.1547 
 177   0.0000       0.856782        23.3142 
 178   0.0000       0.857080        23.3223 
 179   0.0000       0.859309        23.3830 
 180   0.0000       0.861445        23.4411 
 181   0.0000       0.863993        23.5104 
 182   0.0000       0.872620        23.7452 
 183   0.0000       0.875619        23.8268 
 184   0.0000       0.883065        24.0294 
 185   0.0000       0.885532        24.0965 
 186   0.0000       0.888431        24.1754 
 187   0.0000       0.895187        24.3593 
 188   0.0000       0.895253        24.3611 
 189   0.0000       0.897974        24.4351 
 190   0.0000       0.911131        24.7931 
 191   0.0000       0.914156        24.8754 
 192   0.0000       0.919476        25.0202 
 193   0.0000       0.922219        25.0948 
 194   0.0000       0.927086        25.2273 
 195   0.0000       0.933500        25.4018 
 196   0.0000       0.943447        25.6725 
 197   0.0000       0.946253        25.7489 
 198   0.0000       0.949617        25.8404 
 199   0.0000       0.961814        26.1723 
 200   0.0000       0.972268        26.4567 
 201   0.0000       0.974496        26.5174 
 202   0.0000       0.978629        26.6298 
 203   0.0000       0.987382        26.8680 
 204   0.0000       0.993440        27.0329 
 205   0.0000       1.004884        27.3443 
 206   0.0000       1.008507        27.4429 
 207   0.0000       1.011611        27.5273 
 208   0.0000       1.022034        27.8110 
 209   0.0000       1.027632        27.9633 
 210   0.0000       1.034785        28.1579 
 211   0.0000       1.040572        28.3154 
 212   0.0000       1.046091        28.4656 
 213   0.0000       1.051622        28.6161 
 214   0.0000       1.060281        28.8517 
 215   0.0000       1.062679        28.9170 
 216   0.0000       1.070784        29.1375 
 217   0.0000       1.071593        29.1595 
 218   0.0000       1.079863        29.3846 
 219   0.0000       1.096107        29.8266 
 220   0.0000       1.097298        29.8590 
 221   0.0000       1.110078        30.2068 
 222   0.0000       1.124247        30.5923 
 223   0.0000       1.132773        30.8243 
 224   0.0000       1.132964        30.8295 
 225   0.0000       1.149607        31.2824 
 226   0.0000       1.160371        31.5753 
 227   0.0000       1.165756        31.7218 
 228   0.0000       1.168904        31.8075 
 229   0.0000       1.184047        32.2196 
 230   0.0000       1.198555        32.6143 
 231   0.0000       1.216093        33.0916 
 232   0.0000       1.226238        33.3676 
 233   0.0000       1.231350        33.5067 
 234   0.0000       1.238850        33.7108 
 235   0.0000       1.263697        34.3870 
 236   0.0000       1.270452        34.5707 
 237   0.0000       1.279915        34.8283 
 238   0.0000       1.281338        34.8670 
 239   0.0000       1.291538        35.1445 
 240   0.0000       1.303522        35.4706 
 241   0.0000       1.308935        35.6179 
 242   0.0000       1.316871        35.8339 
 243   0.0000       1.335189        36.3323 
 244   0.0000       1.336461        36.3669 
 245   0.0000       1.344419        36.5835 
 246   0.0000       1.353254        36.8239 
 247   0.0000       1.365554        37.1586 
 248   0.0000       1.376409        37.4540 
 249   0.0000       1.389137        37.8003 
 250   0.0000       1.394371        37.9428 
 251   0.0000       1.404658        38.2227 
 252   0.0000       1.435788        39.0698 
 253   0.0000       1.449205        39.4349 
 254   0.0000       1.457213        39.6528 
 255   0.0000       1.458252        39.6810 
 256   0.0000       1.491634        40.5894 
 257   0.0000       1.500195        40.8224 
 258   0.0000       1.512245        41.1503 
 259   0.0000       1.516694        41.2714 
 260   0.0000       1.553385        42.2698 
 261   0.0000       1.566199        42.6185 
 262   0.0000       1.582875        43.0722 
 263   0.0000       1.607296        43.7367 
 264   0.0000       1.628051        44.3015 
 265   0.0000       1.632740        44.4291 
 266   0.0000       1.650733        44.9187 
 267   0.0000       1.660958        45.1970 
 268   0.0000       1.679025        45.6886 
 269   0.0000       1.685622        45.8681 
 270   0.0000       1.687986        45.9324 
 271   0.0000       1.704196        46.3735 
 272   0.0000       1.722058        46.8596 
 273   0.0000       1.744188        47.4618 
 274   0.0000       1.748440        47.5775 
 275   0.0000       1.772889        48.2428 
 276   0.0000       1.792904        48.7874 
 277   0.0000       1.813041        49.3353 
 278   0.0000       1.835930        49.9582 
 279   0.0000       1.861612        50.6570 
 280   0.0000       1.874089        50.9966 
 281   0.0000       1.879044        51.1314 
 282   0.0000       1.892128        51.4874 
 283   0.0000       1.941489        52.8306 
 284   0.0000       1.944492        52.9123 
 285   0.0000       1.957823        53.2751 
 286   0.0000       1.973869        53.7117 
 287   0.0000       1.983898        53.9846 
 288   0.0000       2.029047        55.2132 
 289   0.0000       2.042382        55.5760 
 290   0.0000       2.045367        55.6573 
 291   0.0000       2.068735        56.2932 
 292   0.0000       2.092004        56.9263 
 293   0.0000       2.107717        57.3539 
 294   0.0000       2.135870        58.1200 
 295   0.0000       2.143757        58.3346 
 296   0.0000       2.203285        59.9544 
 297   0.0000       2.225574        60.5610 
 298   0.0000       2.251628        61.2699 
 299   0.0000       2.274241        61.8852 
 300   0.0000       2.298909        62.5565 
 301   0.0000       2.299571        62.5745 
 302   0.0000       2.348748        63.9127 
 303   0.0000       2.359533        64.2062 
 304   0.0000       2.362404        64.2843 
 305   0.0000       2.375284        64.6348 
 306   0.0000       2.400385        65.3178 
 307   0.0000       2.417829        65.7925 
 308   0.0000       2.418843        65.8201 
 309   0.0000       2.502785        68.1043 
 310   0.0000       2.510183        68.3055 
 311   0.0000       2.512744        68.3752 
 312   0.0000       2.560167        69.6657 
 313   0.0000       2.577717        70.1432 
 314   0.0000       2.631458        71.6056 
 315   0.0000       2.634416        71.6861 
 316   0.0000       2.674985        72.7900 
 317   0.0000       2.713684        73.8431 
 318   0.0000       2.752760        74.9064 
 319   0.0000       2.781804        75.6967 
 320   0.0000       2.803994        76.3005 
 321   0.0000       2.807187        76.3874 
 322   0.0000       2.895234        78.7833 
 323   0.0000       2.915940        79.3468 
 324   0.0000       2.925484        79.6065 
 325   0.0000       2.968375        80.7736 
 326   0.0000       2.989678        81.3533 
 327   0.0000       3.029483        82.4364 
 328   0.0000       3.047150        82.9172 
 329   0.0000       3.075292        83.6829 
 330   0.0000       3.152054        85.7717 
 331   0.0000       3.153841        85.8204 
 332   0.0000       3.196357        86.9773 
 333   0.0000       3.205876        87.2363 
 334   0.0000       3.268138        88.9305 
 335   0.0000       3.303066        89.8810 
 336   0.0000       3.386577        92.1534 
 337   0.0000       3.389292        92.2273 
 338   0.0000       3.449859        93.8754 
 339   0.0000       3.482607        94.7666 
 340   0.0000       3.515991        95.6750 
 341   0.0000       3.529459        96.0415 
 342   0.0000       3.582764        97.4920 
 343   0.0000       3.602423        98.0269 
 344   0.0000       3.620481        98.5183 
 345   0.0000       3.630626        98.7944 
 346   0.0000       3.664126        99.7059 
 347   0.0000       3.673701        99.9665 
 348   0.0000       3.682727       100.2121 
 349   0.0000       3.728283       101.4517 
 350   0.0000       3.744622       101.8963 
 351   0.0000       3.788582       103.0926 
 352   0.0000       3.842109       104.5491 
 353   0.0000       3.873059       105.3913 
 354   0.0000       3.885157       105.7205 
 355   0.0000       3.920789       106.6901 
 356   0.0000       3.957116       107.6786 
 357   0.0000       3.997456       108.7763 
 358   0.0000       4.058959       110.4499 
 359   0.0000       4.085253       111.1654 
 360   0.0000       4.086172       111.1904 
 361   0.0000       4.131617       112.4270 
 362   0.0000       4.131871       112.4339 
 363   0.0000       4.152123       112.9850 
 364   0.0000       4.159734       113.1921 
 365   0.0000       4.171348       113.5082 
 366   0.0000       4.191856       114.0662 
 367   0.0000       4.251471       115.6884 
 368   0.0000       4.263988       116.0290 
 369   0.0000       4.298202       116.9600 
 370   0.0000       4.307003       117.1995 
 371   0.0000       4.338851       118.0661 
 372   0.0000       4.408711       119.9671 
 373   0.0000       4.412578       120.0724 
 374   0.0000       4.446575       120.9975 
 375   0.0000       4.458557       121.3235 
 376   0.0000       4.473355       121.7262 
 377   0.0000       4.557251       124.0091 
 378   0.0000       4.597887       125.1149 
 379   0.0000       4.604899       125.3057 
 380   0.0000       4.609252       125.4241 
 381   0.0000       4.660482       126.8182 
 382   0.0000       4.694175       127.7350 
 383   0.0000       4.728716       128.6749 
 384   0.0000       4.735375       128.8561 
 385   0.0000       4.744406       129.1019 
 386   0.0000       4.787092       130.2634 
 387   0.0000       4.809544       130.8744 
 388   0.0000       4.864222       132.3622 
 389   0.0000       4.870077       132.5215 
 390   0.0000       4.878112       132.7402 
 391   0.0000       4.975320       135.3853 
 392   0.0000       4.984709       135.6408 
 393   0.0000       5.008793       136.2962 
 394   0.0000       5.078971       138.2058 
 395   0.0000       5.084461       138.3552 
 396   0.0000       5.143636       139.9655 
 397   0.0000       5.152366       140.2030 
 398   0.0000       5.166818       140.5963 
 399   0.0000       5.168372       140.6386 
 400   0.0000       5.215976       141.9339 
 401   0.0000       5.292271       144.0100 
 402   0.0000       5.328762       145.0030 
 403   0.0000       5.333739       145.1384 
 404   0.0000       5.354551       145.7047 
 405   0.0000       5.364371       145.9719 
 406   0.0000       5.467126       148.7681 
 407   0.0000       5.472125       148.9041 
 408   0.0000       5.499744       149.6556 
 409   0.0000       5.517006       150.1254 
 410   0.0000       5.533498       150.5741 
 411   0.0000       5.563892       151.4012 
 412   0.0000       5.610675       152.6742 
 413   0.0000       5.712538       155.4460 
 414   0.0000       5.785076       157.4199 
 415   0.0000       5.790861       157.5773 
 416   0.0000       5.865728       159.6146 
 417   0.0000       5.916376       160.9928 
 418   0.0000       5.959053       162.1541 
 419   0.0000       6.010000       163.5404 
 420   0.0000       6.067155       165.0957 
 421   0.0000       6.074691       165.3007 
 422   0.0000       6.108917       166.2321 
 423   0.0000       6.214653       169.1093 
 424   0.0000       6.241563       169.8416 
 425   0.0000       6.273211       170.7027 
 426   0.0000       6.300115       171.4348 
 427   0.0000       6.353238       172.8804 
 428   0.0000       6.422301       174.7597 
 429   0.0000       6.455212       175.6552 
 430   0.0000       6.471852       176.1080 
 431   0.0000       6.485557       176.4810 
 432   0.0000       6.560364       178.5166 
 433   0.0000       6.620106       180.1422 
 434   0.0000       6.636923       180.5999 
 435   0.0000       6.681636       181.8166 
 436   0.0000       6.715066       182.7262 
 437   0.0000       6.767456       184.1518 
 438   0.0000       6.792571       184.8352 
 439   0.0000       6.813204       185.3967 
 440   0.0000       6.859465       186.6555 
 441   0.0000       6.891571       187.5292 
 442   0.0000       7.010780       190.7730 
 443   0.0000       7.078810       192.6242 
 444   0.0000       7.128754       193.9833 
 445   0.0000       7.216488       196.3706 
 446   0.0000       7.291028       198.3990 
 447   0.0000       7.332748       199.5342 
 448   0.0000       7.408243       201.5885 
 449   0.0000       7.490633       203.8305 
 450   0.0000       7.744953       210.7509 
 451   0.0000       7.764581       211.2850 
 452   0.0000       7.950858       216.3539 
 453   0.0000       7.982965       217.2275 
 454   0.0000       8.012668       218.0358 
 455   0.0000       8.109390       220.6677 
 456   0.0000       8.160873       222.0686 
 457   0.0000       8.201340       223.1698 
 458   0.0000       8.353601       227.3130 
 459   0.0000       8.374036       227.8691 
 460   0.0000       8.508781       231.5357 
 461   0.0000       8.520781       231.8622 
 462   0.0000       8.600558       234.0331 
 463   0.0000       8.696540       236.6449 
 464   0.0000       8.734955       237.6902 
 465   0.0000       8.844951       240.6833 
 466   0.0000       9.036941       245.9077 
 467   0.0000       9.070172       246.8119 
 468   0.0000       9.083745       247.1813 
 469   0.0000       9.128797       248.4072 
 470   0.0000       9.177646       249.7364 
 471   0.0000       9.215379       250.7632 
 472   0.0000       9.247379       251.6340 
 473   0.0000       9.260294       251.9854 
 474   0.0000       9.341769       254.2025 
 475   0.0000       9.418092       256.2793 
 476   0.0000       9.437681       256.8123 
 477   0.0000       9.458222       257.3713 
 478   0.0000       9.503373       258.5999 
 479   0.0000       9.593584       261.0547 
 480   0.0000       9.604629       261.3552 
 481   0.0000       9.756307       265.4826 
 482   0.0000       9.796659       266.5806 
 483   0.0000       9.848846       268.0007 
 484   0.0000       9.855942       268.1938 
 485   0.0000       9.928745       270.1749 
 486   0.0000      10.043659       273.3018 
 487   0.0000      10.137260       275.8489 
 488   0.0000      10.194548       277.4078 
 489   0.0000      10.301666       280.3226 
 490   0.0000      10.305921       280.4384 
 491   0.0000      10.383871       282.5595 
 492   0.0000      10.482819       285.2520 
 493   0.0000      10.567699       287.5617 
 494   0.0000      10.703009       291.2437 
 495   0.0000      10.716852       291.6204 
 496   0.0000      10.718136       291.6553 
 497   0.0000      10.814382       294.2743 
 498   0.0000      10.842745       295.0461 
 499   0.0000      10.854754       295.3729 
 500   0.0000      11.044012       300.5228 
 501   0.0000      11.128987       302.8351 
 502   0.0000      11.173560       304.0480 
 503   0.0000      11.225233       305.4541 
 504   0.0000      11.270458       306.6848 
 505   0.0000      11.332802       308.3812 
 506   0.0000      11.467329       312.0419 
 507   0.0000      11.504451       313.0520 
 508   0.0000      11.537780       313.9589 
 509   0.0000      11.544857       314.1515 
 510   0.0000      11.595991       315.5430 
 511   0.0000      11.596809       315.5652 
 512   0.0000      11.643262       316.8293 
 513   0.0000      11.685333       317.9741 
 514   0.0000      11.731727       319.2365 
 515   0.0000      11.769181       320.2557 
 516   0.0000      11.779807       320.5448 
 517   0.0000      11.803457       321.1884 
 518   0.0000      11.822453       321.7053 
 519   0.0000      11.861251       322.7611 
 520   0.0000      11.894701       323.6713 
 521   0.0000      11.948557       325.1368 
 522   0.0000      12.049214       327.8758 
 523   0.0000      12.073291       328.5310 
 524   0.0000      12.076394       328.6154 
 525   0.0000      12.084944       328.8481 
 526   0.0000      12.140740       330.3663 
 527   0.0000      12.154352       330.7367 
 528   0.0000      12.219311       332.5044 
 529   0.0000      12.280930       334.1811 
 530   0.0000      12.307101       334.8933 
 531   0.0000      12.330583       335.5322 
 532   0.0000      12.356235       336.2303 
 533   0.0000      12.457994       338.9992 
 534   0.0000      12.480954       339.6240 
 535   0.0000      12.501872       340.1932 
 536   0.0000      12.560452       341.7873 
 537   0.0000      12.588209       342.5426 
 538   0.0000      12.607458       343.0664 
 539   0.0000      12.615146       343.2756 
 540   0.0000      12.650334       344.2331 
 541   0.0000      12.662629       344.5677 
 542   0.0000      12.734551       346.5248 
 543   0.0000      12.779774       347.7553 
 544   0.0000      12.803684       348.4060 
 545   0.0000      12.857056       349.8583 
 546   0.0000      12.886217       350.6518 
 547   0.0000      12.947503       352.3195 
 548   0.0000      12.951140       352.4184 
 549   0.0000      12.969719       352.9240 
 550   0.0000      12.983052       353.2868 
 551   0.0000      13.037404       354.7658 
 552   0.0000      13.084796       356.0554 
 553   0.0000      13.100218       356.4751 
 554   0.0000      13.141501       357.5984 
 555   0.0000      13.224968       359.8697 
 556   0.0000      13.320187       362.4607 
 557   0.0000      13.340902       363.0244 
 558   0.0000      13.430604       365.4653 
 559   0.0000      13.465279       366.4089 
 560   0.0000      13.542966       368.5228 
 561   0.0000      13.587302       369.7293 
 562   0.0000      13.633728       370.9926 
 563   0.0000      13.800871       375.5408 
 564   0.0000      13.854485       376.9997 
 565   0.0000      13.868069       377.3693 
 566   0.0000      13.955088       379.7373 
 567   0.0000      13.973433       380.2364 
 568   0.0000      13.999699       380.9512 
 569   0.0000      14.152624       385.1125 
 570   0.0000      14.258048       387.9812 
 571   0.0000      14.336865       390.1259 
 572   0.0000      14.404663       391.9708 
 573   0.0000      14.633655       398.2020 
 574   0.0000      14.773377       402.0040 
 575   0.0000      14.881112       404.9357 
 576   0.0000      15.114231       411.2791 
 577   0.0000      15.158244       412.4768 
 578   0.0000      15.224191       414.2713 
 579   0.0000      15.225278       414.3009 
 580   0.0000      15.336146       417.3178 
 581   0.0000      15.405482       419.2045 
 582   0.0000      15.435127       420.0111 
 583   0.0000      15.456427       420.5908 
 584   0.0000      15.499421       421.7607 
 585   0.0000      15.619602       425.0310 
 586   0.0000      15.633536       425.4101 
 587   0.0000      15.686290       426.8456 
 588   0.0000      15.860607       431.5890 
 589   0.0000      15.980786       434.8593 
 590   0.0000      16.123984       438.7559 
 591   0.0000      16.229101       441.6163 
 592   0.0000      16.309402       443.8014 
 593   0.0000      16.457849       447.8408 
 594   0.0000      16.520439       449.5440 
 595   0.0000      16.643531       452.8935 
 596   0.0000      16.709641       454.6924 
 597   0.0000      16.727714       455.1842 
 598   0.0000      16.757848       456.0042 
 599   0.0000      16.765422       456.2103 
 600   0.0000      16.776766       456.5190 
 601   0.0000      16.842496       458.3076 
 602   0.0000      16.945655       461.1147 
 603   0.0000      17.026067       463.3028 
 604   0.0000      17.073016       464.5804 
 605   0.0000      17.075428       464.6460 
 606   0.0000      17.121130       465.8896 
 607   0.0000      17.152562       466.7450 
 608   0.0000      17.279977       470.2121 
 609   0.0000      17.300949       470.7828 
 610   0.0000      17.409877       473.7468 
 611   0.0000      17.468092       475.3310 
 612   0.0000      17.480538       475.6696 
 613   0.0000      17.495994       476.0902 
 614   0.0000      17.707230       481.8382 
 615   0.0000      17.716882       482.1009 
 616   0.0000      17.754684       483.1295 
 617   0.0000      17.892516       486.8801 
 618   0.0000      18.009873       490.0736 
 619   0.0000      18.177165       494.6258 
 620   0.0000      18.295585       497.8482 
 621   0.0000      18.363740       499.7028 
 622   0.0000      18.506491       503.5872 
 623   0.0000      18.553572       504.8684 
 624   0.0000      18.668698       508.0011 
 625   0.0000      18.671576       508.0794 
 626   0.0000      18.874653       513.6054 
 627   0.0000      18.925174       514.9802 
 628   0.0000      18.978682       516.4362 
 629   0.0000      19.137856       520.7675 
 630   0.0000      19.196268       522.3570 
 631   0.0000      19.204434       522.5792 
 632   0.0000      19.386372       527.5300 
 633   0.0000      19.510259       530.9011 
 634   0.0000      19.734585       537.0053 
 635   0.0000      19.991625       543.9998 
 636   0.0000      20.253798       551.1339 
 637   0.0000      20.506508       558.0105 
 638   0.0000      20.610498       560.8402 
 639   0.0000      20.800386       566.0073 
 640   0.0000      20.889059       568.4202 
 641   0.0000      21.021401       572.0214 
 642   0.0000      21.168540       576.0252 
 643   0.0000      22.012864       599.0005 
 644   0.0000      22.230105       604.9119 
 645   0.0000      22.378483       608.9495 
 646   0.0000      22.952886       624.5798 
 647   0.0000      23.168697       630.4523 
 648   0.0000      23.309227       634.2763 
 649   0.0000      23.538396       640.5123 
 650   0.0000      23.558212       641.0515 
 651   0.0000      23.643834       643.3814 
 652   0.0000      23.846327       648.8915 
 653   0.0000      24.086420       655.4248 
 654   0.0000      24.123327       656.4291 
 655   0.0000      24.177803       657.9115 
 656   0.0000      24.583511       668.9513 
 657   0.0000      24.956289       679.0951 
 658   0.0000      25.693461       699.1546 
 659   0.0000      26.050111       708.8596 
 660   0.0000      26.452434       719.8073 
 661   0.0000      26.575392       723.1532 
 662   0.0000      26.788338       728.9477 
 663   0.0000      28.984502       788.7084 
 664   0.0000      29.469752       801.9127 
 665   0.0000      30.520666       830.5095 
 666   0.0000      32.172978       875.4712 
 667   0.0000      32.347397       880.2174 
 668   0.0000      32.476299       883.7250 
 669   0.0000      32.871073       894.4674 
 670   0.0000      33.654975       915.7984 
 671   0.0000      34.627739       942.2687 
 672   0.0000      34.743889       945.4293 
 673   0.0000      35.093950       954.9549 
 674   0.0000      41.327212      1124.5706 
 675   0.0000      41.756796      1136.2602 
 676   0.0000      41.849220      1138.7752 
 677   0.0000      48.139403      1309.9397 
 678   0.0000      48.251589      1312.9925 
 679   0.0000      48.708472      1325.4249 
 680   0.0000      49.419731      1344.7793 
 681   0.0000      49.713924      1352.7847 
 682   0.0000      66.701294      1815.0345 
 683   0.0000      66.790448      1817.4605 
 684   0.0000      67.213233      1828.9651 
 685   0.0000      67.541457      1837.8965 
 686   0.0000      68.752435      1870.8489 
 687   0.0000      77.190741      2100.4668 
 688   0.0000      91.027529      2476.9850 
 689   0.0000      91.038756      2477.2905 
 690   0.0000      91.126757      2479.6851 
 691   0.0000      91.262223      2483.3713 
 692   0.0000      91.308948      2484.6428 
 693   0.0000      91.461323      2488.7891 
 694   0.0000      92.516373      2517.4985 
 695   0.0000      92.960339      2529.5794 
 696   0.0000      93.181998      2535.6111 
 697   0.0000     106.745641      2904.6966 
 698   0.0000     144.006562      3918.6178 

                 SPIN DOWN ORBITALS
  NO   OCC          E(Eh)            E(eV) 
   0   1.0000     -18.724373      -509.5161 
   1   1.0000     -14.020695      -381.5225 
   2   1.0000      -9.979633      -271.5596 
   3   1.0000      -0.957430       -26.0530 
   4   1.0000      -0.844227       -22.9726 
   5   1.0000      -0.577989       -15.7279 
   6   1.0000      -0.516301       -14.0493 
   7   1.0000      -0.441745       -12.0205 
   8   1.0000      -0.372320       -10.1313 
   9   1.0000      -0.369475       -10.0539 
  10   1.0000      -0.250731        -6.8227 
  11   1.0000      -0.221092        -6.0162 
  12   0.0000      -0.030593        -0.8325 
  13   0.0000      -0.029493        -0.8026 
  14   0.0000      -0.006351        -0.1728 
  15   0.0000       0.010677         0.2905 
  16   0.0000       0.012431         0.3383 
  17   0.0000       0.025544         0.6951 
  18   0.0000       0.030780         0.8376 
  19   0.0000       0.034122         0.9285 
  20   0.0000       0.036763         1.0004 
  21   0.0000       0.041997         1.1428 
  22   0.0000       0.045734         1.2445 
  23   0.0000       0.052788         1.4364 
  24   0.0000       0.056758         1.5445 
  25   0.0000       0.064447         1.7537 
  26   0.0000       0.069435         1.8894 
  27   0.0000       0.070829         1.9274 
  28   0.0000       0.081318         2.2128 
  29   0.0000       0.085055         2.3145 
  30   0.0000       0.094472         2.5707 
  31   0.0000       0.101113         2.7514 
  32   0.0000       0.105371         2.8673 
  33   0.0000       0.111728         3.0403 
  34   0.0000       0.111848         3.0435 
  35   0.0000       0.115497         3.1428 
  36   0.0000       0.118234         3.2173 
  37   0.0000       0.122280         3.3274 
  38   0.0000       0.122800         3.3416 
  39   0.0000       0.134354         3.6560 
  40   0.0000       0.143376         3.9015 
  41   0.0000       0.147517         4.0141 
  42   0.0000       0.149623         4.0714 
  43   0.0000       0.152907         4.1608 
  44   0.0000       0.155950         4.2436 
  45   0.0000       0.161503         4.3947 
  46   0.0000       0.171008         4.6534 
  47   0.0000       0.175276         4.7695 
  48   0.0000       0.182773         4.9735 
  49   0.0000       0.184830         5.0295 
  50   0.0000       0.191368         5.2074 
  51   0.0000       0.198551         5.4028 
  52   0.0000       0.202021         5.4973 
  53   0.0000       0.202119         5.4999 
  54   0.0000       0.210660         5.7323 
  55   0.0000       0.216109         5.8806 
  56   0.0000       0.217357         5.9146 
  57   0.0000       0.228226         6.2104 
  58   0.0000       0.233073         6.3422 
  59   0.0000       0.235737         6.4147 
  60   0.0000       0.245861         6.6902 
  61   0.0000       0.249064         6.7774 
  62   0.0000       0.254547         6.9266 
  63   0.0000       0.258986         7.0474 
  64   0.0000       0.262249         7.1362 
  65   0.0000       0.264932         7.2092 
  66   0.0000       0.269418         7.3312 
  67   0.0000       0.277310         7.5460 
  68   0.0000       0.280094         7.6217 
  69   0.0000       0.281572         7.6620 
  70   0.0000       0.285567         7.7707 
  71   0.0000       0.289748         7.8845 
  72   0.0000       0.292065         7.9475 
  73   0.0000       0.293965         7.9992 
  74   0.0000       0.301037         8.1916 
  75   0.0000       0.305383         8.3099 
  76   0.0000       0.308571         8.3966 
  77   0.0000       0.311083         8.4650 
  78   0.0000       0.313096         8.5198 
  79   0.0000       0.319723         8.7001 
  80   0.0000       0.328997         8.9525 
  81   0.0000       0.330587         8.9957 
  82   0.0000       0.331909         9.0317 
  83   0.0000       0.336798         9.1647 
  84   0.0000       0.339006         9.2248 
  85   0.0000       0.343465         9.3462 
  86   0.0000       0.357512         9.7284 
  87   0.0000       0.360581         9.8119 
  88   0.0000       0.382683        10.4133 
  89   0.0000       0.385804        10.4982 
  90   0.0000       0.386989        10.5305 
  91   0.0000       0.392696        10.6858 
  92   0.0000       0.396749        10.7961 
  93   0.0000       0.413407        11.2494 
  94   0.0000       0.417098        11.3498 
  95   0.0000       0.420527        11.4431 
  96   0.0000       0.430979        11.7275 
  97   0.0000       0.431265        11.7353 
  98   0.0000       0.434835        11.8325 
  99   0.0000       0.439753        11.9663 
 100   0.0000       0.447953        12.1894 
 101   0.0000       0.448536        12.2053 
 102   0.0000       0.456124        12.4118 
 103   0.0000       0.459305        12.4983 
 104   0.0000       0.462805        12.5936 
 105   0.0000       0.468232        12.7412 
 106   0.0000       0.469811        12.7842 
 107   0.0000       0.472548        12.8587 
 108   0.0000       0.477519        12.9940 
 109   0.0000       0.481637        13.1060 
 110   0.0000       0.485735        13.2175 
 111   0.0000       0.490304        13.3419 
 112   0.0000       0.498357        13.5610 
 113   0.0000       0.499737        13.5985 
 114   0.0000       0.502599        13.6764 
 115   0.0000       0.508144        13.8273 
 116   0.0000       0.513422        13.9709 
 117   0.0000       0.516443        14.0531 
 118   0.0000       0.520600        14.1663 
 119   0.0000       0.522121        14.2076 
 120   0.0000       0.523406        14.2426 
 121   0.0000       0.531055        14.4507 
 122   0.0000       0.535511        14.5720 
 123   0.0000       0.535657        14.5760 
 124   0.0000       0.544707        14.8222 
 125   0.0000       0.546266        14.8646 
 126   0.0000       0.551874        15.0172 
 127   0.0000       0.558283        15.1916 
 128   0.0000       0.567409        15.4400 
 129   0.0000       0.571002        15.5377 
 130   0.0000       0.572181        15.5698 
 131   0.0000       0.577714        15.7204 
 132   0.0000       0.583555        15.8793 
 133   0.0000       0.588658        16.0182 
 134   0.0000       0.591683        16.1005 
 135   0.0000       0.597401        16.2561 
 136   0.0000       0.601246        16.3607 
 137   0.0000       0.605814        16.4850 
 138   0.0000       0.609449        16.5839 
 139   0.0000       0.612342        16.6627 
 140   0.0000       0.620845        16.8941 
 141   0.0000       0.623832        16.9753 
 142   0.0000       0.628495        17.1022 
 143   0.0000       0.642502        17.4834 
 144   0.0000       0.659948        17.9581 
 145   0.0000       0.665393        18.1063 
 146   0.0000       0.678892        18.4736 
 147   0.0000       0.681397        18.5418 
 148   0.0000       0.683531        18.5998 
 149   0.0000       0.690458        18.7883 
 150   0.0000       0.700540        19.0627 
 151   0.0000       0.701582        19.0910 
 152   0.0000       0.706999        19.2384 
 153   0.0000       0.718076        19.5399 
 154   0.0000       0.719808        19.5870 
 155   0.0000       0.730113        19.8674 
 156   0.0000       0.731118        19.8947 
 157   0.0000       0.740978        20.1630 
 158   0.0000       0.752880        20.4869 
 159   0.0000       0.761127        20.7113 
 160   0.0000       0.761521        20.7221 
 161   0.0000       0.768900        20.9228 
 162   0.0000       0.770640        20.9702 
 163   0.0000       0.780161        21.2292 
 164   0.0000       0.784071        21.3357 
 165   0.0000       0.793348        21.5881 
 166   0.0000       0.794477        21.6188 
 167   0.0000       0.795704        21.6522 
 168   0.0000       0.810296        22.0493 
 169   0.0000       0.814004        22.1502 
 170   0.0000       0.815250        22.1841 
 171   0.0000       0.823778        22.4161 
 172   0.0000       0.826623        22.4936 
 173   0.0000       0.835991        22.7485 
 174   0.0000       0.841365        22.8947 
 175   0.0000       0.843866        22.9628 
 176   0.0000       0.850921        23.1547 
 177   0.0000       0.856782        23.3142 
 178   0.0000       0.857080        23.3223 
 179   0.0000       0.859309        23.3830 
 180   0.0000       0.861445        23.4411 
 181   0.0000       0.863993        23.5104 
 182   0.0000       0.872620        23.7452 
 183   0.0000       0.875619        23.8268 
 184   0.0000       0.883065        24.0294 
 185   0.0000       0.885532        24.0965 
 186   0.0000       0.888431        24.1754 
 187   0.0000       0.895187        24.3593 
 188   0.0000       0.895253        24.3611 
 189   0.0000       0.897974        24.4351 
 190   0.0000       0.911131        24.7931 
 191   0.0000       0.914156        24.8754 
 192   0.0000       0.919476        25.0202 
 193   0.0000       0.922219        25.0948 
 194   0.0000       0.927086        25.2273 
 195   0.0000       0.933500        25.4018 
 196   0.0000       0.943447        25.6725 
 197   0.0000       0.946253        25.7489 
 198   0.0000       0.949617        25.8404 
 199   0.0000       0.961814        26.1723 
 200   0.0000       0.972268        26.4567 
 201   0.0000       0.974496        26.5174 
 202   0.0000       0.978629        26.6298 
 203   0.0000       0.987382        26.8680 
 204   0.0000       0.993440        27.0329 
 205   0.0000       1.004884        27.3443 
 206   0.0000       1.008507        27.4429 
 207   0.0000       1.011611        27.5273 
 208   0.0000       1.022034        27.8110 
 209   0.0000       1.027632        27.9633 
 210   0.0000       1.034785        28.1579 
 211   0.0000       1.040572        28.3154 
 212   0.0000       1.046091        28.4656 
 213   0.0000       1.051622        28.6161 
 214   0.0000       1.060281        28.8517 
 215   0.0000       1.062679        28.9170 
 216   0.0000       1.070784        29.1375 
 217   0.0000       1.071593        29.1595 
 218   0.0000       1.079863        29.3846 
 219   0.0000       1.096107        29.8266 
 220   0.0000       1.097298        29.8590 
 221   0.0000       1.110078        30.2068 
 222   0.0000       1.124247        30.5923 
 223   0.0000       1.132773        30.8243 
 224   0.0000       1.132964        30.8295 
 225   0.0000       1.149607        31.2824 
 226   0.0000       1.160371        31.5753 
 227   0.0000       1.165756        31.7218 
 228   0.0000       1.168904        31.8075 
 229   0.0000       1.184047        32.2196 
 230   0.0000       1.198555        32.6143 
 231   0.0000       1.216093        33.0916 
 232   0.0000       1.226238        33.3676 
 233   0.0000       1.231350        33.5067 
 234   0.0000       1.238850        33.7108 
 235   0.0000       1.263697        34.3870 
 236   0.0000       1.270452        34.5707 
 237   0.0000       1.279915        34.8283 
 238   0.0000       1.281338        34.8670 
 239   0.0000       1.291538        35.1445 
 240   0.0000       1.303522        35.4706 
 241   0.0000       1.308935        35.6179 
 242   0.0000       1.316871        35.8339 
 243   0.0000       1.335189        36.3323 
 244   0.0000       1.336461        36.3669 
 245   0.0000       1.344419        36.5835 
 246   0.0000       1.353254        36.8239 
 247   0.0000       1.365554        37.1586 
 248   0.0000       1.376409        37.4540 
 249   0.0000       1.389137        37.8003 
 250   0.0000       1.394371        37.9428 
 251   0.0000       1.404658        38.2227 
 252   0.0000       1.435788        39.0698 
 253   0.0000       1.449205        39.4349 
 254   0.0000       1.457213        39.6528 
 255   0.0000       1.458252        39.6810 
 256   0.0000       1.491634        40.5894 
 257   0.0000       1.500195        40.8224 
 258   0.0000       1.512245        41.1503 
 259   0.0000       1.516694        41.2714 
 260   0.0000       1.553385        42.2698 
 261   0.0000       1.566199        42.6185 
 262   0.0000       1.582875        43.0722 
 263   0.0000       1.607296        43.7367 
 264   0.0000       1.628051        44.3015 
 265   0.0000       1.632740        44.4291 
 266   0.0000       1.650733        44.9187 
 267   0.0000       1.660958        45.1970 
 268   0.0000       1.679025        45.6886 
 269   0.0000       1.685622        45.8681 
 270   0.0000       1.687986        45.9324 
 271   0.0000       1.704196        46.3735 
 272   0.0000       1.722058        46.8596 
 273   0.0000       1.744188        47.4618 
 274   0.0000       1.748440        47.5775 
 275   0.0000       1.772889        48.2428 
 276   0.0000       1.792904        48.7874 
 277   0.0000       1.813041        49.3353 
 278   0.0000       1.835930        49.9582 
 279   0.0000       1.861612        50.6570 
 280   0.0000       1.874089        50.9966 
 281   0.0000       1.879044        51.1314 
 282   0.0000       1.892128        51.4874 
 283   0.0000       1.941489        52.8306 
 284   0.0000       1.944492        52.9123 
 285   0.0000       1.957823        53.2751 
 286   0.0000       1.973869        53.7117 
 287   0.0000       1.983898        53.9846 
 288   0.0000       2.029047        55.2132 
 289   0.0000       2.042382        55.5760 
 290   0.0000       2.045367        55.6573 
 291   0.0000       2.068735        56.2932 
 292   0.0000       2.092004        56.9263 
 293   0.0000       2.107717        57.3539 
 294   0.0000       2.135870        58.1200 
 295   0.0000       2.143757        58.3346 
 296   0.0000       2.203285        59.9544 
 297   0.0000       2.225574        60.5610 
 298   0.0000       2.251628        61.2699 
 299   0.0000       2.274241        61.8852 
 300   0.0000       2.298909        62.5565 
 301   0.0000       2.299571        62.5745 
 302   0.0000       2.348748        63.9127 
 303   0.0000       2.359533        64.2062 
 304   0.0000       2.362404        64.2843 
 305   0.0000       2.375284        64.6348 
 306   0.0000       2.400385        65.3178 
 307   0.0000       2.417829        65.7925 
 308   0.0000       2.418843        65.8201 
 309   0.0000       2.502785        68.1043 
 310   0.0000       2.510183        68.3055 
 311   0.0000       2.512744        68.3752 
 312   0.0000       2.560167        69.6657 
 313   0.0000       2.577717        70.1432 
 314   0.0000       2.631458        71.6056 
 315   0.0000       2.634416        71.6861 
 316   0.0000       2.674985        72.7900 
 317   0.0000       2.713684        73.8431 
 318   0.0000       2.752760        74.9064 
 319   0.0000       2.781804        75.6967 
 320   0.0000       2.803994        76.3005 
 321   0.0000       2.807187        76.3874 
 322   0.0000       2.895234        78.7833 
 323   0.0000       2.915940        79.3468 
 324   0.0000       2.925484        79.6065 
 325   0.0000       2.968375        80.7736 
 326   0.0000       2.989678        81.3533 
 327   0.0000       3.029483        82.4364 
 328   0.0000       3.047150        82.9172 
 329   0.0000       3.075292        83.6829 
 330   0.0000       3.152054        85.7717 
 331   0.0000       3.153841        85.8204 
 332   0.0000       3.196357        86.9773 
 333   0.0000       3.205876        87.2363 
 334   0.0000       3.268138        88.9305 
 335   0.0000       3.303066        89.8810 
 336   0.0000       3.386577        92.1534 
 337   0.0000       3.389292        92.2273 
 338   0.0000       3.449859        93.8754 
 339   0.0000       3.482607        94.7666 
 340   0.0000       3.515991        95.6750 
 341   0.0000       3.529459        96.0415 
 342   0.0000       3.582764        97.4920 
 343   0.0000       3.602423        98.0269 
 344   0.0000       3.620481        98.5183 
 345   0.0000       3.630626        98.7944 
 346   0.0000       3.664126        99.7059 
 347   0.0000       3.673701        99.9665 
 348   0.0000       3.682727       100.2121 
 349   0.0000       3.728283       101.4517 
 350   0.0000       3.744622       101.8963 
 351   0.0000       3.788582       103.0926 
 352   0.0000       3.842109       104.5491 
 353   0.0000       3.873059       105.3913 
 354   0.0000       3.885157       105.7205 
 355   0.0000       3.920789       106.6901 
 356   0.0000       3.957116       107.6786 
 357   0.0000       3.997456       108.7763 
 358   0.0000       4.058959       110.4499 
 359   0.0000       4.085253       111.1654 
 360   0.0000       4.086172       111.1904 
 361   0.0000       4.131617       112.4270 
 362   0.0000       4.131871       112.4339 
 363   0.0000       4.152123       112.9850 
 364   0.0000       4.159734       113.1921 
 365   0.0000       4.171348       113.5082 
 366   0.0000       4.191856       114.0662 
 367   0.0000       4.251471       115.6884 
 368   0.0000       4.263988       116.0290 
 369   0.0000       4.298202       116.9600 
 370   0.0000       4.307003       117.1995 
 371   0.0000       4.338851       118.0661 
 372   0.0000       4.408711       119.9671 
 373   0.0000       4.412578       120.0724 
 374   0.0000       4.446575       120.9975 
 375   0.0000       4.458557       121.3235 
 376   0.0000       4.473355       121.7262 
 377   0.0000       4.557251       124.0091 
 378   0.0000       4.597887       125.1149 
 379   0.0000       4.604899       125.3057 
 380   0.0000       4.609252       125.4241 
 381   0.0000       4.660482       126.8182 
 382   0.0000       4.694175       127.7350 
 383   0.0000       4.728716       128.6749 
 384   0.0000       4.735375       128.8561 
 385   0.0000       4.744406       129.1019 
 386   0.0000       4.787092       130.2634 
 387   0.0000       4.809544       130.8744 
 388   0.0000       4.864222       132.3622 
 389   0.0000       4.870077       132.5215 
 390   0.0000       4.878112       132.7402 
 391   0.0000       4.975320       135.3853 
 392   0.0000       4.984709       135.6408 
 393   0.0000       5.008793       136.2962 
 394   0.0000       5.078971       138.2058 
 395   0.0000       5.084461       138.3552 
 396   0.0000       5.143636       139.9655 
 397   0.0000       5.152366       140.2030 
 398   0.0000       5.166818       140.5963 
 399   0.0000       5.168372       140.6386 
 400   0.0000       5.215976       141.9339 
 401   0.0000       5.292271       144.0100 
 402   0.0000       5.328762       145.0030 
 403   0.0000       5.333739       145.1384 
 404   0.0000       5.354551       145.7047 
 405   0.0000       5.364371       145.9719 
 406   0.0000       5.467126       148.7681 
 407   0.0000       5.472125       148.9041 
 408   0.0000       5.499744       149.6556 
 409   0.0000       5.517006       150.1254 
 410   0.0000       5.533498       150.5741 
 411   0.0000       5.563892       151.4012 
 412   0.0000       5.610675       152.6742 
 413   0.0000       5.712538       155.4460 
 414   0.0000       5.785076       157.4199 
 415   0.0000       5.790861       157.5773 
 416   0.0000       5.865728       159.6146 
 417   0.0000       5.916376       160.9928 
 418   0.0000       5.959053       162.1541 
 419   0.0000       6.010000       163.5404 
 420   0.0000       6.067155       165.0957 
 421   0.0000       6.074691       165.3007 
 422   0.0000       6.108917       166.2321 
 423   0.0000       6.214653       169.1093 
 424   0.0000       6.241563       169.8416 
 425   0.0000       6.273211       170.7027 
 426   0.0000       6.300115       171.4348 
 427   0.0000       6.353238       172.8804 
 428   0.0000       6.422301       174.7597 
 429   0.0000       6.455212       175.6552 
 430   0.0000       6.471852       176.1080 
 431   0.0000       6.485557       176.4810 
 432   0.0000       6.560364       178.5166 
 433   0.0000       6.620106       180.1422 
 434   0.0000       6.636923       180.5999 
 435   0.0000       6.681636       181.8166 
 436   0.0000       6.715066       182.7262 
 437   0.0000       6.767456       184.1518 
 438   0.0000       6.792571       184.8352 
 439   0.0000       6.813204       185.3967 
 440   0.0000       6.859465       186.6555 
 441   0.0000       6.891571       187.5292 
 442   0.0000       7.010780       190.7730 
 443   0.0000       7.078810       192.6242 
 444   0.0000       7.128754       193.9833 
 445   0.0000       7.216488       196.3706 
 446   0.0000       7.291028       198.3990 
 447   0.0000       7.332748       199.5342 
 448   0.0000       7.408243       201.5885 
 449   0.0000       7.490633       203.8305 
 450   0.0000       7.744953       210.7509 
 451   0.0000       7.764581       211.2850 
 452   0.0000       7.950858       216.3539 
 453   0.0000       7.982965       217.2275 
 454   0.0000       8.012668       218.0358 
 455   0.0000       8.109390       220.6677 
 456   0.0000       8.160873       222.0686 
 457   0.0000       8.201340       223.1698 
 458   0.0000       8.353601       227.3130 
 459   0.0000       8.374036       227.8691 
 460   0.0000       8.508781       231.5357 
 461   0.0000       8.520781       231.8622 
 462   0.0000       8.600558       234.0331 
 463   0.0000       8.696540       236.6449 
 464   0.0000       8.734955       237.6902 
 465   0.0000       8.844951       240.6833 
 466   0.0000       9.036941       245.9077 
 467   0.0000       9.070172       246.8119 
 468   0.0000       9.083745       247.1813 
 469   0.0000       9.128797       248.4072 
 470   0.0000       9.177646       249.7364 
 471   0.0000       9.215379       250.7632 
 472   0.0000       9.247379       251.6340 
 473   0.0000       9.260294       251.9854 
 474   0.0000       9.341769       254.2025 
 475   0.0000       9.418092       256.2793 
 476   0.0000       9.437681       256.8123 
 477   0.0000       9.458222       257.3713 
 478   0.0000       9.503373       258.5999 
 479   0.0000       9.593584       261.0547 
 480   0.0000       9.604629       261.3552 
 481   0.0000       9.756307       265.4826 
 482   0.0000       9.796659       266.5806 
 483   0.0000       9.848846       268.0007 
 484   0.0000       9.855942       268.1938 
 485   0.0000       9.928745       270.1749 
 486   0.0000      10.043659       273.3018 
 487   0.0000      10.137260       275.8489 
 488   0.0000      10.194548       277.4078 
 489   0.0000      10.301666       280.3226 
 490   0.0000      10.305921       280.4384 
 491   0.0000      10.383871       282.5595 
 492   0.0000      10.482819       285.2520 
 493   0.0000      10.567699       287.5617 
 494   0.0000      10.703009       291.2437 
 495   0.0000      10.716852       291.6204 
 496   0.0000      10.718136       291.6553 
 497   0.0000      10.814382       294.2743 
 498   0.0000      10.842745       295.0461 
 499   0.0000      10.854754       295.3729 
 500   0.0000      11.044012       300.5228 
 501   0.0000      11.128987       302.8351 
 502   0.0000      11.173560       304.0480 
 503   0.0000      11.225233       305.4541 
 504   0.0000      11.270458       306.6848 
 505   0.0000      11.332802       308.3812 
 506   0.0000      11.467329       312.0419 
 507   0.0000      11.504451       313.0520 
 508   0.0000      11.537780       313.9589 
 509   0.0000      11.544857       314.1515 
 510   0.0000      11.595991       315.5430 
 511   0.0000      11.596809       315.5652 
 512   0.0000      11.643262       316.8293 
 513   0.0000      11.685333       317.9741 
 514   0.0000      11.731727       319.2365 
 515   0.0000      11.769181       320.2557 
 516   0.0000      11.779807       320.5448 
 517   0.0000      11.803457       321.1884 
 518   0.0000      11.822453       321.7053 
 519   0.0000      11.861251       322.7611 
 520   0.0000      11.894701       323.6713 
 521   0.0000      11.948557       325.1368 
 522   0.0000      12.049214       327.8758 
 523   0.0000      12.073291       328.5310 
 524   0.0000      12.076394       328.6154 
 525   0.0000      12.084944       328.8481 
 526   0.0000      12.140740       330.3663 
 527   0.0000      12.154352       330.7367 
 528   0.0000      12.219311       332.5044 
 529   0.0000      12.280930       334.1811 
 530   0.0000      12.307101       334.8933 
 531   0.0000      12.330583       335.5322 
 532   0.0000      12.356235       336.2303 
 533   0.0000      12.457994       338.9992 
 534   0.0000      12.480954       339.6240 
 535   0.0000      12.501872       340.1932 
 536   0.0000      12.560452       341.7873 
 537   0.0000      12.588209       342.5426 
 538   0.0000      12.607458       343.0664 
 539   0.0000      12.615146       343.2756 
 540   0.0000      12.650334       344.2331 
 541   0.0000      12.662629       344.5677 
 542   0.0000      12.734551       346.5248 
 543   0.0000      12.779774       347.7553 
 544   0.0000      12.803684       348.4060 
 545   0.0000      12.857056       349.8583 
 546   0.0000      12.886217       350.6518 
 547   0.0000      12.947503       352.3195 
 548   0.0000      12.951140       352.4184 
 549   0.0000      12.969719       352.9240 
 550   0.0000      12.983052       353.2868 
 551   0.0000      13.037404       354.7658 
 552   0.0000      13.084796       356.0554 
 553   0.0000      13.100218       356.4751 
 554   0.0000      13.141501       357.5984 
 555   0.0000      13.224968       359.8697 
 556   0.0000      13.320187       362.4607 
 557   0.0000      13.340902       363.0244 
 558   0.0000      13.430604       365.4653 
 559   0.0000      13.465279       366.4089 
 560   0.0000      13.542966       368.5228 
 561   0.0000      13.587302       369.7293 
 562   0.0000      13.633728       370.9926 
 563   0.0000      13.800871       375.5408 
 564   0.0000      13.854485       376.9997 
 565   0.0000      13.868069       377.3693 
 566   0.0000      13.955088       379.7373 
 567   0.0000      13.973433       380.2364 
 568   0.0000      13.999699       380.9512 
 569   0.0000      14.152624       385.1125 
 570   0.0000      14.258048       387.9812 
 571   0.0000      14.336865       390.1259 
 572   0.0000      14.404663       391.9708 
 573   0.0000      14.633655       398.2020 
 574   0.0000      14.773377       402.0040 
 575   0.0000      14.881112       404.9357 
 576   0.0000      15.114231       411.2791 
 577   0.0000      15.158244       412.4768 
 578   0.0000      15.224191       414.2713 
 579   0.0000      15.225278       414.3009 
 580   0.0000      15.336146       417.3178 
 581   0.0000      15.405482       419.2045 
 582   0.0000      15.435127       420.0111 
 583   0.0000      15.456427       420.5908 
 584   0.0000      15.499421       421.7607 
 585   0.0000      15.619602       425.0310 
 586   0.0000      15.633536       425.4101 
 587   0.0000      15.686290       426.8456 
 588   0.0000      15.860607       431.5890 
 589   0.0000      15.980786       434.8593 
 590   0.0000      16.123984       438.7559 
 591   0.0000      16.229101       441.6163 
 592   0.0000      16.309402       443.8014 
 593   0.0000      16.457849       447.8408 
 594   0.0000      16.520439       449.5440 
 595   0.0000      16.643531       452.8935 
 596   0.0000      16.709641       454.6924 
 597   0.0000      16.727714       455.1842 
 598   0.0000      16.757848       456.0042 
 599   0.0000      16.765422       456.2103 
 600   0.0000      16.776766       456.5190 
 601   0.0000      16.842496       458.3076 
 602   0.0000      16.945655       461.1147 
 603   0.0000      17.026067       463.3028 
 604   0.0000      17.073016       464.5804 
 605   0.0000      17.075428       464.6460 
[...]
   0 C :    0.061752    0.000000
   1 O :    0.499046   -0.000000
   2 N :    0.936977    0.000000
   3 H :   -0.454565   -0.000000
   4 H :   -0.542119   -0.000000
   5 H :   -0.501092    0.000000

----------------------------------------------------
LOEWDIN REDUCED ORBITAL CHARGES AND SPIN POPULATIONS
----------------------------------------------------
CHARGE
  0 C s       :     2.465514  s :     2.465514
      pz      :     0.510128  p :     2.079290
      px      :     0.827355
      py      :     0.741807
      dz2     :     0.072704  d :     0.971132
      dxz     :     0.205902
      dyz     :     0.041724
      dx2y2   :     0.277311
      dxy     :     0.373491
      f0      :     0.019191  f :     0.324486
      f+1     :     0.032121
      f-1     :     0.012771
      f+2     :     0.033692
      f-2     :     0.039168
      f+3     :     0.086660
      f-3     :     0.100883
      g0      :     0.003328  g :     0.078389
      g+1     :     0.014497
      g-1     :     0.002839
      g+2     :     0.006768
      g-2     :     0.007328
      g+3     :     0.004861
      g-3     :     0.002143
      g+4     :     0.011813
      g-4     :     0.024813
      h0      :     0.001329  h :     0.019437
      h+1     :     0.002067
      h-1     :     0.001209
      h+2     :     0.001055
      h-2     :     0.002020
      h+3     :     0.002796
      h-3     :     0.002159
      h+4     :     0.000827
      h-4     :     0.000144
      h+5     :     0.002964
      h-5     :     0.002867
  1 O s       :     3.033650  s :     3.033650
      pz      :     1.092687  p :     3.831405
      px      :     1.388922
      py      :     1.349796
      dz2     :     0.030484  d :     0.257314
      dxz     :     0.054416
      dyz     :     0.002384
      dx2y2   :     0.068391
      dxy     :     0.101639
      f0      :     0.017020  f :     0.175861
      f+1     :     0.020703
      f-1     :     0.007702
      f+2     :     0.022206
      f-2     :     0.005061
      f+3     :     0.040855
      f-3     :     0.062315
      g0      :     0.006733  g :     0.121677
      g+1     :     0.017662
      g-1     :     0.001843
      g+2     :     0.007197
      g-2     :     0.012062
      g+3     :     0.004964
      g-3     :     0.006925
      g+4     :     0.039736
      g-4     :     0.024556
      h0      :     0.006300  h :     0.081047
      h+1     :     0.005007
      h-1     :     0.001752
      h+2     :     0.006912
      h-2     :     0.003543
      h+3     :     0.006817
      h-3     :     0.008054
      h+4     :     0.000529
      h-4     :     0.005479
      h+5     :     0.026793
      h-5     :     0.009860
  2 N s       :     2.565392  s :     2.565392
      pz      :     0.924315  p :     2.744899
      px      :     0.917540
      py      :     0.903044
      dz2     :     0.041479  d :     0.355389
      dxz     :     0.038646
      dyz     :     0.021393
      dx2y2   :     0.156166
      dxy     :     0.097705
      f0      :     0.014215  f :     0.165790
      f+1     :     0.016739
      f-1     :     0.012945
      f+2     :     0.004610
      f-2     :     0.020120
      f+3     :     0.046823
      f-3     :     0.050338
      g0      :     0.007562  g :     0.131180
      g+1     :     0.015342
      g-1     :     0.003990
      g+2     :     0.012142
      g-2     :     0.008492
      g+3     :     0.001710
      g-3     :     0.009662
      g+4     :     0.035792
      g-4     :     0.036488
      h0      :     0.008093  h :     0.100372
      h+1     :     0.006873
      h-1     :     0.002578
      h+2     :     0.004614
      h-2     :     0.008104
      h+3     :     0.007423
      h-3     :     0.009512
      h+4     :     0.000179
      h-4     :     0.005960
      h+5     :     0.030360
      h-5     :     0.016676
  3 H s       :     0.615830  s :     0.615830
      pz      :     0.048408  p :     0.259159
      px      :     0.078392
      py      :     0.132358
      dz2     :     0.029009  d :     0.257826
      dxz     :     0.020268
      dyz     :     0.051913
      dx2y2   :     0.074626
      dxy     :     0.082010
      f0      :     0.014310  f :     0.180699
      f+1     :     0.012558
      f-1     :     0.017649
      f+2     :     0.015582
      f-2     :     0.021496
      f+3     :     0.047217
      f-3     :     0.051888
      g0      :     0.007228  g :     0.141051
      g+1     :     0.008858
      g-1     :     0.010968
      g+2     :     0.009078
      g-2     :     0.012186
      g+3     :     0.006207
      g-3     :     0.011802
      g+4     :     0.043138
      g-4     :     0.031586
  4 H s       :     0.573981  s :     0.573981
      pz      :     0.108101  p :     0.370631
      px      :     0.087829
      py      :     0.174701
      dz2     :     0.032580  d :     0.329074
      dxz     :     0.013678
      dyz     :     0.096155
      dx2y2   :     0.084097
      dxy     :     0.102563
      f0      :     0.018330  f :     0.164927
      f+1     :     0.009109
      f-1     :     0.017033
      f+2     :     0.016400
      f-2     :     0.017588
      f+3     :     0.036091
      f-3     :     0.050377
      g0      :     0.005695  g :     0.103506
      g+1     :     0.006046
      g-1     :     0.011147
      g+2     :     0.006924
      g-2     :     0.009368
      g+3     :     0.007902
      g-3     :     0.002861
      g+4     :     0.032014
      g-4     :     0.021549
  5 H s       :     0.588411  s :     0.588411
      pz      :     0.116700  p :     0.377626
      px      :     0.176577
      py      :     0.084349
      dz2     :     0.032869  d :     0.315870
      dxz     :     0.097859
      dyz     :     0.006873
      dx2y2   :     0.076819
      dxy     :     0.101450
      f0      :     0.015812  f :     0.140745
      f+1     :     0.015521
      f-1     :     0.006279
      f+2     :     0.018921
      f-2     :     0.006692
      f+3     :     0.043176
      f-3     :     0.034345
      g0      :     0.004520  g :     0.078440
      g+1     :     0.011277
      g-1     :     0.001084
      g+2     :     0.006033
      g-2     :     0.006894
      g+3     :     0.003645
      g-3     :     0.004714
      g+4     :     0.027623
      g-4     :     0.012648

SPIN
  0 C s       :     0.000000  s :     0.000000
      pz      :     0.000000  p :    -0.000000
      px      :    -0.000000
      py      :     0.000000
      dz2     :    -0.000000  d :     0.000000
      dxz     :    -0.000000
      dyz     :     0.000000
      dx2y2   :    -0.000000
      dxy     :     0.000000
      f0      :    -0.000000  f :    -0.000000
      f+1     :    -0.000000
      f-1     :     0.000000
      f+2     :    -0.000000
      f-2     :     0.000000
      f+3     :    -0.000000
      f-3     :    -0.000000
      g0      :    -0.000000  g :    -0.000000
      g+1     :     0.000000
      g-1     :     0.000000
      g+2     :     0.000000
      g-2     :    -0.000000
      g+3     :    -0.000000
      g-3     :     0.000000
      g+4     :     0.000000
      g-4     :     0.000000
      h0      :     0.000000  h :     0.000000
      h+1     :    -0.000000
      h-1     :     0.000000
      h+2     :     0.000000
      h-2     :     0.000000
      h+3     :    -0.000000
      h-3     :     0.000000
      h+4     :    -0.000000
      h-4     :     0.000000
      h+5     :    -0.000000
      h-5     :     0.000000
  1 O s       :    -0.000000  s :    -0.000000
      pz      :    -0.000000  p :     0.000000
      px      :     0.000000
      py      :     0.000000
      dz2     :     0.000000  d :    -0.000000
      dxz     :    -0.000000
      dyz     :    -0.000000
      dx2y2   :    -0.000000
      dxy     :     0.000000
      f0      :     0.000000  f :     0.000000
      f+1     :    -0.000000
      f-1     :    -0.000000
      f+2     :     0.000000
      f-2     :     0.000000
      f+3     :     0.000000
      f-3     :    -0.000000
      g0      :    -0.000000  g :    -0.000000
      g+1     :     0.000000
      g-1     :     0.000000
      g+2     :     0.000000
      g-2     :     0.000000
      g+3     :     0.000000
      g-3     :     0.000000
      g+4     :    -0.000000
      g-4     :    -0.000000
      h0      :     0.000000  h :     0.000000
      h+1     :    -0.000000
      h-1     :    -0.000000
      h+2     :    -0.000000
      h-2     :    -0.000000
      h+3     :     0.000000
      h-3     :     0.000000
      h+4     :     0.000000
      h-4     :     0.000000
      h+5     :     0.000000
      h-5     :    -0.000000
  2 N s       :     0.000000  s :     0.000000
      pz      :    -0.000000  p :     0.000000
      px      :     0.000000
      py      :     0.000000
      dz2     :    -0.000000  d :     0.000000
      dxz     :    -0.000000
      dyz     :     0.000000
      dx2y2   :     0.000000
      dxy     :     0.000000
      f0      :     0.000000  f :     0.000000
      f+1     :     0.000000
      f-1     :     0.000000
      f+2     :    -0.000000
      f-2     :     0.000000
      f+3     :     0.000000
      f-3     :    -0.000000
      g0      :    -0.000000  g :     0.000000
      g+1     :    -0.000000
      g-1     :    -0.000000
      g+2     :    -0.000000
      g-2     :     0.000000
      g+3     :    -0.000000
      g-3     :     0.000000
      g+4     :     0.000000
      g-4     :    -0.000000
      h0      :    -0.000000  h :    -0.000000
      h+1     :     0.000000
      h-1     :    -0.000000
      h+2     :    -0.000000
      h-2     :     0.000000
      h+3     :     0.000000
      h-3     :    -0.000000
      h+4     :    -0.000000
      h-4     :    -0.000000
      h+5     :    -0.000000
      h-5     :    -0.000000
  3 H s       :    -0.000000  s :    -0.000000
      pz      :     0.000000  p :     0.000000
      px      :     0.000000
      py      :     0.000000
      dz2     :     0.000000  d :    -0.000000
      dxz     :    -0.000000
      dyz     :     0.000000
      dx2y2   :    -0.000000
      dxy     :    -0.000000
      f0      :    -0.000000  f :     0.000000
      f+1     :     0.000000
      f-1     :    -0.000000
      f+2     :     0.000000
      f-2     :     0.000000
      f+3     :     0.000000
      f-3     :     0.000000
      g0      :    -0.000000  g :    -0.000000
      g+1     :     0.000000
      g-1     :    -0.000000
      g+2     :    -0.000000
      g-2     :    -0.000000
      g+3     :     0.000000
      g-3     :    -0.000000
      g+4     :     0.000000
      g-4     :    -0.000000
  4 H s       :    -0.000000  s :    -0.000000
      pz      :     0.000000  p :    -0.000000
      px      :     0.000000
      py      :    -0.000000
      dz2     :     0.000000  d :     0.000000
      dxz     :     0.000000
      dyz     :    -0.000000
      dx2y2   :     0.000000
      dxy     :     0.000000
      f0      :    -0.000000  f :     0.000000
      f+1     :     0.000000
      f-1     :     0.000000
      f+2     :    -0.000000
      f-2     :    -0.000000
      f+3     :     0.000000
      f-3     :    -0.000000
      g0      :    -0.000000  g :    -0.000000
      g+1     :    -0.000000
      g-1     :     0.000000
      g+2     :    -0.000000
      g-2     :     0.000000
      g+3     :    -0.000000
      g-3     :    -0.000000
      g+4     :    -0.000000
      g-4     :    -0.000000
  5 H s       :    -0.000000  s :    -0.000000
      pz      :     0.000000  p :     0.000000
      px      :     0.000000
      py      :     0.000000
      dz2     :     0.000000  d :    -0.000000
      dxz     :     0.000000
      dyz     :     0.000000
      dx2y2   :     0.000000
      dxy     :    -0.000000
      f0      :     0.000000  f :     0.000000
      f+1     :     0.000000
      f-1     :     0.000000
      f+2     :    -0.000000
      f-2     :    -0.000000
      f+3     :    -0.000000
      f-3     :    -0.000000
      g0      :     0.000000  g :     0.000000
      g+1     :     0.000000
      g-1     :    -0.000000
      g+2     :     0.000000
      g-2     :    -0.000000
      g+3     :     0.000000
      g-3     :     0.000000
      g+4     :     0.000000
      g-4     :     0.000000


                      *****************************
                      * MAYER POPULATION ANALYSIS *
                      *****************************

  NA   - Mulliken gross atomic population
  ZA   - Total nuclear charge
  QA   - Mulliken gross atomic charge
  VA   - Mayer's total valence
  BVA  - Mayer's bonded valence
  FA   - Mayer's free valence

  ATOM       NA         ZA         QA         VA         BVA        FA
  0 C      5.4019     6.0000     0.5981     3.8918     3.8918     0.0000
  1 O      8.3682     8.0000    -0.3682     1.8738     1.8738    -0.0000
  2 N      7.4035     7.0000    -0.4035     3.4411     3.4411     0.0000
  3 H      1.1021     1.0000    -0.1021     1.1590     1.1590     0.0000
  4 H      0.8449     1.0000     0.1551     1.0418     1.0418     0.0000
  5 H      0.8793     1.0000     0.1207     1.0749     1.0749     0.0000

  Mayer bond orders larger than 0.1
B(  0-C ,  1-O ) :   1.6675 B(  0-C ,  2-N ) :   1.2510 B(  0-C ,  3-H ) :   0.9734 
B(  1-O ,  3-H ) :   0.1096 B(  2-N ,  4-H ) :   0.9844 B(  2-N ,  5-H ) :   1.0552 


-------
TIMINGS
-------

Total SCF time: 0 days 2 hours 28 min 49 sec 

Total time                  ....    8929.616 sec
Sum of individual times     ....    8927.451 sec  (100.0%)

Fock matrix formation       ....    8904.196 sec  ( 99.7%)
  XC integration            ....     207.531 sec  (  2.3% of F)
    Basis function eval.    ....       9.491 sec  (  4.6% of XC)
    Density eval.           ....      71.656 sec  ( 34.5% of XC)
    XC-Functional eval.     ....       0.679 sec  (  0.3% of XC)
    XC-Potential eval.      ....     119.139 sec  ( 57.4% of XC)
Diagonalization             ....       8.965 sec  (  0.1%)
Density matrix formation    ....       0.100 sec  (  0.0%)
Population analysis         ....       0.755 sec  (  0.0%)
Initial guess               ....       6.125 sec  (  0.1%)
Orbital Transformation      ....       0.000 sec  (  0.0%)
Orbital Orthonormalization  ....       0.000 sec  (  0.0%)
DIIS solution               ....       4.214 sec  (  0.0%)
Grid generation             ....       3.097 sec  (  0.0%)

-------------------------   --------------------
FINAL SINGLE POINT ENERGY      -169.792401930814
-------------------------   --------------------


                            ***************************************
                            *     ORCA property calculations      *
                            ***************************************

                                    ---------------------
                                    Active property flags
                                    ---------------------
   (+) Dipole Moment
   (+) Polarizability


------------------------------------------------------------------------------
                       ORCA ELECTRIC PROPERTIES CALCULATION
------------------------------------------------------------------------------

Dipole Moment Calculation                       ... on
Quadrupole Moment Calculation                   ... off
Polarizability Calculation                      ... Analytic (CP-SCF)
GBWName                                         ... hconh2_pbe.gbw
Electron density file                           ... hconh2_pbe.scfp.tmp
The origin for moment calculation is the CENTER OF MASS  = ( 0.124214,  0.016118  0.000000)

-------------
DIPOLE MOMENT
-------------
                                X             Y             Z
Electronic contribution:      1.49987       0.12071      -0.00000
Nuclear contribution   :     -2.98152      -0.38703       0.00000
                        -----------------------------------------
Total Dipole Moment    :     -1.48165      -0.26632      -0.00000
                        -----------------------------------------
Magnitude (a.u.)       :      1.50540
Magnitude (Debye)      :      3.82641



--------------------
Rotational spectrum 
--------------------
 
Rotational constants in cm-1:     2.468819     0.383251     0.331751 
Rotational constants in MHz : 74013.333721 11489.574538  9945.646668 

 Dipole components along the rotational axes: 
x,y,z [a.u.] :     1.478528     0.283144    -0.000000 
x,y,z [Debye]:     3.758118     0.719695    -0.000000 

 
Transforming and storing MO dipole integrals   ... done

                ... starting polarizability calculation

Opening the Dipole integral file               ... (hconh2_pbe.dmo.tmp) done
Reading Dipole-MO integrals                    ... done
Solving CP-SCF equations                       ... 

           ************************************************************
           *        Program running with 4 parallel MPI-processes     *
           *              working on a common directory               *
           ************************************************************

------------------------------------------------------------------------------
                           ORCA CP-SCF CALCULATION
------------------------------------------------------------------------------

Input orbitals are from        ... hconh2_pbe.gbw
Input Perturbation             ... hconh2_pbe.cpv.tmp
Wavefunction output            ... hconh2_pbe.cpu.tmp
Perturbation mode              ... Real perturbation (singlet)
Solver                         ... POPLE
Max. number of iterations      ... 200
Convergence tolerance          ... 1.000e-06
Integral handling              ... Direct
Number of perturbations        ... 3
Number of operators            ... 2
Orbital ranges used for CP-SCF:
 Operator 0:  Orbitals   0... 11  to  12...698
 Operator 1:  Orbitals   0... 11  to  12...698
DFT calculation                         ... on
Exchange functional (SCF)               ... PBE
Exchange functional (CP-SCF)            ... PBE
   PBE kappa parameter  XKappa (SCF)    ...  0.804000
   PBE kappa parameter  XKappa (CP-SCF) ...  0.804000
   PBE mue parameter   XMuePBE (SCF)    ...  0.219520
   PBE mue parameter   XMuePBE (CP-SCF) ...  0.219520
Correlation functional (SCF)            ... PBE
Correlation functional (CP-SCF)         ... PBE
   PBE beta parameter CBetaPBE (SCF)    ...  0.066725
   PBE beta parameter CBetaPBE (CP-SCF) ...  0.066725
 LDA part of GGA corr.  LDAOpt (SCF)    ... PW91-LDA
 LDA part of GGA corr.  LDAOpt (CP-SCF) ... PW91-LDA
Variables per vector in CP-SCF ... 16488
Number of vectors sought       ... 3
Recalculating density on grid  ... done
Calculating the xc-kernel      ... done
     CP-SCF ITERATION   0: 
     CP-SCF ITERATION   1:      0.750015702320
     CP-SCF ITERATION   2:      0.140253627769
     CP-SCF ITERATION   3:      0.004755726631
     CP-SCF ITERATION   4:      0.000274035201
     CP-SCF ITERATION   5:      0.000019995749
     CP-SCF ITERATION   6:      0.000000415215
done
Reading CP-SCF coefficients                    ... done
Doing the polarizability tensor   ... done
Cleaning up                                    ... done

-------------------------
THE POLARIZABILITY TENSOR
-------------------------

The raw cartesian tensor (atomic units):
   37.60147      2.13579     -0.00000  
    2.13579     30.49646     -0.00000  
   -0.00000     -0.00000     21.15183  
diagonalized tensor: 
   21.15183     29.90386     38.19407  

    0.00000     -0.26736     -0.96360  
    0.00000      0.96360     -0.26736  
    1.00000     -0.00000      0.00000  

Isotropic polarizability :  29.74992


Timings for individual modules:

Sum of individual times         ...    14823.307 sec (= 247.055 min)
GTO integral calculation        ...       11.900 sec (=   0.198 min)   0.1 %
SCF iterations                  ...     8935.281 sec (= 148.921 min)  60.3 %
Solution of CP-SCF eqns.        ...     5876.125 sec (=  97.935 min)  39.6 %
                             ****ORCA TERMINATED NORMALLY****
TOTAL RUN TIME: 0 days 4 hours 7 minutes 4 seconds 762 msec
