
                                 *****************
                                 * O   R   C   A *
                                 *****************

           --- An Ab Initio, DFT and Semiempirical electronic structure package ---

                  #######################################################
                  #                        -***-                        #
                  #          Department of theory and spectroscopy      #
                  #               Directorship: Frank Neese             #
                  #        Max Planck Institute fuer Kohlenforschung    #
                  #                Kaiser Wilhelm Platz 1               #
                  #                 D-45470 Muelheim/Ruhr               #
                  #                      Germany                        #
                  #                                                     #
                  #                  All rights reserved                #
                  #                        -***-                        #
                  #######################################################


                         Program Version 4.1.2  - RELEASE  -


 With contributions from (in alphabetic order):
   Daniel Aravena         : Magnetic Properties
   Michael Atanasov       : Ab Initio Ligand Field Theory
   Alexander A. Auer      : GIAO ZORA
   Ute Becker             : Parallelization
   Giovanni Bistoni       : ED, Open-shell LED
   Martin Brehm           : Molecular dynamics
   Dmytro Bykov           : SCF Hessian
   Vijay G. Chilkuri      : MRCI spin determinant printing
   Dipayan Datta          : RHF DLPNO-CCSD density
   Achintya Kumar Dutta   : EOM-CC, STEOM-CC
   Dmitry Ganyushin       : Spin-Orbit,Spin-Spin,Magnetic field MRCI
   Miquel Garcia          : C-PCM Hessian
   Yang Guo               : DLPNO-NEVPT2, CIM, IAO-localization
   Andreas Hansen         : Spin unrestricted coupled pair/coupled cluster methods
   Benjamin Helmich-Paris : CASSCF linear response (MC-RPA)
   Lee Huntington         : MR-EOM, pCC
   Robert Izsak           : Overlap fitted RIJCOSX, COSX-SCS-MP3, EOM
   Christian Kollmar      : KDIIS, OOCD, Brueckner-CCSD(T), CCSD density
   Simone Kossmann        : Meta GGA functionals, TD-DFT gradient, OOMP2, MP2 Hessian
   Martin Krupicka        : AUTO-CI
   Lucas Lang             : DCDCAS
   Dagmar Lenk            : GEPOL surface, SMD
   Dimitrios Liakos       : Extrapolation schemes; parallel MDCI
   Dimitrios Manganas     : ROCIS; embedding schemes
   Dimitrios Pantazis     : SARC Basis sets
   Taras Petrenko         : DFT Hessian,TD-DFT gradient, ASA, ECA, R-Raman, ABS, FL, XAS/XES, NRVS
   Peter Pinski           : DLPNO-MP2, DLPNO-MP2 Gradient
   Christoph Reimann      : Effective Core Potentials
   Marius Retegan         : Local ZFS, SOC
   Christoph Riplinger    : Optimizer, TS searches, QM/MM, DLPNO-CCSD(T), (RO)-DLPNO pert. Triples
   Tobias Risthaus        : Range-separated hybrids, TD-DFT gradient, RPA, STAB
   Michael Roemelt        : Restricted open shell CIS
   Masaaki Saitow         : Open-shell DLPNO
   Barbara Sandhoefer     : DKH picture change effects
   Avijit Sen             : IP-ROCIS
   Kantharuban Sivalingam : CASSCF convergence, NEVPT2, FIC-MRCI
   Bernardo de Souza      : ESD, SOC TD-DFT
   Georgi Stoychev        : AutoAux, RI-MP2 NMR
   Willem Van den Heuvel  : Paramagnetic NMR
   Boris Wezisla          : Elementary symmetry handling
   Frank Wennmohs         : Technical directorship


 We gratefully acknowledge several colleagues who have allowed us to
 interface, adapt or use parts of their codes:
   Stefan Grimme, W. Hujo, H. Kruse,             : VdW corrections, initial TS optimization,
                  C. Bannwarth                     DFT functionals, gCP, sTDA/sTD-DF
   Ed Valeev                                     : LibInt (2-el integral package), F12 methods
   Garnet Chan, S. Sharma, J. Yang, R. Olivares  : DMRG
   Ulf Ekstrom                                   : XCFun DFT Library
   Mihaly Kallay                                 : mrcc  (arbitrary order and MRCC methods)
   Andreas Klamt, Michael Diedenhofen            : otool_cosmo (COSMO solvation model)
   Jiri Pittner, Ondrej Demel                    : Mk-CCSD
   Frank Weinhold                                : gennbo (NPA and NBO analysis)
   Christopher J. Cramer and Donald G. Truhlar   : smd solvation model
   Lars Goerigk                                  : TD-DFT with DH, B97 family of functionals
   V. Asgeirsson, H. Jonsson                     : NEB implementation
   FAccTs GmbH                                   : IRC, NEB, NEB-TS, Multilevel


 Your calculation uses the libint2 library for the computation of 2-el integrals
 For citations please refer to: http://libint.valeyev.net

 This ORCA versions uses:
   CBLAS   interface :  Fast vector & matrix operations
   LAPACKE interface :  Fast linear algebra routines
   SCALAPACK package :  Parallel linear algebra routines


----- Orbital basis set information -----
Your calculation utilizes the basis: aug-pc-4
   H, C-F              : F. Jensen, J. Chem. Phys. 115, 9113 (2001).
                         F. Jensen, J. Chem. Phys. 116, 7372 (2002).
                         F. Jensen, J. Chem. Phys. 117, 9234 (2002).
   Si-Cl               : F. Jensen, T. Helgaker, J. Chem. Phys. 121, 3463 (2004).
   He-B, Ne-Mg, Al, Ar : F. Jensen, J. Phys. Chem. A 111, 11198 (2007).
   K, Ca, Ga-Kr        : F. Jensen, J. Chem. Phys. 136, 094110 (2012).
   Sc-Zn               : F. Jensen, J. Chem. Phys. 138, 014107 (2013).

================================================================================
                                        WARNINGS
                       Please study these warnings very carefully!
================================================================================


INFO   : the flag for use of LIBINT has been found!

================================================================================
                                       INPUT FILE
================================================================================
NAME = hcp_pbe.inp
|  1> !uks pbe nori aug-pc-4 grid7 nofinalgrid verytightscf
|  2> 
|  3> %maxcore 1500
|  4> 
|  5> %pal nprocs 1 end
|  6> 
|  7> %scf
|  8> 	maxiter 200
|  9> end
| 10> %elprop
| 11> 	dipole true
| 12> 	 polar 1
| 13> 	 maxiter 200
| 14> end
| 15> 
| 16> * xyz 0 1
| 17> C 0.0000 0.0000 0.0000
| 18> H 0.0000 0.0000 1.0670
| 19> P 0.0000 0.0000 -1.5420
| 20> *
| 21> 
| 22>                          ****END OF INPUT****
================================================================================

                       ****************************
                       * Single Point Calculation *
                       ****************************

---------------------------------
CARTESIAN COORDINATES (ANGSTROEM)
---------------------------------
  C      0.000000    0.000000    0.000000
  H      0.000000    0.000000    1.067000
  P      0.000000    0.000000   -1.542000

----------------------------
CARTESIAN COORDINATES (A.U.)
----------------------------
  NO LB      ZA    FRAG     MASS         X           Y           Z
   0 C     6.0000    0    12.011    0.000000    0.000000    0.000000
   1 H     1.0000    0     1.008    0.000000    0.000000    2.016338
   2 P    15.0000    0    30.974    0.000000    0.000000   -2.913958

--------------------------------
INTERNAL COORDINATES (ANGSTROEM)
--------------------------------
 C      0   0   0     0.000000000000     0.00000000     0.00000000
 H      1   0   0     1.067000000000     0.00000000     0.00000000
 P      1   2   0     1.542000000000   179.99999829     0.00000000

---------------------------
INTERNAL COORDINATES (A.U.)
---------------------------
 C      0   0   0     0.000000000000     0.00000000     0.00000000
 H      1   0   0     2.016337784894     0.00000000     0.00000000
 P      1   2   0     2.913957698507   179.99999829     0.00000000

---------------------
BASIS SET INFORMATION
---------------------
There are 3 groups of distinct atoms

 Group   1 Type C   : 28s12p7d4f3g2h contracted to 9s8p7d4f3g2h pattern {11101111111/51111111/1111111/1111/111/11}
 Group   2 Type H   : 12s7p4d3f2g contracted to 8s7p4d3f2g pattern {51111111/1111111/1111/111/11}
 Group   3 Type P   : 44s27p7d4f3g2h contracted to 8s7p7d4f3g2h pattern {15121211111/111111111/1111111/1111/111/11}

Atom   0C    basis set group =>   1
Atom   1H    basis set group =>   2
Atom   2P    basis set group =>   3
------------------------------------------------------------------------------
                           ORCA GTO INTEGRAL CALCULATION
------------------------------------------------------------------------------

                         BASIS SET STATISTICS AND STARTUP INFO

 # of primitive gaussian shells          ...  171
 # of primitive gaussian functions       ...  505
 # of contracted shells                  ...   88
 # of contracted basis functions         ...  374
 Highest angular momentum                ...    5
 Maximum contraction depth               ...   15
 Integral package used                   ... LIBINT
 Integral threshhold            Thresh   ...  1.000e-12
 Primitive cut-off              TCut     ...  1.000e-14


------------------------------ INTEGRAL EVALUATION ----------------------------


 * One electron integrals 
 Pre-screening matrix                    ... done
 Shell pair data                         ... done (   0.002 sec)

-------------------------------------------------------------------------------
                                 ORCA SCF
-------------------------------------------------------------------------------

------------
SCF SETTINGS
------------
Hamiltonian:
 Density Functional     Method          .... DFT(GTOs)
 Exchange Functional    Exchange        .... PBE
   PBE kappa parameter   XKappa         ....  0.804000
   PBE mue parameter    XMuePBE         ....  0.219520
 Correlation Functional Correlation     .... PBE
   PBE beta parameter  CBetaPBE         ....  0.066725
 LDA part of GGA corr.  LDAOpt          .... PW91-LDA
 Gradients option       PostSCFGGA      .... off
   Density functional embedding theory  .... OFF
   NL short-range parameter             ....  6.400000


General Settings:
 Integral files         IntName         .... hcp_pbe
 Hartree-Fock type      HFTyp           .... UHF
 Total Charge           Charge          ....    0
 Multiplicity           Mult            ....    1
 Number of Electrons    NEL             ....   22
 Basis Dimension        Dim             ....  374
 Nuclear Repulsion      ENuc            ....     36.9039351706 Eh

Convergence Acceleration:
 DIIS                   CNVDIIS         .... on
   Start iteration      DIISMaxIt       ....    12
   Startup error        DIISStart       ....  0.200000
   # of expansion vecs  DIISMaxEq       ....     5
   Bias factor          DIISBfac        ....   1.050
   Max. coefficient     DIISMaxC        ....  10.000
 Newton-Raphson         CNVNR           .... off
 SOSCF                  CNVSOSCF        .... off
 Level Shifting         CNVShift        .... on
   Level shift para.    LevelShift      ....    0.2500
   Turn off err/grad.   ShiftErr        ....    0.0010
 Zerner damping         CNVZerner       .... off
 Static damping         CNVDamp         .... on
   Fraction old density DampFac         ....    0.7000
   Max. Damping (<1)    DampMax         ....    0.9800
   Min. Damping (>=0)   DampMin         ....    0.0000
   Turn off err/grad.   DampErr         ....    0.1000
 Fernandez-Rico         CNVRico         .... off

SCF Procedure:
 Maximum # iterations   MaxIter         ....   200
 SCF integral mode      SCFMode         .... Direct
   Integral package                     .... LIBINT
 Reset frequency        DirectResetFreq ....    20
 Integral Threshold     Thresh          ....  1.000e-12 Eh
 Primitive CutOff       TCut            ....  1.000e-14 Eh

Convergence Tolerance:
 Convergence Check Mode ConvCheckMode   .... Total+1el-Energy
 Convergence forced     ConvForced      .... 0
 Energy Change          TolE            ....  1.000e-09 Eh
 1-El. energy change                    ....  1.000e-06 Eh
 DIIS Error             TolErr          ....  1.000e-08


Diagonalization of the overlap matrix:
Smallest eigenvalue                        ... 1.018e-06
Time for diagonalization                   ...    0.029 sec
Threshold for overlap eigenvalues          ... 1.000e-08
Number of eigenvalues below threshold      ... 0
Time for construction of square roots      ...    0.019 sec
Total time needed                          ...    0.049 sec

-------------------
DFT GRID GENERATION
-------------------

General Integration Accuracy     IntAcc      ...  5.670
Radial Grid Type                 RadialGrid  ... Gauss-Chebyshev
Angular Grid (max. acc.)         AngularGrid ... Lebedev-770
Angular grid pruning method      GridPruning ... 3 (G Style)
Weight generation scheme         WeightScheme... Becke
Basis function cutoff            BFCut       ...    1.0000e-12
Integration weight cutoff        WCut        ...    1.0000e-14
Grids for H and He will be reduced by one unit

# of grid points (after initial pruning)     ...  70062 (   0.0 sec)
# of grid points (after weights+screening)   ...  69257 (   0.0 sec)
nearest neighbour list constructed           ...    0.0 sec
Grid point re-assignment to atoms done       ...    0.0 sec
Grid point division into batches done        ...    1.6 sec
Reduced shell lists constructed in    2.5 sec

Total number of grid points                  ...    69257
Total number of batches                      ...     1084
Average number of points per batch           ...       63
Average number of grid points per atom       ...    23086
Average number of shells per batch           ...    65.88 (74.86%)
Average number of basis functions per batch  ...   286.16 (76.51%)
Average number of large shells per batch     ...    59.33 (90.07%)
Average number of large basis fcns per batch ...   258.78 (90.43%)
Maximum spatial batch extension              ...  20.36, 20.90, 25.26 au
Average spatial batch extension              ...   2.65,  2.60,  2.21 au

Time for grid setup =    2.504 sec

------------------------------
INITIAL GUESS: MODEL POTENTIAL
------------------------------
Loading Hartree-Fock densities                     ... done
Calculating cut-offs                               ... done
Setting up the integral package                    ... done
Initializing the effective Hamiltonian             ... done
Starting the Coulomb interaction                   ... done (   0.1 sec)
Reading the grid                                   ... done
Mapping shells                                     ... done
Starting the XC term evaluation                    ... done (   5.0 sec)
  promolecular density results
     # of electrons  =     21.999510891
     EX              =    -27.842057948
     EC              =     -0.772026351
     EX+EC           =    -28.614084300
Transforming the Hamiltonian                       ... done (   0.0 sec)
Diagonalizing the Hamiltonian                      ... done (   0.0 sec)
Back transforming the eigenvectors                 ... done (   0.0 sec)
Now organizing SCF variables                       ... done
                      ------------------
                      INITIAL GUESS DONE (   7.8 sec)
                      ------------------
--------------
SCF ITERATIONS
--------------
ITER       Energy         Delta-E        Max-DP      RMS-DP      [F,P]     Damp
               ***  Starting incremental Fock matrix formation  ***
  0   -379.6866459007   0.000000000000 0.10445084  0.00059471  0.3006779 0.7000
  1   -379.7745926394  -0.087946738637 0.04343875  0.00027091  0.0745889 0.7000
                               ***Turning on DIIS***
  2   -379.7805024688  -0.005909829406 0.04189961  0.00028822  0.0562141 0.0000
  3   -379.8202721332  -0.039769664379 0.05187308  0.00030785  0.0576621 0.0000
  4   -379.8171357708   0.003136362355 0.02116088  0.00013585  0.0834952 0.0000
  5   -379.8244112693  -0.007275498480 0.01599093  0.00009439  0.0439622 0.0000
  6   -379.8265751471  -0.002163877823 0.00499471  0.00003366  0.0213139 0.0000
  7   -379.8270868059  -0.000511658790 0.00148405  0.00001193  0.0105005 0.0000
  8   -379.8272166653  -0.000129859444 0.00126083  0.00000827  0.0049278 0.0000
  9   -379.8272434066  -0.000026741215 0.00159916  0.00000932  0.0024819 0.0000
 10   -379.8272512471  -0.000007840546 0.00048899  0.00000280  0.0011764 0.0000
 11   -379.8272527770  -0.000001529855 0.00020623  0.00000162  0.0006667 0.0000
 12   -379.8272534743  -0.000000697373 0.00006042  0.00000042  0.0000750 0.0000
 13   -379.8272534838  -0.000000009480 0.00007286  0.00000039  0.0000186 0.0000
 14   -379.8272534844  -0.000000000580 0.00005727  0.00000032  0.0000040 0.0000
 15   -379.8272534844  -0.000000000031 0.00009434  0.00000058  0.0000007 0.0000
 16   -379.8272534844   0.000000000003 0.00009754  0.00000062  0.0000002 0.0000
                 **** Energy Check signals convergence ****

               *****************************************************
               *                     SUCCESS                       *
               *           SCF CONVERGED AFTER  17 CYCLES          *
               *****************************************************


----------------
TOTAL SCF ENERGY
----------------

Total Energy       :         -379.82725348 Eh          -10335.62502 eV

Components:
Nuclear Repulsion  :           36.90393517 Eh            1004.20713 eV
Electronic Energy  :         -416.73118866 Eh          -11339.83215 eV
One Electron Energy:         -596.89738136 Eh          -16242.40349 eV
Two Electron Energy:          180.16619270 Eh            4902.57135 eV

Virial components:
Potential Energy   :         -759.22759251 Eh          -20659.63311 eV
Kinetic Energy     :          379.40033902 Eh           10324.00809 eV
Virial Ratio       :            2.00112523


DFT components:
N(Alpha)           :       11.000000032680 electrons
N(Beta)            :       11.000000032680 electrons
N(Total)           :       22.000000065359 electrons
E(X)               :      -27.964334306611 Eh       
E(C)               :       -0.776395301681 Eh       
E(XC)              :      -28.740729608292 Eh       
DFET-embed. en.    :        0.000000000000 Eh       

---------------
SCF CONVERGENCE
---------------

  Last Energy change         ...   -4.8317e-12  Tolerance :   1.0000e-09
  Last MAX-Density change    ...    1.1155e-04  Tolerance :   1.0000e-08
  Last RMS-Density change    ...    8.4736e-07  Tolerance :   1.0000e-09
  Last DIIS Error            ...    3.8552e-08  Tolerance :   1.0000e-08

             **** THE GBW FILE WAS UPDATED (hcp_pbe.gbw) ****
             **** DENSITY FILE WAS UPDATED (hcp_pbe.scfp.tmp) ****
             **** ENERGY FILE WAS UPDATED (hcp_pbe.en.tmp) ****
----------------------
UHF SPIN CONTAMINATION
----------------------

Warning: in a DFT calculation there is little theoretical justification to 
         calculate <S**2> as in Hartree-Fock theory. We will do it anyways
         but you should keep in mind that the values have only limited relevance

Expectation value of <S**2>     :     0.000000
Ideal value S*(S+1) for S=0.0   :     0.000000
Deviation                       :     0.000000

----------------
ORBITAL ENERGIES
----------------
                 SPIN UP ORBITALS
  NO   OCC          E(Eh)            E(eV) 
   0   1.0000     -76.288343     -2075.9113 
   1   1.0000      -9.922814      -270.0135 
   2   1.0000      -6.309709      -171.6959 
   3   1.0000      -4.525418      -123.1429 
   4   1.0000      -4.525418      -123.1429 
   5   1.0000      -4.521237      -123.0291 
   6   1.0000      -0.650601       -17.7037 
   7   1.0000      -0.494458       -13.4549 
   8   1.0000      -0.325608        -8.8602 
   9   1.0000      -0.259243        -7.0543 
  10   1.0000      -0.259243        -7.0543 
  11   0.0000      -0.088843        -2.4175 
  12   0.0000      -0.088843        -2.4175 
  13   0.0000      -0.009953        -0.2708 
  14   0.0000       0.001081         0.0294 
  15   0.0000       0.016065         0.4371 
  16   0.0000       0.016065         0.4371 
  17   0.0000       0.024870         0.6767 
  18   0.0000       0.037165         1.0113 
  19   0.0000       0.037165         1.0113 
  20   0.0000       0.040293         1.0964 
  21   0.0000       0.049382         1.3438 
  22   0.0000       0.063330         1.7233 
  23   0.0000       0.063330         1.7233 
  24   0.0000       0.065854         1.7920 
  25   0.0000       0.079712         2.1691 
  26   0.0000       0.079712         2.1691 
  27   0.0000       0.081442         2.2162 
  28   0.0000       0.106173         2.8891 
  29   0.0000       0.106173         2.8891 
  30   0.0000       0.109666         2.9842 
  31   0.0000       0.109666         2.9842 
  32   0.0000       0.119406         3.2492 
  33   0.0000       0.119406         3.2492 
  34   0.0000       0.128825         3.5055 
  35   0.0000       0.143417         3.9026 
  36   0.0000       0.151603         4.1253 
  37   0.0000       0.159036         4.3276 
  38   0.0000       0.169797         4.6204 
  39   0.0000       0.169797         4.6204 
  40   0.0000       0.174112         4.7378 
  41   0.0000       0.174112         4.7378 
  42   0.0000       0.181070         4.9272 
  43   0.0000       0.181070         4.9272 
  44   0.0000       0.187306         5.0969 
  45   0.0000       0.214325         5.8321 
  46   0.0000       0.214325         5.8321 
  47   0.0000       0.219361         5.9691 
  48   0.0000       0.219361         5.9691 
  49   0.0000       0.234595         6.3837 
  50   0.0000       0.234595         6.3837 
  51   0.0000       0.238979         6.5029 
  52   0.0000       0.238979         6.5029 
  53   0.0000       0.265445         7.2231 
  54   0.0000       0.266119         7.2415 
  55   0.0000       0.266119         7.2415 
  56   0.0000       0.267256         7.2724 
  57   0.0000       0.267256         7.2724 
  58   0.0000       0.279979         7.6186 
  59   0.0000       0.290140         7.8951 
  60   0.0000       0.290140         7.8951 
  61   0.0000       0.303984         8.2718 
  62   0.0000       0.310817         8.4578 
  63   0.0000       0.310817         8.4578 
  64   0.0000       0.320163         8.7121 
  65   0.0000       0.341775         9.3002 
  66   0.0000       0.357955         9.7404 
  67   0.0000       0.357955         9.7404 
  68   0.0000       0.370308        10.0766 
  69   0.0000       0.370308        10.0766 
  70   0.0000       0.377738        10.2788 
  71   0.0000       0.377738        10.2788 
  72   0.0000       0.389070        10.5871 
  73   0.0000       0.389070        10.5871 
  74   0.0000       0.401009        10.9120 
  75   0.0000       0.401009        10.9120 
  76   0.0000       0.402751        10.9594 
  77   0.0000       0.420878        11.4527 
  78   0.0000       0.420878        11.4527 
  79   0.0000       0.438064        11.9203 
  80   0.0000       0.438064        11.9203 
  81   0.0000       0.448521        12.2049 
  82   0.0000       0.450739        12.2652 
  83   0.0000       0.450739        12.2652 
  84   0.0000       0.456343        12.4177 
  85   0.0000       0.456343        12.4177 
  86   0.0000       0.485185        13.2026 
  87   0.0000       0.485185        13.2026 
  88   0.0000       0.485547        13.2124 
  89   0.0000       0.485547        13.2124 
  90   0.0000       0.498065        13.5530 
  91   0.0000       0.498065        13.5530 
  92   0.0000       0.512592        13.9483 
  93   0.0000       0.526026        14.3139 
  94   0.0000       0.533782        14.5249 
  95   0.0000       0.533782        14.5249 
  96   0.0000       0.534023        14.5315 
  97   0.0000       0.536429        14.5970 
  98   0.0000       0.536429        14.5970 
  99   0.0000       0.559655        15.2290 
 100   0.0000       0.559655        15.2290 
 101   0.0000       0.581848        15.8329 
 102   0.0000       0.581849        15.8329 
 103   0.0000       0.586448        15.9580 
 104   0.0000       0.586448        15.9580 
 105   0.0000       0.600346        16.3362 
 106   0.0000       0.607242        16.5239 
 107   0.0000       0.607242        16.5239 
 108   0.0000       0.612111        16.6564 
 109   0.0000       0.641517        17.4566 
 110   0.0000       0.641517        17.4566 
 111   0.0000       0.648265        17.6402 
 112   0.0000       0.648265        17.6402 
 113   0.0000       0.662273        18.0214 
 114   0.0000       0.663783        18.0624 
 115   0.0000       0.663783        18.0624 
 116   0.0000       0.701136        19.0789 
 117   0.0000       0.701137        19.0789 
 118   0.0000       0.703031        19.1305 
 119   0.0000       0.703031        19.1305 
 120   0.0000       0.723207        19.6795 
 121   0.0000       0.723207        19.6795 
 122   0.0000       0.733143        19.9498 
 123   0.0000       0.733143        19.9498 
 124   0.0000       0.759934        20.6788 
 125   0.0000       0.759934        20.6788 
 126   0.0000       0.765154        20.8209 
 127   0.0000       0.765154        20.8209 
 128   0.0000       0.777055        21.1448 
 129   0.0000       0.777056        21.1448 
 130   0.0000       0.786270        21.3955 
 131   0.0000       0.812448        22.1078 
 132   0.0000       0.812448        22.1078 
 133   0.0000       0.826896        22.5010 
 134   0.0000       0.844730        22.9863 
 135   0.0000       0.844730        22.9863 
 136   0.0000       0.872253        23.7352 
 137   0.0000       0.913822        24.8664 
 138   0.0000       0.913823        24.8664 
 139   0.0000       0.928856        25.2754 
 140   0.0000       0.936196        25.4752 
 141   0.0000       0.966190        26.2914 
 142   0.0000       0.966190        26.2914 
 143   0.0000       1.006617        27.3914 
 144   0.0000       1.006656        27.3925 
 145   0.0000       1.006656        27.3925 
 146   0.0000       1.081207        29.4211 
 147   0.0000       1.081207        29.4211 
 148   0.0000       1.091684        29.7062 
 149   0.0000       1.105398        30.0794 
 150   0.0000       1.105398        30.0794 
 151   0.0000       1.135256        30.8919 
 152   0.0000       1.135256        30.8919 
 153   0.0000       1.170263        31.8445 
 154   0.0000       1.207239        32.8506 
 155   0.0000       1.207239        32.8506 
 156   0.0000       1.251923        34.0665 
 157   0.0000       1.251923        34.0665 
 158   0.0000       1.296759        35.2866 
 159   0.0000       1.320815        35.9412 
 160   0.0000       1.320815        35.9412 
 161   0.0000       1.346174        36.6313 
 162   0.0000       1.346174        36.6313 
 163   0.0000       1.448906        39.4267 
 164   0.0000       1.511509        41.1303 
 165   0.0000       1.511509        41.1303 
 166   0.0000       1.541335        41.9419 
 167   0.0000       1.541335        41.9419 
 168   0.0000       1.546607        42.0853 
 169   0.0000       1.616483        43.9867 
 170   0.0000       1.655006        45.0350 
 171   0.0000       1.655007        45.0350 
 172   0.0000       1.683397        45.8076 
 173   0.0000       1.884230        51.2725 
 174   0.0000       1.884230        51.2725 
 175   0.0000       1.891467        51.4694 
 176   0.0000       1.891467        51.4694 
 177   0.0000       1.959787        53.3285 
 178   0.0000       2.071411        56.3660 
 179   0.0000       2.071411        56.3660 
 180   0.0000       2.090640        56.8892 
 181   0.0000       2.090640        56.8892 
 182   0.0000       2.169796        59.0431 
 183   0.0000       2.218594        60.3710 
 184   0.0000       2.218594        60.3710 
 185   0.0000       2.277844        61.9833 
 186   0.0000       2.277844        61.9833 
 187   0.0000       2.284270        62.1582 
 188   0.0000       2.284270        62.1582 
 189   0.0000       2.338064        63.6220 
 190   0.0000       2.338064        63.6220 
 191   0.0000       2.446776        66.5801 
 192   0.0000       2.463362        67.0315 
 193   0.0000       2.499771        68.0222 
 194   0.0000       2.499771        68.0222 
 195   0.0000       2.640673        71.8564 
 196   0.0000       2.765982        75.2662 
 197   0.0000       2.765982        75.2662 
 198   0.0000       2.768146        75.3251 
 199   0.0000       2.768146        75.3251 
 200   0.0000       2.829017        76.9815 
 201   0.0000       2.843689        77.3807 
 202   0.0000       2.843690        77.3807 
 203   0.0000       2.893258        78.7295 
 204   0.0000       2.893258        78.7295 
 205   0.0000       2.987202        81.2859 
 206   0.0000       3.118987        84.8719 
 207   0.0000       3.118987        84.8719 
 208   0.0000       3.198961        87.0482 
 209   0.0000       3.203421        87.1695 
 210   0.0000       3.203421        87.1695 
 211   0.0000       3.243974        88.2730 
 212   0.0000       3.243974        88.2730 
 213   0.0000       3.315622        90.2227 
 214   0.0000       3.515868        95.6716 
 215   0.0000       3.515868        95.6716 
 216   0.0000       3.519190        95.7620 
 217   0.0000       3.606083        98.1265 
 218   0.0000       3.606083        98.1265 
 219   0.0000       3.782943       102.9391 
 220   0.0000       3.782943       102.9391 
 221   0.0000       4.003579       108.9429 
 222   0.0000       4.007869       109.0597 
 223   0.0000       4.007870       109.0597 
 224   0.0000       4.018767       109.3562 
 225   0.0000       4.018767       109.3562 
 226   0.0000       4.129374       112.3660 
 227   0.0000       4.129374       112.3660 
 228   0.0000       4.162420       113.2652 
 229   0.0000       4.162420       113.2652 
 230   0.0000       4.322881       117.6316 
 231   0.0000       4.322881       117.6316 
 232   0.0000       4.380362       119.1957 
 233   0.0000       4.393443       119.5516 
 234   0.0000       4.393443       119.5516 
 235   0.0000       4.506688       122.6332 
 236   0.0000       4.506688       122.6332 
 237   0.0000       4.670395       127.0879 
 238   0.0000       4.721177       128.4698 
 239   0.0000       4.721177       128.4698 
 240   0.0000       4.739607       128.9713 
 241   0.0000       4.739608       128.9713 
 242   0.0000       4.770217       129.8042 
 243   0.0000       4.770217       129.8042 
 244   0.0000       4.835473       131.5799 
 245   0.0000       4.835473       131.5799 
 246   0.0000       4.890501       133.0773 
 247   0.0000       5.054095       137.5289 
 248   0.0000       5.316727       144.6755 
 249   0.0000       5.316727       144.6755 
 250   0.0000       5.350580       145.5967 
 251   0.0000       5.350580       145.5967 
 252   0.0000       5.370829       146.1477 
 253   0.0000       5.370829       146.1477 
 254   0.0000       5.495471       149.5394 
 255   0.0000       5.496341       149.5630 
 256   0.0000       5.496342       149.5631 
 257   0.0000       5.654155       153.8574 
 258   0.0000       5.997185       163.1917 
 259   0.0000       5.997185       163.1917 
 260   0.0000       6.215636       169.1361 
 261   0.0000       6.215636       169.1361 
 262   0.0000       6.228015       169.4729 
 263   0.0000       6.458290       175.7390 
 264   0.0000       6.458290       175.7390 
 265   0.0000       6.539400       177.9461 
 266   0.0000       6.539400       177.9461 
 267   0.0000       6.926537       188.4807 
 268   0.0000       6.926537       188.4807 
 269   0.0000       6.976568       189.8421 
 270   0.0000       7.238796       196.9777 
 271   0.0000       7.326229       199.3568 
 272   0.0000       7.326231       199.3569 
 273   0.0000       7.331886       199.5108 
 274   0.0000       7.340862       199.7550 
 275   0.0000       7.340862       199.7550 
 276   0.0000       7.603404       206.8991 
 277   0.0000       7.603405       206.8992 
 278   0.0000       8.315126       226.2661 
 279   0.0000       8.331505       226.7118 
 280   0.0000       8.331505       226.7118 
 281   0.0000       8.692961       236.5475 
 282   0.0000       8.755541       238.2504 
 283   0.0000       8.755541       238.2504 
 284   0.0000       8.765377       238.5180 
 285   0.0000       8.765377       238.5180 
 286   0.0000       9.567376       260.3415 
 287   0.0000       9.713800       264.3259 
 288   0.0000       9.713800       264.3259 
 289   0.0000      10.235356       278.5182 
 290   0.0000      10.235356       278.5182 
 291   0.0000      10.296763       280.1892 
 292   0.0000      10.296763       280.1892 
 293   0.0000      10.305905       280.4379 
 294   0.0000      10.305907       280.4380 
 295   0.0000      10.454128       284.4713 
 296   0.0000      10.454129       284.4713 
 297   0.0000      10.763201       292.8816 
 298   0.0000      10.763201       292.8816 
 299   0.0000      10.775939       293.2282 
 300   0.0000      10.775939       293.2282 
 301   0.0000      10.790222       293.6169 
 302   0.0000      10.794928       293.7449 
 303   0.0000      10.794928       293.7449 
 304   0.0000      10.951858       298.0152 
 305   0.0000      10.951858       298.0152 
 306   0.0000      11.232930       305.6636 
 307   0.0000      11.306092       307.6544 
 308   0.0000      11.306092       307.6544 
 309   0.0000      11.476640       312.2952 
 310   0.0000      11.476640       312.2952 
 311   0.0000      11.557893       314.5063 
 312   0.0000      11.557894       314.5063 
 313   0.0000      11.702936       318.4531 
 314   0.0000      11.735650       319.3433 
 315   0.0000      11.735650       319.3433 
 316   0.0000      11.827180       321.8339 
 317   0.0000      11.827180       321.8339 
 318   0.0000      11.871967       323.0526 
 319   0.0000      11.871967       323.0526 
 320   0.0000      12.150010       330.6186 
 321   0.0000      12.376788       336.7895 
 322   0.0000      12.376788       336.7895 
 323   0.0000      12.545517       341.3809 
 324   0.0000      12.545517       341.3809 
 325   0.0000      12.552944       341.5830 
 326   0.0000      12.552944       341.5830 
 327   0.0000      12.563889       341.8808 
 328   0.0000      13.477831       366.7504 
 329   0.0000      13.519058       367.8723 
 330   0.0000      13.519058       367.8723 
 331   0.0000      13.537445       368.3726 
 332   0.0000      13.537446       368.3726 
 333   0.0000      14.759729       401.6326 
 334   0.0000      15.654321       425.9757 
 335   0.0000      15.654321       425.9757 
 336   0.0000      16.169892       440.0051 
 337   0.0000      16.169893       440.0052 
 338   0.0000      16.284231       443.1164 
 339   0.0000      16.707767       454.6415 
 340   0.0000      16.707767       454.6415 
 341   0.0000      16.750824       455.8131 
 342   0.0000      16.750824       455.8131 
 343   0.0000      17.010970       462.8920 
 344   0.0000      17.131188       466.1633 
 345   0.0000      17.131188       466.1633 
 346   0.0000      17.765047       483.4115 
 347   0.0000      18.177372       494.6315 
 348   0.0000      18.177372       494.6315 
 349   0.0000      18.673670       508.1364 
 350   0.0000      18.673670       508.1364 
 351   0.0000      20.312885       552.7417 
 352   0.0000      20.505982       557.9961 
 353   0.0000      20.505982       557.9961 
 354   0.0000      21.420783       582.8891 
 355   0.0000      23.614658       642.5875 
 356   0.0000      23.614658       642.5875 
 357   0.0000      25.172733       684.9849 
 358   0.0000      25.736284       700.3199 
 359   0.0000      31.893148       867.8567 
 360   0.0000      31.893150       867.8567 
 361   0.0000      32.239474       877.2807 
 362   0.0000      32.239474       877.2807 
 363   0.0000      34.044239       926.3908 
 364   0.0000      41.216558      1121.5596 
 365   0.0000      58.908677      1602.9866 
 366   0.0000      58.908678      1602.9866 
 367   0.0000      59.154807      1609.6841 
 368   0.0000      59.154807      1609.6841 
 369   0.0000      59.745082      1625.7463 
 370   0.0000      74.941266      2039.2555 
 371   0.0000      91.102170      2479.0161 
 372   0.0000      91.102170      2479.0161 
 373   0.0000      92.444835      2515.5519 

                 SPIN DOWN ORBITALS
  NO   OCC          E(Eh)            E(eV) 
   0   1.0000     -76.288343     -2075.9113 
   1   1.0000      -9.922814      -270.0135 
   2   1.0000      -6.309709      -171.6959 
   3   1.0000      -4.525418      -123.1429 
   4   1.0000      -4.525418      -123.1429 
   5   1.0000      -4.521237      -123.0291 
   6   1.0000      -0.650601       -17.7037 
   7   1.0000      -0.494458       -13.4549 
   8   1.0000      -0.325608        -8.8602 
   9   1.0000      -0.259243        -7.0543 
  10   1.0000      -0.259243        -7.0543 
  11   0.0000      -0.088843        -2.4175 
  12   0.0000      -0.088843        -2.4175 
  13   0.0000      -0.009953        -0.2708 
  14   0.0000       0.001081         0.0294 
  15   0.0000       0.016065         0.4371 
  16   0.0000       0.016065         0.4371 
  17   0.0000       0.024870         0.6767 
  18   0.0000       0.037165         1.0113 
  19   0.0000       0.037165         1.0113 
  20   0.0000       0.040293         1.0964 
  21   0.0000       0.049382         1.3438 
  22   0.0000       0.063330         1.7233 
  23   0.0000       0.063330         1.7233 
  24   0.0000       0.065854         1.7920 
  25   0.0000       0.079712         2.1691 
  26   0.0000       0.079712         2.1691 
  27   0.0000       0.081442         2.2162 
  28   0.0000       0.106173         2.8891 
  29   0.0000       0.106173         2.8891 
  30   0.0000       0.109666         2.9842 
  31   0.0000       0.109666         2.9842 
  32   0.0000       0.119406         3.2492 
  33   0.0000       0.119406         3.2492 
  34   0.0000       0.128825         3.5055 
  35   0.0000       0.143417         3.9026 
  36   0.0000       0.151603         4.1253 
  37   0.0000       0.159036         4.3276 
  38   0.0000       0.169797         4.6204 
  39   0.0000       0.169797         4.6204 
  40   0.0000       0.174112         4.7378 
  41   0.0000       0.174112         4.7378 
  42   0.0000       0.181070         4.9272 
  43   0.0000       0.181070         4.9272 
  44   0.0000       0.187306         5.0969 
  45   0.0000       0.214325         5.8321 
  46   0.0000       0.214325         5.8321 
  47   0.0000       0.219361         5.9691 
  48   0.0000       0.219361         5.9691 
  49   0.0000       0.234595         6.3837 
  50   0.0000       0.234595         6.3837 
  51   0.0000       0.238979         6.5029 
  52   0.0000       0.238979         6.5029 
  53   0.0000       0.265445         7.2231 
  54   0.0000       0.266119         7.2415 
  55   0.0000       0.266119         7.2415 
  56   0.0000       0.267256         7.2724 
  57   0.0000       0.267256         7.2724 
  58   0.0000       0.279979         7.6186 
  59   0.0000       0.290140         7.8951 
  60   0.0000       0.290140         7.8951 
  61   0.0000       0.303984         8.2718 
  62   0.0000       0.310817         8.4578 
  63   0.0000       0.310817         8.4578 
  64   0.0000       0.320163         8.7121 
  65   0.0000       0.341775         9.3002 
  66   0.0000       0.357955         9.7404 
  67   0.0000       0.357955         9.7404 
  68   0.0000       0.370308        10.0766 
  69   0.0000       0.370308        10.0766 
  70   0.0000       0.377738        10.2788 
  71   0.0000       0.377738        10.2788 
  72   0.0000       0.389070        10.5871 
  73   0.0000       0.389070        10.5871 
  74   0.0000       0.401009        10.9120 
  75   0.0000       0.401009        10.9120 
  76   0.0000       0.402751        10.9594 
  77   0.0000       0.420878        11.4527 
  78   0.0000       0.420878        11.4527 
  79   0.0000       0.438064        11.9203 
  80   0.0000       0.438064        11.9203 
  81   0.0000       0.448521        12.2049 
  82   0.0000       0.450739        12.2652 
  83   0.0000       0.450739        12.2652 
  84   0.0000       0.456343        12.4177 
  85   0.0000       0.456343        12.4177 
  86   0.0000       0.485185        13.2026 
  87   0.0000       0.485185        13.2026 
  88   0.0000       0.485547        13.2124 
  89   0.0000       0.485547        13.2124 
  90   0.0000       0.498065        13.5530 
  91   0.0000       0.498065        13.5530 
  92   0.0000       0.512592        13.9483 
  93   0.0000       0.526026        14.3139 
  94   0.0000       0.533782        14.5249 
  95   0.0000       0.533782        14.5249 
  96   0.0000       0.534023        14.5315 
  97   0.0000       0.536429        14.5970 
  98   0.0000       0.536429        14.5970 
  99   0.0000       0.559655        15.2290 
 100   0.0000       0.559655        15.2290 
 101   0.0000       0.581848        15.8329 
 102   0.0000       0.581849        15.8329 
 103   0.0000       0.586448        15.9580 
 104   0.0000       0.586448        15.9580 
 105   0.0000       0.600346        16.3362 
 106   0.0000       0.607242        16.5239 
 107   0.0000       0.607242        16.5239 
 108   0.0000       0.612111        16.6564 
 109   0.0000       0.641517        17.4566 
 110   0.0000       0.641517        17.4566 
 111   0.0000       0.648265        17.6402 
 112   0.0000       0.648265        17.6402 
 113   0.0000       0.662273        18.0214 
 114   0.0000       0.663783        18.0624 
 115   0.0000       0.663783        18.0624 
 116   0.0000       0.701136        19.0789 
 117   0.0000       0.701137        19.0789 
 118   0.0000       0.703031        19.1305 
 119   0.0000       0.703031        19.1305 
 120   0.0000       0.723207        19.6795 
 121   0.0000       0.723207        19.6795 
 122   0.0000       0.733143        19.9498 
 123   0.0000       0.733143        19.9498 
 124   0.0000       0.759934        20.6788 
 125   0.0000       0.759934        20.6788 
 126   0.0000       0.765154        20.8209 
 127   0.0000       0.765154        20.8209 
 128   0.0000       0.777055        21.1448 
 129   0.0000       0.777056        21.1448 
 130   0.0000       0.786270        21.3955 
 131   0.0000       0.812448        22.1078 
 132   0.0000       0.812448        22.1078 
 133   0.0000       0.826896        22.5010 
 134   0.0000       0.844730        22.9863 
 135   0.0000       0.844730        22.9863 
 136   0.0000       0.872253        23.7352 
 137   0.0000       0.913822        24.8664 
 138   0.0000       0.913823        24.8664 
 139   0.0000       0.928856        25.2754 
 140   0.0000       0.936196        25.4752 
 141   0.0000       0.966190        26.2914 
 142   0.0000       0.966190        26.2914 
 143   0.0000       1.006617        27.3914 
 144   0.0000       1.006656        27.3925 
 145   0.0000       1.006656        27.3925 
 146   0.0000       1.081207        29.4211 
 147   0.0000       1.081207        29.4211 
 148   0.0000       1.091684        29.7062 
 149   0.0000       1.105398        30.0794 
 150   0.0000       1.105398        30.0794 
 151   0.0000       1.135256        30.8919 
 152   0.0000       1.135256        30.8919 
 153   0.0000       1.170263        31.8445 
 154   0.0000       1.207239        32.8506 
 155   0.0000       1.207239        32.8506 
 156   0.0000       1.251923        34.0665 
 157   0.0000       1.251923        34.0665 
 158   0.0000       1.296759        35.2866 
 159   0.0000       1.320815        35.9412 
 160   0.0000       1.320815        35.9412 
 161   0.0000       1.346174        36.6313 
 162   0.0000       1.346174        36.6313 
 163   0.0000       1.448906        39.4267 
 164   0.0000       1.511509        41.1303 
 165   0.0000       1.511509        41.1303 
 166   0.0000       1.541335        41.9419 
 167   0.0000       1.541335        41.9419 
 168   0.0000       1.546607        42.0853 
 169   0.0000       1.616483        43.9867 
 170   0.0000       1.655006        45.0350 
 171   0.0000       1.655007        45.0350 
 172   0.0000       1.683397        45.8076 
 173   0.0000       1.884230        51.2725 
 174   0.0000       1.884230        51.2725 
 175   0.0000       1.891467        51.4694 
 176   0.0000       1.891467        51.4694 
 177   0.0000       1.959787        53.3285 
 178   0.0000       2.071411        56.3660 
 179   0.0000       2.071411        56.3660 
 180   0.0000       2.090640        56.8892 
 181   0.0000       2.090640        56.8892 
 182   0.0000       2.169796        59.0431 
 183   0.0000       2.218594        60.3710 
 184   0.0000       2.218594        60.3710 
 185   0.0000       2.277844        61.9833 
 186   0.0000       2.277844        61.9833 
 187   0.0000       2.284270        62.1582 
 188   0.0000       2.284270        62.1582 
 189   0.0000       2.338064        63.6220 
 190   0.0000       2.338064        63.6220 
 191   0.0000       2.446776        66.5801 
 192   0.0000       2.463362        67.0315 
 193   0.0000       2.499771        68.0222 
 194   0.0000       2.499771        68.0222 
 195   0.0000       2.640673        71.8564 
 196   0.0000       2.765982        75.2662 
 197   0.0000       2.765982        75.2662 
 198   0.0000       2.768146        75.3251 
 199   0.0000       2.768146        75.3251 
 200   0.0000       2.829017        76.9815 
 201   0.0000       2.843689        77.3807 
 202   0.0000       2.843690        77.3807 
 203   0.0000       2.893258        78.7295 
 204   0.0000       2.893258        78.7295 
 205   0.0000       2.987202        81.2859 
 206   0.0000       3.118987        84.8719 
 207   0.0000       3.118987        84.8719 
 208   0.0000       3.198961        87.0482 
 209   0.0000       3.203421        87.1695 
 210   0.0000       3.203421        87.1695 
 211   0.0000       3.243974        88.2730 
 212   0.0000       3.243974        88.2730 
 213   0.0000       3.315622        90.2227 
 214   0.0000       3.515868        95.6716 
 215   0.0000       3.515868        95.6716 
 216   0.0000       3.519190        95.7620 
 217   0.0000       3.606083        98.1265 
 218   0.0000       3.606083        98.1265 
 219   0.0000       3.782943       102.9391 
 220   0.0000       3.782943       102.9391 
 221   0.0000       4.003579       108.9429 
 222   0.0000       4.007869       109.0597 
 223   0.0000       4.007870       109.0597 
 224   0.0000       4.018767       109.3562 
 225   0.0000       4.018767       109.3562 
 226   0.0000       4.129374       112.3660 
 227   0.0000       4.129374       112.3660 
 228   0.0000       4.162420       113.2652 
 229   0.0000       4.162420       113.2652 
 230   0.0000       4.322881       117.6316 
 231   0.0000       4.322881       117.6316 
 232   0.0000       4.380362       119.1957 
 233   0.0000       4.393443       119.5516 
 234   0.0000       4.393443       119.5516 
 235   0.0000       4.506688       122.6332 
 236   0.0000       4.506688       122.6332 
 237   0.0000       4.670395       127.0879 
 238   0.0000       4.721177       128.4698 
 239   0.0000       4.721177       128.4698 
 240   0.0000       4.739607       128.9713 
 241   0.0000       4.739608       128.9713 
 242   0.0000       4.770217       129.8042 
 243   0.0000       4.770217       129.8042 
 244   0.0000       4.835473       131.5799 
 245   0.0000       4.835473       131.5799 
 246   0.0000       4.890501       133.0773 
 247   0.0000       5.054095       137.5289 
 248   0.0000       5.316727       144.6755 
 249   0.0000       5.316727       144.6755 
 250   0.0000       5.350580       145.5967 
 251   0.0000       5.350580       145.5967 
 252   0.0000       5.370829       146.1477 
 253   0.0000       5.370829       146.1477 
 254   0.0000       5.495471       149.5394 
 255   0.0000       5.496341       149.5630 
 256   0.0000       5.496342       149.5631 
 257   0.0000       5.654155       153.8574 
 258   0.0000       5.997185       163.1917 
 259   0.0000       5.997185       163.1917 
 260   0.0000       6.215636       169.1361 
 261   0.0000       6.215636       169.1361 
 262   0.0000       6.228015       169.4729 
 263   0.0000       6.458290       175.7390 
 264   0.0000       6.458290       175.7390 
 265   0.0000       6.539400       177.9461 
 266   0.0000       6.539400       177.9461 
 267   0.0000       6.926537       188.4807 
 268   0.0000       6.926537       188.4807 
 269   0.0000       6.976568       189.8421 
 270   0.0000       7.238796       196.9777 
 271   0.0000       7.326229       199.3568 
 272   0.0000       7.326231       199.3569 
 273   0.0000       7.331886       199.5108 
 274   0.0000       7.340862       199.7550 
 275   0.0000       7.340862       199.7550 
 276   0.0000       7.603404       206.8991 
 277   0.0000       7.603405       206.8992 
 278   0.0000       8.315126       226.2661 
 279   0.0000       8.331505       226.7118 
 280   0.0000       8.331505       226.7118 
 281   0.0000       8.692961       236.5475 
 282   0.0000       8.755541       238.2504 
 283   0.0000       8.755541       238.2504 
 284   0.0000       8.765377       238.5180 
 285   0.0000       8.765377       238.5180 
 286   0.0000       9.567376       260.3415 
 287   0.0000       9.713800       264.3259 
 288   0.0000       9.713800       264.3259 
 289   0.0000      10.235356       278.5182 
 290   0.0000      10.235356       278.5182 
 291   0.0000      10.296763       280.1892 
 292   0.0000      10.296763       280.1892 
 293   0.0000      10.305905       280.4379 
 294   0.0000      10.305907       280.4380 
 295   0.0000      10.454128       284.4713 
 296   0.0000      10.454129       284.4713 
 297   0.0000      10.763201       292.8816 
 298   0.0000      10.763201       292.8816 
 299   0.0000      10.775939       293.2282 
 300   0.0000      10.775939       293.2282 
 301   0.0000      10.790222       293.6169 
 302   0.0000      10.794928       293.7449 
 303   0.0000      10.794928       293.7449 
 304   0.0000      10.951858       298.0152 
 305   0.0000      10.951858       298.0152 
 306   0.0000      11.232930       305.6636 
 307   0.0000      11.306092       307.6544 
 308   0.0000      11.306092       307.6544 
 309   0.0000      11.476640       312.2952 
 310   0.0000      11.476640       312.2952 
 311   0.0000      11.557893       314.5063 
 312   0.0000      11.557894       314.5063 
 313   0.0000      11.702936       318.4531 
 314   0.0000      11.735650       319.3433 
 315   0.0000      11.735650       319.3433 
 316   0.0000      11.827180       321.8339 
 317   0.0000      11.827180       321.8339 
 318   0.0000      11.871967       323.0526 
 319   0.0000      11.871967       323.0526 
 320   0.0000      12.150010       330.6186 
 321   0.0000      12.376788       336.7895 
 322   0.0000      12.376788       336.7895 
 323   0.0000      12.545517       341.3809 
 324   0.0000      12.545517       341.3809 
 325   0.0000      12.552944       341.5830 
 326   0.0000      12.552944       341.5830 
 327   0.0000      12.563889       341.8808 
 328   0.0000      13.477831       366.7504 
 329   0.0000      13.519058       367.8723 
 330   0.0000      13.519058       367.8723 
 331   0.0000      13.537445       368.3726 
 332   0.0000      13.537446       368.3726 
 333   0.0000      14.759729       401.6326 
 334   0.0000      15.654321       425.9757 
 335   0.0000      15.654321       425.9757 
 336   0.0000      16.169892       440.0051 
 337   0.0000      16.169893       440.0052 
 338   0.0000      16.284231       443.1164 
 339   0.0000      16.707767       454.6415 
 340   0.0000      16.707767       454.6415 
 341   0.0000      16.750824       455.8131 
 342   0.0000      16.750824       455.8131 
 343   0.0000      17.010970       462.8920 
 344   0.0000      17.131188       466.1633 
 345   0.0000      17.131188       466.1633 
 346   0.0000      17.765047       483.4115 
 347   0.0000      18.177372       494.6315 
 348   0.0000      18.177372       494.6315 
 349   0.0000      18.673670       508.1364 
 350   0.0000      18.673670       508.1364 
 351   0.0000      20.312885       552.7417 
 352   0.0000      20.505982       557.9961 
 353   0.0000      20.505982       557.9961 
 354   0.0000      21.420783       582.8891 
 355   0.0000      23.614658       642.5875 
 356   0.0000      23.614658       642.5875 
 357   0.0000      25.172733       684.9849 
 358   0.0000      25.736284       700.3199 
 359   0.0000      31.893148       867.8567 
 360   0.0000      31.893150       867.8567 
 361   0.0000      32.239474       877.2807 
 362   0.0000      32.239474       877.2807 
 363   0.0000      34.044239       926.3908 
 364   0.0000      41.216558      1121.5596 
 365   0.0000      58.908677      1602.9866 
 366   0.0000      58.908678      1602.9866 
 367   0.0000      59.154807      1609.6841 
 368   0.0000      59.154807      1609.6841 
 369   0.0000      59.745082      1625.7463 
 370   0.0000      74.941266      2039.2555 
 371   0.0000      91.102170      2479.0161 
 372   0.0000      91.102170      2479.0161 
 373   0.0000      92.444835      2515.5519 

                    ********************************
                    * MULLIKEN POPULATION ANALYSIS *
                    ********************************

--------------------------------------------
MULLIKEN ATOMIC CHARGES AND SPIN POPULATIONS
--------------------------------------------
   0 C :    0.179783    0.000000
   1 H :   -0.147869    0.000000
   2 P :   -0.031915   -0.000000
Sum of atomic charges         :    0.0000000
Sum of atomic spin populations:   -0.0000000

-----------------------------------------------------
MULLIKEN REDUCED ORBITAL CHARGES AND SPIN POPULATIONS
-----------------------------------------------------
CHARGE
  0 C s       :     3.234827  s :     3.234827
      pz      :     0.869416  p :     2.553262
      px      :     0.841923
      py      :     0.841923
      dz2     :     0.002746  d :     0.010960
      dxz     :     0.004107
      dyz     :     0.004107
      dx2y2   :     0.000000
      dxy     :    -0.000000
      f0      :    -0.000838  f :     0.018659
      f+1     :     0.009749
      f-1     :     0.009749
      f+2     :     0.000000
      f-2     :     0.000000
      f+3     :     0.000000
      f-3     :     0.000000
      g0      :     0.000014  g :     0.002905
      g+1     :     0.001446
      g-1     :     0.001446
      g+2     :     0.000000
      g-2     :     0.000000
      g+3     :     0.000000
      g-3     :     0.000000
      g+4     :     0.000000
      g-4     :     0.000000
      h0      :    -0.000057  h :    -0.000398
      h+1     :    -0.000170
      h-1     :    -0.000170
      h+2     :    -0.000000
      h-2     :    -0.000000
      h+3     :     0.000000
      h-3     :     0.000000
      h+4     :     0.000000
      h-4     :    -0.000000
      h+5     :     0.000000
      h-5     :     0.000000
  1 H s       :     0.842728  s :     0.842728
      pz      :     0.007332  p :     0.161301
      px      :     0.076985
      py      :     0.076985
      dz2     :    -0.001117  d :     0.103581
      dxz     :     0.052349
      dyz     :     0.052349
      dx2y2   :    -0.000000
      dxy     :     0.000000
      f0      :     0.000588  f :     0.035877
      f+1     :     0.017644
      f-1     :     0.017644
      f+2     :     0.000000
      f-2     :     0.000000
      f+3     :    -0.000000
      f-3     :    -0.000000
      g0      :     0.000030  g :     0.004382
      g+1     :     0.002176
      g-1     :     0.002176
      g+2     :    -0.000000
      g-2     :    -0.000000
      g+3     :     0.000000
      g-3     :     0.000000
      g+4     :     0.000000
      g-4     :     0.000000
  2 P s       :     5.920145  s :     5.920145
      pz      :     3.066158  p :     8.956849
      px      :     2.945346
      py      :     2.945346
      dz2     :     0.051487  d :     0.138583
      dxz     :     0.043548
      dyz     :     0.043548
      dx2y2   :    -0.000000
      dxy     :    -0.000000
      f0      :     0.005102  f :     0.015061
      f+1     :     0.004980
      f-1     :     0.004980
      f+2     :    -0.000000
      f-2     :    -0.000000
      f+3     :     0.000000
      f-3     :     0.000000
      g0      :     0.001225  g :     0.001379
      g+1     :     0.000077
      g-1     :     0.000077
      g+2     :     0.000000
      g-2     :     0.000000
      g+3     :     0.000000
      g-3     :     0.000000
      g+4     :     0.000000
      g-4     :     0.000000
      h0      :     0.000215  h :    -0.000104
      h+1     :    -0.000159
      h-1     :    -0.000159
      h+2     :     0.000000
      h-2     :     0.000000
      h+3     :     0.000000
      h-3     :     0.000000
      h+4     :     0.000000
      h-4     :    -0.000000
      h+5     :     0.000000
      h-5     :     0.000000

SPIN
  0 C s       :    -0.000000  s :    -0.000000
      pz      :     0.000000  p :     0.000000
      px      :    -0.000000
      py      :     0.000000
      dz2     :    -0.000000  d :    -0.000000
      dxz     :    -0.000000
      dyz     :     0.000000
      dx2y2   :     0.000000
      dxy     :     0.000000
      f0      :    -0.000000  f :    -0.000000
      f+1     :     0.000000
      f-1     :    -0.000000
      f+2     :     0.000000
      f-2     :     0.000000
      f+3     :    -0.000000
      f-3     :     0.000000
      g0      :    -0.000000  g :    -0.000000
      g+1     :     0.000000
      g-1     :    -0.000000
      g+2     :    -0.000000
      g-2     :    -0.000000
      g+3     :     0.000000
      g-3     :    -0.000000
      g+4     :    -0.000000
      g-4     :     0.000000
      h0      :     0.000000  h :     0.000000
      h+1     :    -0.000000
      h-1     :     0.000000
      h+2     :     0.000000
      h-2     :     0.000000
      h+3     :     0.000000
      h-3     :    -0.000000
      h+4     :    -0.000000
      h-4     :     0.000000
      h+5     :    -0.000000
      h-5     :     0.000000
  1 H s       :     0.000000  s :     0.000000
      pz      :    -0.000000  p :    -0.000000
      px      :     0.000000
      py      :    -0.000000
      dz2     :    -0.000000  d :    -0.000000
      dxz     :     0.000000
      dyz     :    -0.000000
      dx2y2   :     0.000000
      dxy     :     0.000000
      f0      :    -0.000000  f :    -0.000000
      f+1     :     0.000000
      f-1     :    -0.000000
      f+2     :    -0.000000
      f-2     :    -0.000000
      f+3     :     0.000000
      f-3     :    -0.000000
      g0      :    -0.000000  g :    -0.000000
      g+1     :     0.000000
      g-1     :    -0.000000
      g+2     :    -0.000000
      g-2     :    -0.000000
      g+3     :    -0.000000
      g-3     :     0.000000
      g+4     :    -0.000000
      g-4     :    -0.000000
  2 P s       :    -0.000000  s :    -0.000000
      pz      :    -0.000000  p :    -0.000000
      px      :     0.000000
      py      :    -0.000000
      dz2     :    -0.000000  d :    -0.000000
      dxz     :     0.000000
      dyz     :    -0.000000
      dx2y2   :    -0.000000
      dxy     :    -0.000000
      f0      :    -0.000000  f :    -0.000000
      f+1     :     0.000000
      f-1     :    -0.000000
      f+2     :     0.000000
      f-2     :     0.000000
      f+3     :     0.000000
      f-3     :    -0.000000
      g0      :    -0.000000  g :    -0.000000
      g+1     :     0.000000
      g-1     :     0.000000
      g+2     :     0.000000
      g-2     :     0.000000
      g+3     :     0.000000
      g-3     :    -0.000000
      g+4     :     0.000000
      g-4     :    -0.000000
      h0      :    -0.000000  h :    -0.000000
      h+1     :    -0.000000
      h-1     :     0.000000
      h+2     :    -0.000000
      h-2     :     0.000000
      h+3     :    -0.000000
      h-3     :     0.000000
      h+4     :    -0.000000
      h-4     :     0.000000
      h+5     :    -0.000000
      h-5     :     0.000000


                     *******************************
                     * LOEWDIN POPULATION ANALYSIS *
                     *******************************

-------------------------------------------
LOEWDIN ATOMIC CHARGES AND SPIN POPULATIONS
-------------------------------------------
   0 C :   -0.206280    0.000000
   1 H :   -0.863344    0.000000
   2 P :    1.069624   -0.000000

----------------------------------------------------
LOEWDIN REDUCED ORBITAL CHARGES AND SPIN POPULATIONS
----------------------------------------------------
CHARGE
  0 C s       :     2.824027  s :     2.824027
      pz      :     1.245260  p :     2.770619
      px      :     0.762680
      py      :     0.762680
      dz2     :     0.233280  d :     0.418953
      dxz     :     0.092836
      dyz     :     0.092836
      dx2y2   :     0.000000
      dxy     :     0.000000
      f0      :     0.072494  f :     0.128431
      f+1     :     0.027969
      f-1     :     0.027969
      f+2     :     0.000000
      f-2     :     0.000000
      f+3     :     0.000000
      f-3     :     0.000000
      g0      :     0.026681  g :     0.047416
      g+1     :     0.010367
      g-1     :     0.010367
      g+2     :     0.000000
      g-2     :     0.000000
      g+3     :     0.000000
      g-3     :     0.000000
      g+4     :     0.000000
      g-4     :     0.000000
      h0      :     0.006273  h :     0.016834
      h+1     :     0.005280
      h-1     :     0.005280
      h+2     :     0.000000
      h-2     :     0.000000
      h+3     :     0.000000
      h-3     :     0.000000
      h+4     :     0.000000
      h-4     :     0.000000
      h+5     :     0.000000
      h-5     :     0.000000
  1 H s       :     0.805545  s :     0.805545
      pz      :     0.230937  p :     0.440966
      px      :     0.105015
      py      :     0.105015
      dz2     :     0.124103  d :     0.330163
      dxz     :     0.103030
      dyz     :     0.103030
      dx2y2   :     0.000000
      dxy     :     0.000000
      f0      :     0.067615  f :     0.181947
      f+1     :     0.057166
      f-1     :     0.057166
      f+2     :     0.000000
      f-2     :     0.000000
      f+3     :     0.000000
      f-3     :     0.000000
      g0      :     0.035611  g :     0.104722
      g+1     :     0.034556
      g-1     :     0.034556
      g+2     :     0.000000
      g-2     :     0.000000
      g+3     :     0.000000
      g-3     :     0.000000
      g+4     :     0.000000
      g-4     :     0.000000
  2 P s       :     5.003023  s :     5.003023
      pz      :     3.073733  p :     8.482798
      px      :     2.704532
      py      :     2.704532
      dz2     :     0.156291  d :     0.272163
      dxz     :     0.057936
      dyz     :     0.057936
      dx2y2   :     0.000000
      dxy     :     0.000000
      f0      :     0.053644  f :     0.099914
      f+1     :     0.023135
      f-1     :     0.023135
      f+2     :     0.000000
      f-2     :     0.000000
      f+3     :     0.000000
      f-3     :     0.000000
      g0      :     0.027970  g :     0.051523
      g+1     :     0.011776
      g-1     :     0.011776
      g+2     :     0.000000
      g-2     :     0.000000
      g+3     :     0.000000
      g-3     :     0.000000
      g+4     :     0.000000
      g-4     :     0.000000
      h0      :     0.013512  h :     0.020955
      h+1     :     0.003721
      h-1     :     0.003721
      h+2     :     0.000000
      h-2     :     0.000000
      h+3     :     0.000000
      h-3     :     0.000000
      h+4     :     0.000000
      h-4     :     0.000000
      h+5     :     0.000000
      h-5     :     0.000000

SPIN
  0 C s       :     0.000000  s :     0.000000
      pz      :     0.000000  p :     0.000000
      px      :     0.000000
      py      :     0.000000
      dz2     :    -0.000000  d :    -0.000000
      dxz     :    -0.000000
      dyz     :    -0.000000
      dx2y2   :    -0.000000
      dxy     :     0.000000
      f0      :     0.000000  f :     0.000000
      f+1     :    -0.000000
      f-1     :    -0.000000
      f+2     :    -0.000000
      f-2     :     0.000000
      f+3     :     0.000000
      f-3     :    -0.000000
      g0      :    -0.000000  g :    -0.000000
      g+1     :    -0.000000
      g-1     :    -0.000000
      g+2     :    -0.000000
      g-2     :    -0.000000
      g+3     :     0.000000
      g-3     :    -0.000000
      g+4     :    -0.000000
      g-4     :     0.000000
      h0      :    -0.000000  h :    -0.000000
      h+1     :    -0.000000
      h-1     :    -0.000000
      h+2     :     0.000000
      h-2     :    -0.000000
      h+3     :     0.000000
      h-3     :     0.000000
      h+4     :    -0.000000
      h-4     :     0.000000
      h+5     :    -0.000000
      h-5     :     0.000000
  1 H s       :    -0.000000  s :    -0.000000
      pz      :     0.000000  p :     0.000000
      px      :     0.000000
      py      :     0.000000
      dz2     :    -0.000000  d :    -0.000000
      dxz     :     0.000000
      dyz     :    -0.000000
      dx2y2   :     0.000000
      dxy     :     0.000000
      f0      :    -0.000000  f :     0.000000
      f+1     :     0.000000
      f-1     :    -0.000000
      f+2     :    -0.000000
      f-2     :     0.000000
      f+3     :     0.000000
      f-3     :    -0.000000
      g0      :    -0.000000  g :    -0.000000
      g+1     :     0.000000
      g-1     :    -0.000000
      g+2     :     0.000000
      g-2     :    -0.000000
      g+3     :    -0.000000
      g-3     :     0.000000
      g+4     :    -0.000000
      g-4     :     0.000000
  2 P s       :    -0.000000  s :    -0.000000
      pz      :    -0.000000  p :    -0.000000
      px      :    -0.000000
      py      :     0.000000
      dz2     :    -0.000000  d :    -0.000000
      dxz     :     0.000000
      dyz     :     0.000000
      dx2y2   :    -0.000000
      dxy     :     0.000000
      f0      :     0.000000  f :     0.000000
      f+1     :     0.000000
      f-1     :     0.000000
      f+2     :    -0.000000
      f-2     :    -0.000000
      f+3     :     0.000000
      f-3     :    -0.000000
      g0      :     0.000000  g :     0.000000
      g+1     :    -0.000000
      g-1     :     0.000000
      g+2     :     0.000000
      g-2     :    -0.000000
      g+3     :     0.000000
      g-3     :    -0.000000
      g+4     :     0.000000
      g-4     :    -0.000000
      h0      :     0.000000  h :     0.000000
      h+1     :    -0.000000
      h-1     :    -0.000000
      h+2     :    -0.000000
      h-2     :    -0.000000
      h+3     :    -0.000000
      h-3     :    -0.000000
      h+4     :    -0.000000
      h-4     :     0.000000
      h+5     :    -0.000000
      h-5     :     0.000000


                      *****************************
                      * MAYER POPULATION ANALYSIS *
                      *****************************

  NA   - Mulliken gross atomic population
  ZA   - Total nuclear charge
  QA   - Mulliken gross atomic charge
  VA   - Mayer's total valence
  BVA  - Mayer's bonded valence
  FA   - Mayer's free valence

  ATOM       NA         ZA         QA         VA         BVA        FA
  0 C      5.8202     6.0000     0.1798     3.7282     3.7282     0.0000
  1 H      1.1479     1.0000    -0.1479     1.4419     1.4419    -0.0000
  2 P     15.0319    15.0000    -0.0319     2.8762     2.8762     0.0000

  Mayer bond orders larger than 0.1
B(  0-C ,  1-H ) :   1.1470 B(  0-C ,  2-P ) :   2.5813 B(  1-H ,  2-P ) :   0.2949 


-------
TIMINGS
-------

Total SCF time: 0 days 1 hours 36 min 45 sec 

Total time                  ....    5805.354 sec
Sum of individual times     ....    5804.334 sec  (100.0%)

Fock matrix formation       ....    5793.583 sec  ( 99.8%)
  XC integration            ....     169.235 sec  (  2.9% of F)
    Basis function eval.    ....      12.771 sec  (  7.5% of XC)
    Density eval.           ....      39.263 sec  ( 23.2% of XC)
    XC-Functional eval.     ....       1.712 sec  (  1.0% of XC)
    XC-Potential eval.      ....     113.798 sec  ( 67.2% of XC)
Diagonalization             ....       1.773 sec  (  0.0%)
Density matrix formation    ....       0.039 sec  (  0.0%)
Population analysis         ....       0.120 sec  (  0.0%)
Initial guess               ....       5.337 sec  (  0.1%)
Orbital Transformation      ....       0.000 sec  (  0.0%)
Orbital Orthonormalization  ....       0.000 sec  (  0.0%)
DIIS solution               ....       0.978 sec  (  0.0%)
Grid generation             ....       2.504 sec  (  0.0%)

-------------------------   --------------------
FINAL SINGLE POINT ENERGY      -379.827253484425
-------------------------   --------------------


                            ***************************************
                            *     ORCA property calculations      *
                            ***************************************

                                    ---------------------
                                    Active property flags
                                    ---------------------
   (+) Dipole Moment
   (+) Polarizability


------------------------------------------------------------------------------
                       ORCA ELECTRIC PROPERTIES CALCULATION
------------------------------------------------------------------------------

Dipole Moment Calculation                       ... on
Quadrupole Moment Calculation                   ... off
Polarizability Calculation                      ... Analytic (CP-SCF)
GBWName                                         ... hcp_pbe.gbw
Electron density file                           ... hcp_pbe.scfp.tmp
The origin for moment calculation is the CENTER OF MASS  = ( 0.000000,  0.000000 -2.005420)

-------------
DIPOLE MOMENT
-------------
                                X             Y             Z
Electronic contribution:      0.00000       0.00000      -2.28025
Nuclear contribution   :      0.00000       0.00000       2.42622
                        -----------------------------------------
Total Dipole Moment    :      0.00000       0.00000       0.14597
                        -----------------------------------------
Magnitude (a.u.)       :      0.14597
Magnitude (Debye)      :      0.37103



--------------------
Rotational spectrum 
--------------------
 
Rotational constants in cm-1:     0.000000     0.667581     0.667581 
Rotational constants in MHz :     0.000000 20013.586783 20013.586783 

 Dipole components along the rotational axes: 
x,y,z [a.u.] :     0.145971     0.000000     0.000000 
x,y,z [Debye]:     0.371029     0.000000     0.000000 

 
Transforming and storing MO dipole integrals   ... done

                ... starting polarizability calculation

Opening the Dipole integral file               ... (hcp_pbe.dmo.tmp) done
Reading Dipole-MO integrals                    ... done
Solving CP-SCF equations                       ... 
------------------------------------------------------------------------------
                           ORCA CP-SCF CALCULATION
------------------------------------------------------------------------------

Input orbitals are from        ... hcp_pbe.gbw
Input Perturbation             ... hcp_pbe.cpv.tmp
Wavefunction output            ... hcp_pbe.cpu.tmp
Perturbation mode              ... Real perturbation (singlet)
Solver                         ... POPLE
Max. number of iterations      ... 200
Convergence tolerance          ... 1.000e-06
Integral handling              ... Direct
Number of perturbations        ... 3
Number of operators            ... 2
Orbital ranges used for CP-SCF:
 Operator 0:  Orbitals   0... 10  to  11...373
 Operator 1:  Orbitals   0... 10  to  11...373
DFT calculation                         ... on
Exchange functional (SCF)               ... PBE
Exchange functional (CP-SCF)            ... PBE
   PBE kappa parameter  XKappa (SCF)    ...  0.804000
   PBE kappa parameter  XKappa (CP-SCF) ...  0.804000
   PBE mue parameter   XMuePBE (SCF)    ...  0.219520
   PBE mue parameter   XMuePBE (CP-SCF) ...  0.219520
Correlation functional (SCF)            ... PBE
Correlation functional (CP-SCF)         ... PBE
   PBE beta parameter CBetaPBE (SCF)    ...  0.066725
   PBE beta parameter CBetaPBE (CP-SCF) ...  0.066725
 LDA part of GGA corr.  LDAOpt (SCF)    ... PW91-LDA
 LDA part of GGA corr.  LDAOpt (CP-SCF) ... PW91-LDA
Variables per vector in CP-SCF ... 7986
Number of vectors sought       ... 3
Recalculating density on grid  ... done
Calculating the xc-kernel      ... done
     CP-SCF ITERATION   0: 
     CP-SCF ITERATION   1:      0.938284872807
     CP-SCF ITERATION   2:      0.045966438005
     CP-SCF ITERATION   3:      0.001145054939
     CP-SCF ITERATION   4:      0.000018824774
     CP-SCF ITERATION   5:      0.000000179748
done
Reading CP-SCF coefficients                    ... done
Doing the polarizability tensor   ... done
Cleaning up                                    ... done

-------------------------
THE POLARIZABILITY TENSOR
-------------------------

The raw cartesian tensor (atomic units):
   31.22731     -0.00000      0.00000  
   -0.00000     31.22731      0.00000  
    0.00000      0.00000     47.99628  
diagonalized tensor: 
   31.22731     31.22731     47.99628  

   -0.75576      0.65485      0.00000  
   -0.65485     -0.75576      0.00000  
    0.00000      0.00000      1.00000  

Isotropic polarizability :  36.81697


Timings for individual modules:

Sum of individual times         ...     8604.160 sec (= 143.403 min)
GTO integral calculation        ...        2.043 sec (=   0.034 min)   0.0 %
SCF iterations                  ...     5805.375 sec (=  96.756 min)  67.5 %
Solution of CP-SCF eqns.        ...     2796.742 sec (=  46.612 min)  32.5 %
                             ****ORCA TERMINATED NORMALLY****
TOTAL RUN TIME: 0 days 2 hours 23 minutes 24 seconds 634 msec
