
                                 *****************
                                 * O   R   C   A *
                                 *****************

           --- An Ab Initio, DFT and Semiempirical electronic structure package ---

                  #######################################################
                  #                        -***-                        #
                  #          Department of theory and spectroscopy      #
                  #               Directorship: Frank Neese             #
                  #        Max Planck Institute fuer Kohlenforschung    #
                  #                Kaiser Wilhelm Platz 1               #
                  #                 D-45470 Muelheim/Ruhr               #
                  #                      Germany                        #
                  #                                                     #
                  #                  All rights reserved                #
                  #                        -***-                        #
                  #######################################################


                         Program Version 4.1.2  - RELEASE  -


 With contributions from (in alphabetic order):
   Daniel Aravena         : Magnetic Properties
   Michael Atanasov       : Ab Initio Ligand Field Theory
   Alexander A. Auer      : GIAO ZORA
   Ute Becker             : Parallelization
   Giovanni Bistoni       : ED, Open-shell LED
   Martin Brehm           : Molecular dynamics
   Dmytro Bykov           : SCF Hessian
   Vijay G. Chilkuri      : MRCI spin determinant printing
   Dipayan Datta          : RHF DLPNO-CCSD density
   Achintya Kumar Dutta   : EOM-CC, STEOM-CC
   Dmitry Ganyushin       : Spin-Orbit,Spin-Spin,Magnetic field MRCI
   Miquel Garcia          : C-PCM Hessian
   Yang Guo               : DLPNO-NEVPT2, CIM, IAO-localization
   Andreas Hansen         : Spin unrestricted coupled pair/coupled cluster methods
   Benjamin Helmich-Paris : CASSCF linear response (MC-RPA)
   Lee Huntington         : MR-EOM, pCC
   Robert Izsak           : Overlap fitted RIJCOSX, COSX-SCS-MP3, EOM
   Christian Kollmar      : KDIIS, OOCD, Brueckner-CCSD(T), CCSD density
   Simone Kossmann        : Meta GGA functionals, TD-DFT gradient, OOMP2, MP2 Hessian
   Martin Krupicka        : AUTO-CI
   Lucas Lang             : DCDCAS
   Dagmar Lenk            : GEPOL surface, SMD
   Dimitrios Liakos       : Extrapolation schemes; parallel MDCI
   Dimitrios Manganas     : ROCIS; embedding schemes
   Dimitrios Pantazis     : SARC Basis sets
   Taras Petrenko         : DFT Hessian,TD-DFT gradient, ASA, ECA, R-Raman, ABS, FL, XAS/XES, NRVS
   Peter Pinski           : DLPNO-MP2, DLPNO-MP2 Gradient
   Christoph Reimann      : Effective Core Potentials
   Marius Retegan         : Local ZFS, SOC
   Christoph Riplinger    : Optimizer, TS searches, QM/MM, DLPNO-CCSD(T), (RO)-DLPNO pert. Triples
   Tobias Risthaus        : Range-separated hybrids, TD-DFT gradient, RPA, STAB
   Michael Roemelt        : Restricted open shell CIS
   Masaaki Saitow         : Open-shell DLPNO
   Barbara Sandhoefer     : DKH picture change effects
   Avijit Sen             : IP-ROCIS
   Kantharuban Sivalingam : CASSCF convergence, NEVPT2, FIC-MRCI
   Bernardo de Souza      : ESD, SOC TD-DFT
   Georgi Stoychev        : AutoAux, RI-MP2 NMR
   Willem Van den Heuvel  : Paramagnetic NMR
   Boris Wezisla          : Elementary symmetry handling
   Frank Wennmohs         : Technical directorship


 We gratefully acknowledge several colleagues who have allowed us to
 interface, adapt or use parts of their codes:
   Stefan Grimme, W. Hujo, H. Kruse,             : VdW corrections, initial TS optimization,
                  C. Bannwarth                     DFT functionals, gCP, sTDA/sTD-DF
   Ed Valeev                                     : LibInt (2-el integral package), F12 methods
   Garnet Chan, S. Sharma, J. Yang, R. Olivares  : DMRG
   Ulf Ekstrom                                   : XCFun DFT Library
   Mihaly Kallay                                 : mrcc  (arbitrary order and MRCC methods)
   Andreas Klamt, Michael Diedenhofen            : otool_cosmo (COSMO solvation model)
   Jiri Pittner, Ondrej Demel                    : Mk-CCSD
   Frank Weinhold                                : gennbo (NPA and NBO analysis)
   Christopher J. Cramer and Donald G. Truhlar   : smd solvation model
   Lars Goerigk                                  : TD-DFT with DH, B97 family of functionals
   V. Asgeirsson, H. Jonsson                     : NEB implementation
   FAccTs GmbH                                   : IRC, NEB, NEB-TS, Multilevel


 Your calculation uses the libint2 library for the computation of 2-el integrals
 For citations please refer to: http://libint.valeyev.net

 This ORCA versions uses:
   CBLAS   interface :  Fast vector & matrix operations
   LAPACKE interface :  Fast linear algebra routines
   SCALAPACK package :  Parallel linear algebra routines


----- Orbital basis set information -----
Your calculation utilizes the basis: aug-pc-4
   H, C-F              : F. Jensen, J. Chem. Phys. 115, 9113 (2001).
                         F. Jensen, J. Chem. Phys. 116, 7372 (2002).
                         F. Jensen, J. Chem. Phys. 117, 9234 (2002).
   Si-Cl               : F. Jensen, T. Helgaker, J. Chem. Phys. 121, 3463 (2004).
   He-B, Ne-Mg, Al, Ar : F. Jensen, J. Phys. Chem. A 111, 11198 (2007).
   K, Ca, Ga-Kr        : F. Jensen, J. Chem. Phys. 136, 094110 (2012).
   Sc-Zn               : F. Jensen, J. Chem. Phys. 138, 014107 (2013).

================================================================================
                                        WARNINGS
                       Please study these warnings very carefully!
================================================================================


INFO   : the flag for use of LIBINT has been found!

================================================================================
                                       INPUT FILE
================================================================================
NAME = hnc_pbe.inp
|  1> !uks pbe nori aug-pc-4 grid7 nofinalgrid verytightscf
|  2> 
|  3> %maxcore 1500
|  4> 
|  5> %pal nprocs 1 end
|  6> 
|  7> %scf
|  8> 	maxiter 200
|  9> end
| 10> %elprop
| 11> 	dipole true
| 12> 	 polar 1
| 13> 	 maxiter 200
| 14> end
| 15> 
| 16> * xyz 0 1
| 17> C 0.0000 0.0000 -0.7405
| 18> N 0.0000 0.0000 0.4321
| 19> H 0.0000 0.0000 1.4183
| 20> *
| 21> 
| 22>                          ****END OF INPUT****
================================================================================

                       ****************************
                       * Single Point Calculation *
                       ****************************

---------------------------------
CARTESIAN COORDINATES (ANGSTROEM)
---------------------------------
  C      0.000000    0.000000   -0.740500
  N      0.000000    0.000000    0.432100
  H      0.000000    0.000000    1.418300

----------------------------
CARTESIAN COORDINATES (A.U.)
----------------------------
  NO LB      ZA    FRAG     MASS         X           Y           Z
   0 C     6.0000    0    12.011    0.000000    0.000000   -1.399342
   1 N     7.0000    0    14.007    0.000000    0.000000    0.816551
   2 H     1.0000    0     1.008    0.000000    0.000000    2.680199

--------------------------------
INTERNAL COORDINATES (ANGSTROEM)
--------------------------------
 C      0   0   0     0.000000000000     0.00000000     0.00000000
 N      1   0   0     1.172600000000     0.00000000     0.00000000
 H      2   1   0     0.986200000000   179.99999879     0.00000000

---------------------------
INTERNAL COORDINATES (A.U.)
---------------------------
 C      0   0   0     0.000000000000     0.00000000     0.00000000
 N      1   0   0     2.215892864636     0.00000000     0.00000000
 H      2   1   0     1.863647913273   179.99999879     0.00000000

---------------------
BASIS SET INFORMATION
---------------------
There are 3 groups of distinct atoms

 Group   1 Type C   : 28s12p7d4f3g2h contracted to 9s8p7d4f3g2h pattern {11101111111/51111111/1111111/1111/111/11}
 Group   2 Type N   : 27s12p7d4f3g2h contracted to 9s8p7d4f3g2h pattern {1191111111/51111111/1111111/1111/111/11}
 Group   3 Type H   : 12s7p4d3f2g contracted to 8s7p4d3f2g pattern {51111111/1111111/1111/111/11}

Atom   0C    basis set group =>   1
Atom   1N    basis set group =>   2
Atom   2H    basis set group =>   3
------------------------------------------------------------------------------
                           ORCA GTO INTEGRAL CALCULATION
------------------------------------------------------------------------------

                         BASIS SET STATISTICS AND STARTUP INFO

 # of primitive gaussian shells          ...  139
 # of primitive gaussian functions       ...  443
 # of contracted shells                  ...   90
 # of contracted basis functions         ...  378
 Highest angular momentum                ...    5
 Maximum contraction depth               ...   11
 Integral package used                   ... LIBINT
 Integral threshhold            Thresh   ...  1.000e-12
 Primitive cut-off              TCut     ...  1.000e-14


------------------------------ INTEGRAL EVALUATION ----------------------------


 * One electron integrals 
 Pre-screening matrix                    ... done
 Shell pair data                         ... done (   0.001 sec)

-------------------------------------------------------------------------------
                                 ORCA SCF
-------------------------------------------------------------------------------

------------
SCF SETTINGS
------------
Hamiltonian:
 Density Functional     Method          .... DFT(GTOs)
 Exchange Functional    Exchange        .... PBE
   PBE kappa parameter   XKappa         ....  0.804000
   PBE mue parameter    XMuePBE         ....  0.219520
 Correlation Functional Correlation     .... PBE
   PBE beta parameter  CBetaPBE         ....  0.066725
 LDA part of GGA corr.  LDAOpt          .... PW91-LDA
 Gradients option       PostSCFGGA      .... off
   Density functional embedding theory  .... OFF
   NL short-range parameter             ....  6.400000


General Settings:
 Integral files         IntName         .... hnc_pbe
 Hartree-Fock type      HFTyp           .... UHF
 Total Charge           Charge          ....    0
 Multiplicity           Mult            ....    1
 Number of Electrons    NEL             ....   14
 Basis Dimension        Dim             ....  378
 Nuclear Repulsion      ENuc            ....     24.1808130051 Eh

Convergence Acceleration:
 DIIS                   CNVDIIS         .... on
   Start iteration      DIISMaxIt       ....    12
   Startup error        DIISStart       ....  0.200000
   # of expansion vecs  DIISMaxEq       ....     5
   Bias factor          DIISBfac        ....   1.050
   Max. coefficient     DIISMaxC        ....  10.000
 Newton-Raphson         CNVNR           .... off
 SOSCF                  CNVSOSCF        .... off
 Level Shifting         CNVShift        .... on
   Level shift para.    LevelShift      ....    0.2500
   Turn off err/grad.   ShiftErr        ....    0.0010
 Zerner damping         CNVZerner       .... off
 Static damping         CNVDamp         .... on
   Fraction old density DampFac         ....    0.7000
   Max. Damping (<1)    DampMax         ....    0.9800
   Min. Damping (>=0)   DampMin         ....    0.0000
   Turn off err/grad.   DampErr         ....    0.1000
 Fernandez-Rico         CNVRico         .... off

SCF Procedure:
 Maximum # iterations   MaxIter         ....   200
 SCF integral mode      SCFMode         .... Direct
   Integral package                     .... LIBINT
 Reset frequency        DirectResetFreq ....    20
 Integral Threshold     Thresh          ....  1.000e-12 Eh
 Primitive CutOff       TCut            ....  1.000e-14 Eh

Convergence Tolerance:
 Convergence Check Mode ConvCheckMode   .... Total+1el-Energy
 Convergence forced     ConvForced      .... 0
 Energy Change          TolE            ....  1.000e-09 Eh
 1-El. energy change                    ....  1.000e-06 Eh
 DIIS Error             TolErr          ....  1.000e-08


Diagonalization of the overlap matrix:
Smallest eigenvalue                        ... 2.401e-07
Time for diagonalization                   ...    0.028 sec
Threshold for overlap eigenvalues          ... 1.000e-08
Number of eigenvalues below threshold      ... 0
Time for construction of square roots      ...    0.019 sec
Total time needed                          ...    0.048 sec

-------------------
DFT GRID GENERATION
-------------------

General Integration Accuracy     IntAcc      ...  5.670
Radial Grid Type                 RadialGrid  ... Gauss-Chebyshev
Angular Grid (max. acc.)         AngularGrid ... Lebedev-770
Angular grid pruning method      GridPruning ... 3 (G Style)
Weight generation scheme         WeightScheme... Becke
Basis function cutoff            BFCut       ...    1.0000e-12
Integration weight cutoff        WCut        ...    1.0000e-14
Grids for H and He will be reduced by one unit

# of grid points (after initial pruning)     ...  67904 (   0.0 sec)
# of grid points (after weights+screening)   ...  67045 (   0.0 sec)
nearest neighbour list constructed           ...    0.0 sec
Grid point re-assignment to atoms done       ...    0.0 sec
Grid point division into batches done        ...    1.4 sec
Reduced shell lists constructed in    2.2 sec

Total number of grid points                  ...    67045
Total number of batches                      ...     1050
Average number of points per batch           ...       63
Average number of grid points per atom       ...    22348
Average number of shells per batch           ...    68.54 (76.16%)
Average number of basis functions per batch  ...   295.55 (78.19%)
Average number of large shells per batch     ...    61.88 (90.27%)
Average number of large basis fcns per batch ...   268.12 (90.72%)
Maximum spatial batch extension              ...  19.86, 19.86, 16.12 au
Average spatial batch extension              ...   2.44,  2.43,  2.05 au

Time for grid setup =    2.201 sec

------------------------------
INITIAL GUESS: MODEL POTENTIAL
------------------------------
Loading Hartree-Fock densities                     ... done
Calculating cut-offs                               ... done
Setting up the integral package                    ... done
Initializing the effective Hamiltonian             ... done
Starting the Coulomb interaction                   ... done (   0.1 sec)
Reading the grid                                   ... done
Mapping shells                                     ... done
Starting the XC term evaluation                    ... done (   4.8 sec)
  promolecular density results
     # of electrons  =     13.999510538
     EX              =    -11.851200482
     EC              =     -0.433370225
     EX+EC           =    -12.284570707
Transforming the Hamiltonian                       ... done (   0.0 sec)
Diagonalizing the Hamiltonian                      ... done (   0.0 sec)
Back transforming the eigenvectors                 ... done (   0.0 sec)
Now organizing SCF variables                       ... done
                      ------------------
                      INITIAL GUESS DONE (   7.3 sec)
                      ------------------
--------------
SCF ITERATIONS
--------------
ITER       Energy         Delta-E        Max-DP      RMS-DP      [F,P]     Damp
               ***  Starting incremental Fock matrix formation  ***
  0    -93.2742395904   0.000000000000 0.01673826  0.00016761  0.2032188 0.7000
  1    -93.3018533099  -0.027613719517 0.01292754  0.00011899  0.0798778 0.7000
                               ***Turning on DIIS***
  2    -93.3111830011  -0.009329691190 0.02969860  0.00022398  0.0321408 0.0000
  3    -93.3271119092  -0.015928908071 0.00680464  0.00007475  0.0410103 0.0000
  4    -93.3302922487  -0.003180339468 0.00207568  0.00002154  0.0195524 0.0000
  5    -93.3308643650  -0.000572116382 0.00115289  0.00001003  0.0032001 0.0000
  6    -93.3308865332  -0.000022168195 0.00103407  0.00000695  0.0005419 0.0000
  7    -93.3308881471  -0.000001613921 0.00012892  0.00000104  0.0000930 0.0000
  8    -93.3308881635  -0.000000016301 0.00004595  0.00000035  0.0000122 0.0000
  9    -93.3308881635  -0.000000000067 0.00002189  0.00000019  0.0000097 0.0000
 10    -93.3308881636  -0.000000000131 0.00002292  0.00000023  0.0000010 0.0000
                 **** Energy Check signals convergence ****

               *****************************************************
               *                     SUCCESS                       *
               *           SCF CONVERGED AFTER  11 CYCLES          *
               *****************************************************


----------------
TOTAL SCF ENERGY
----------------

Total Energy       :          -93.33088816 Eh           -2539.66258 eV

Components:
Nuclear Repulsion  :           24.18081301 Eh             657.99337 eV
Electronic Energy  :         -117.51170117 Eh           -3197.65595 eV
One Electron Energy:         -173.20121772 Eh           -4713.04474 eV
Two Electron Energy:           55.68951656 Eh            1515.38879 eV

Virial components:
Potential Energy   :         -186.34196484 Eh           -5070.62265 eV
Kinetic Energy     :           93.01107668 Eh            2530.96007 eV
Virial Ratio       :            2.00343842


DFT components:
N(Alpha)           :        7.000000055239 electrons
N(Beta)            :        7.000000055239 electrons
N(Total)           :       14.000000110478 electrons
E(X)               :      -12.041760164165 Eh       
E(C)               :       -0.439665598775 Eh       
E(XC)              :      -12.481425762940 Eh       
DFET-embed. en.    :        0.000000000000 Eh       

---------------
SCF CONVERGENCE
---------------

  Last Energy change         ...    1.1653e-12  Tolerance :   1.0000e-09
  Last MAX-Density change    ...    8.7322e-05  Tolerance :   1.0000e-08
  Last RMS-Density change    ...    9.1840e-07  Tolerance :   1.0000e-09
  Last DIIS Error            ...    5.4769e-07  Tolerance :   1.0000e-08

             **** THE GBW FILE WAS UPDATED (hnc_pbe.gbw) ****
             **** DENSITY FILE WAS UPDATED (hnc_pbe.scfp.tmp) ****
             **** ENERGY FILE WAS UPDATED (hnc_pbe.en.tmp) ****
----------------------
UHF SPIN CONTAMINATION
----------------------

Warning: in a DFT calculation there is little theoretical justification to 
         calculate <S**2> as in Hartree-Fock theory. We will do it anyways
         but you should keep in mind that the values have only limited relevance

Expectation value of <S**2>     :    -0.000000
Ideal value S*(S+1) for S=0.0   :     0.000000
Deviation                       :    -0.000000

----------------
ORBITAL ENERGIES
----------------
                 SPIN UP ORBITALS
  NO   OCC          E(Eh)            E(eV) 
   0   1.0000     -14.030827      -381.7982 
   1   1.0000      -9.943198      -270.5682 
   2   1.0000      -0.874643       -23.8002 
   3   1.0000      -0.619345       -16.8532 
   4   1.0000      -0.347486        -9.4556 
   5   1.0000      -0.347486        -9.4556 
   6   1.0000      -0.280328        -7.6281 
   7   0.0000      -0.036608        -0.9962 
   8   0.0000      -0.036608        -0.9962 
   9   0.0000      -0.023744        -0.6461 
  10   0.0000       0.011921         0.3244 
  11   0.0000       0.017894         0.4869 
  12   0.0000       0.017894         0.4869 
  13   0.0000       0.031629         0.8607 
  14   0.0000       0.036151         0.9837 
  15   0.0000       0.047216         1.2848 
  16   0.0000       0.047216         1.2848 
  17   0.0000       0.071556         1.9471 
  18   0.0000       0.082603         2.2477 
  19   0.0000       0.082603         2.2477 
  20   0.0000       0.085278         2.3205 
  21   0.0000       0.086229         2.3464 
  22   0.0000       0.086229         2.3464 
  23   0.0000       0.116636         3.1738 
  24   0.0000       0.116636         3.1738 
  25   0.0000       0.119443         3.2502 
  26   0.0000       0.120715         3.2848 
  27   0.0000       0.139763         3.8031 
  28   0.0000       0.139763         3.8031 
  29   0.0000       0.166701         4.5362 
  30   0.0000       0.168061         4.5732 
  31   0.0000       0.168061         4.5732 
  32   0.0000       0.171379         4.6635 
  33   0.0000       0.190059         5.1718 
  34   0.0000       0.190059         5.1718 
  35   0.0000       0.219305         5.9676 
  36   0.0000       0.219305         5.9676 
  37   0.0000       0.221998         6.0409 
  38   0.0000       0.221998         6.0409 
  39   0.0000       0.224396         6.1061 
  40   0.0000       0.240785         6.5521 
  41   0.0000       0.240785         6.5521 
  42   0.0000       0.241157         6.5622 
  43   0.0000       0.241157         6.5622 
  44   0.0000       0.263843         7.1795 
  45   0.0000       0.263843         7.1795 
  46   0.0000       0.268241         7.2992 
  47   0.0000       0.281686         7.6651 
  48   0.0000       0.304047         8.2735 
  49   0.0000       0.304293         8.2802 
  50   0.0000       0.304293         8.2802 
  51   0.0000       0.305392         8.3101 
  52   0.0000       0.305392         8.3101 
  53   0.0000       0.328116         8.9285 
  54   0.0000       0.346307         9.4235 
  55   0.0000       0.346307         9.4235 
  56   0.0000       0.369333        10.0501 
  57   0.0000       0.372259        10.1297 
  58   0.0000       0.372259        10.1297 
  59   0.0000       0.378733        10.3058 
  60   0.0000       0.378733        10.3058 
  61   0.0000       0.419746        11.4219 
  62   0.0000       0.419746        11.4219 
  63   0.0000       0.425551        11.5798 
  64   0.0000       0.425551        11.5798 
  65   0.0000       0.453847        12.3498 
  66   0.0000       0.453847        12.3498 
  67   0.0000       0.456399        12.4192 
  68   0.0000       0.456399        12.4192 
  69   0.0000       0.456673        12.4267 
  70   0.0000       0.469506        12.7759 
  71   0.0000       0.469506        12.7759 
  72   0.0000       0.484542        13.1851 
  73   0.0000       0.484542        13.1851 
  74   0.0000       0.486791        13.2462 
  75   0.0000       0.486791        13.2462 
  76   0.0000       0.491410        13.3719 
  77   0.0000       0.500650        13.6234 
  78   0.0000       0.504869        13.7382 
  79   0.0000       0.504869        13.7382 
  80   0.0000       0.523694        14.2504 
  81   0.0000       0.523694        14.2504 
  82   0.0000       0.537434        14.6243 
  83   0.0000       0.537434        14.6243 
  84   0.0000       0.555881        15.1263 
  85   0.0000       0.574651        15.6371 
  86   0.0000       0.574651        15.6371 
  87   0.0000       0.577104        15.7038 
  88   0.0000       0.587758        15.9937 
  89   0.0000       0.587758        15.9937 
  90   0.0000       0.596080        16.2201 
  91   0.0000       0.602364        16.3912 
  92   0.0000       0.602364        16.3912 
  93   0.0000       0.637452        17.3460 
  94   0.0000       0.637452        17.3460 
  95   0.0000       0.644062        17.5258 
  96   0.0000       0.644062        17.5258 
  97   0.0000       0.704180        19.1617 
  98   0.0000       0.704180        19.1617 
  99   0.0000       0.720653        19.6100 
 100   0.0000       0.744200        20.2507 
 101   0.0000       0.744200        20.2507 
 102   0.0000       0.751411        20.4469 
 103   0.0000       0.751411        20.4469 
 104   0.0000       0.753691        20.5090 
 105   0.0000       0.783314        21.3150 
 106   0.0000       0.783314        21.3150 
 107   0.0000       0.783614        21.3232 
 108   0.0000       0.793715        21.5981 
 109   0.0000       0.793715        21.5981 
 110   0.0000       0.795014        21.6334 
 111   0.0000       0.795014        21.6334 
 112   0.0000       0.804470        21.8907 
 113   0.0000       0.804470        21.8907 
 114   0.0000       0.831628        22.6297 
 115   0.0000       0.831628        22.6297 
 116   0.0000       0.838818        22.8254 
 117   0.0000       0.838861        22.8266 
 118   0.0000       0.838861        22.8266 
 119   0.0000       0.868228        23.6257 
 120   0.0000       0.868228        23.6257 
 121   0.0000       0.908439        24.7199 
 122   0.0000       0.908439        24.7199 
 123   0.0000       0.913161        24.8484 
 124   0.0000       0.943089        25.6628 
 125   0.0000       0.955118        25.9901 
 126   0.0000       0.955118        25.9901 
 127   0.0000       0.964574        26.2474 
 128   0.0000       0.964574        26.2474 
 129   0.0000       0.979453        26.6523 
 130   0.0000       0.979453        26.6523 
 131   0.0000       0.995171        27.0800 
 132   0.0000       0.995171        27.0800 
 133   0.0000       1.018511        27.7151 
 134   0.0000       1.018511        27.7151 
 135   0.0000       1.033737        28.1294 
 136   0.0000       1.034098        28.1392 
 137   0.0000       1.034098        28.1392 
 138   0.0000       1.112793        30.2806 
 139   0.0000       1.139704        31.0129 
 140   0.0000       1.139704        31.0129 
 141   0.0000       1.185531        32.2599 
 142   0.0000       1.254286        34.1309 
 143   0.0000       1.351728        36.7824 
 144   0.0000       1.351728        36.7824 
 145   0.0000       1.404928        38.2300 
 146   0.0000       1.404928        38.2300 
 147   0.0000       1.461114        39.7589 
 148   0.0000       1.517069        41.2816 
 149   0.0000       1.517069        41.2816 
 150   0.0000       1.555501        42.3273 
 151   0.0000       1.555501        42.3273 
 152   0.0000       1.577612        42.9290 
 153   0.0000       1.577612        42.9290 
 154   0.0000       1.580146        42.9979 
 155   0.0000       1.616709        43.9929 
 156   0.0000       1.644086        44.7378 
 157   0.0000       1.644086        44.7378 
 158   0.0000       1.755955        47.7820 
 159   0.0000       1.755955        47.7820 
 160   0.0000       1.818669        49.4885 
 161   0.0000       1.883202        51.2445 
 162   0.0000       1.883202        51.2445 
 163   0.0000       1.898112        51.6503 
 164   0.0000       1.898112        51.6503 
 165   0.0000       1.953402        53.1548 
 166   0.0000       1.968627        53.5691 
 167   0.0000       1.968627        53.5691 
 168   0.0000       2.083351        56.6909 
 169   0.0000       2.083351        56.6909 
 170   0.0000       2.249225        61.2045 
 171   0.0000       2.301451        62.6257 
 172   0.0000       2.301451        62.6257 
 173   0.0000       2.315739        63.0145 
 174   0.0000       2.392561        65.1049 
 175   0.0000       2.392561        65.1049 
 176   0.0000       2.501476        68.0686 
 177   0.0000       2.595295        70.6216 
 178   0.0000       2.595295        70.6216 
 179   0.0000       2.724197        74.1292 
 180   0.0000       2.829624        76.9980 
 181   0.0000       2.829624        76.9980 
 182   0.0000       2.845497        77.4299 
 183   0.0000       2.954326        80.3913 
 184   0.0000       3.054645        83.1211 
 185   0.0000       3.054645        83.1211 
 186   0.0000       3.058000        83.2124 
 187   0.0000       3.058000        83.2124 
 188   0.0000       3.307152        89.9922 
 189   0.0000       3.307152        89.9922 
 190   0.0000       3.394335        92.3645 
 191   0.0000       3.498995        95.2125 
 192   0.0000       3.498995        95.2125 
 193   0.0000       3.580899        97.4412 
 194   0.0000       3.628112        98.7259 
 195   0.0000       3.628112        98.7259 
 196   0.0000       3.629330        98.7591 
 197   0.0000       3.629330        98.7591 
 198   0.0000       3.700288       100.6899 
 199   0.0000       3.787099       103.0522 
 200   0.0000       3.787099       103.0522 
 201   0.0000       4.019823       109.3849 
 202   0.0000       4.019823       109.3849 
 203   0.0000       4.068409       110.7070 
 204   0.0000       4.068409       110.7070 
 205   0.0000       4.123653       112.2103 
 206   0.0000       4.123653       112.2103 
 207   0.0000       4.177637       113.6793 
 208   0.0000       4.303731       117.1105 
 209   0.0000       4.303731       117.1105 
 210   0.0000       4.339836       118.0929 
 211   0.0000       4.339836       118.0929 
 212   0.0000       4.433013       120.6284 
 213   0.0000       4.433013       120.6284 
 214   0.0000       4.522647       123.0675 
 215   0.0000       4.522647       123.0675 
 216   0.0000       4.539456       123.5249 
 217   0.0000       4.672324       127.1404 
 218   0.0000       4.672324       127.1404 
 219   0.0000       4.716207       128.3345 
 220   0.0000       4.716207       128.3345 
 221   0.0000       4.776942       129.9872 
 222   0.0000       4.876636       132.7000 
 223   0.0000       4.876636       132.7000 
 224   0.0000       4.998359       136.0122 
 225   0.0000       4.998359       136.0122 
 226   0.0000       5.141900       139.9182 
 227   0.0000       5.141900       139.9182 
 228   0.0000       5.142740       139.9411 
 229   0.0000       5.256965       143.0493 
 230   0.0000       5.567750       151.5062 
 231   0.0000       5.567750       151.5062 
 232   0.0000       5.706094       155.2707 
 233   0.0000       5.771409       157.0480 
 234   0.0000       5.771409       157.0480 
 235   0.0000       5.803951       157.9335 
 236   0.0000       5.803951       157.9335 
 237   0.0000       5.994314       163.1136 
 238   0.0000       6.187409       168.3680 
 239   0.0000       6.187409       168.3680 
 240   0.0000       6.251095       170.1009 
 241   0.0000       6.445997       175.4045 
 242   0.0000       6.457865       175.7274 
 243   0.0000       6.457865       175.7274 
 244   0.0000       6.617969       180.0841 
 245   0.0000       6.617969       180.0841 
 246   0.0000       6.774424       184.3414 
 247   0.0000       6.774424       184.3414 
 248   0.0000       7.089799       192.9232 
 249   0.0000       7.424324       202.0261 
 250   0.0000       7.447245       202.6498 
 251   0.0000       7.447245       202.6498 
 252   0.0000       7.501516       204.1266 
 253   0.0000       7.501516       204.1266 
 254   0.0000       8.349905       227.2125 
 255   0.0000       8.579653       233.4642 
 256   0.0000       8.579653       233.4642 
 257   0.0000       8.745420       237.9750 
 258   0.0000       8.745420       237.9750 
 259   0.0000       8.915348       242.5990 
 260   0.0000       8.945652       243.4236 
 261   0.0000       8.945652       243.4236 
 262   0.0000       9.397919       255.7304 
 263   0.0000       9.397919       255.7304 
 264   0.0000       9.818660       267.1793 
 265   0.0000      10.246213       278.8136 
 266   0.0000      10.246214       278.8137 
 267   0.0000      10.320022       280.8221 
 268   0.0000      10.320022       280.8221 
 269   0.0000      10.413081       283.3543 
 270   0.0000      10.432262       283.8763 
 271   0.0000      10.432262       283.8763 
 272   0.0000      10.447225       284.2835 
 273   0.0000      10.447225       284.2835 
 274   0.0000      10.507120       285.9133 
 275   0.0000      10.507120       285.9133 
 276   0.0000      10.761661       292.8397 
 277   0.0000      10.761661       292.8397 
 278   0.0000      10.887140       296.2541 
 279   0.0000      10.932264       297.4820 
 280   0.0000      10.932264       297.4820 
 281   0.0000      11.130065       302.8645 
 282   0.0000      11.130065       302.8645 
 283   0.0000      11.272832       306.7493 
 284   0.0000      11.272832       306.7493 
 285   0.0000      11.354047       308.9593 
 286   0.0000      11.354047       308.9593 
 287   0.0000      11.471020       312.1423 
 288   0.0000      11.570509       314.8495 
 289   0.0000      11.570510       314.8496 
 290   0.0000      11.639296       316.7214 
 291   0.0000      11.639296       316.7214 
 292   0.0000      11.696784       318.2857 
 293   0.0000      11.696785       318.2857 
 294   0.0000      11.801964       321.1478 
 295   0.0000      11.801964       321.1478 
 296   0.0000      11.813469       321.4608 
 297   0.0000      11.858466       322.6853 
 298   0.0000      11.858466       322.6853 
 299   0.0000      11.967194       325.6439 
 300   0.0000      11.967194       325.6439 
 301   0.0000      12.153255       330.7069 
 302   0.0000      12.153255       330.7069 
 303   0.0000      12.208525       332.2109 
 304   0.0000      12.208525       332.2109 
 305   0.0000      12.258719       333.5767 
 306   0.0000      12.384077       336.9879 
 307   0.0000      12.384077       336.9879 
 308   0.0000      12.983453       353.2977 
 309   0.0000      13.013629       354.1189 
 310   0.0000      13.013629       354.1189 
 311   0.0000      13.082555       355.9944 
 312   0.0000      13.082555       355.9944 
 313   0.0000      13.256414       360.7254 
 314   0.0000      13.256414       360.7254 
 315   0.0000      13.473147       366.6230 
 316   0.0000      13.963646       379.9701 
 317   0.0000      14.063547       382.6886 
 318   0.0000      14.063547       382.6886 
 319   0.0000      14.225218       387.0879 
 320   0.0000      14.225218       387.0879 
 321   0.0000      14.539868       395.6499 
 322   0.0000      14.539868       395.6499 
 323   0.0000      14.580598       396.7582 
 324   0.0000      14.580598       396.7582 
 325   0.0000      14.762911       401.7192 
 326   0.0000      15.421292       419.6347 
 327   0.0000      15.421292       419.6347 
 328   0.0000      15.726727       427.9460 
 329   0.0000      15.726727       427.9460 
 330   0.0000      16.175574       440.1598 
 331   0.0000      16.175574       440.1598 
 332   0.0000      16.206737       441.0077 
 333   0.0000      16.327694       444.2991 
 334   0.0000      16.671792       453.6625 
 335   0.0000      16.671792       453.6625 
 336   0.0000      16.750086       455.7930 
 337   0.0000      16.917693       460.3538 
 338   0.0000      16.917693       460.3538 
 339   0.0000      17.471582       475.4259 
 340   0.0000      17.471582       475.4259 
 341   0.0000      17.898502       487.0430 
 342   0.0000      17.898502       487.0430 
 343   0.0000      18.152538       493.9557 
 344   0.0000      18.152538       493.9557 
 345   0.0000      19.047097       518.2978 
 346   0.0000      19.462469       529.6007 
 347   0.0000      19.462469       529.6007 
 348   0.0000      19.805781       538.9427 
 349   0.0000      19.805781       538.9427 
 350   0.0000      20.472666       557.0896 
 351   0.0000      20.796089       565.8904 
 352   0.0000      22.178070       603.4960 
 353   0.0000      22.178070       603.4960 
 354   0.0000      22.851752       621.8278 
 355   0.0000      23.765600       646.6948 
 356   0.0000      23.765600       646.6948 
 357   0.0000      25.409215       691.4199 
 358   0.0000      26.328133       716.4249 
 359   0.0000      26.328133       716.4249 
 360   0.0000      26.545519       722.3403 
 361   0.0000      29.754280       809.6551 
 362   0.0000      31.912829       868.3922 
 363   0.0000      31.912832       868.3923 
 364   0.0000      33.057235       899.5331 
 365   0.0000      33.057235       899.5331 
 366   0.0000      34.548542       940.1136 
 367   0.0000      41.736222      1135.7003 
 368   0.0000      47.707523      1298.1877 
 369   0.0000      47.707529      1298.1879 
 370   0.0000      48.565870      1321.5445 
 371   0.0000      48.565870      1321.5445 
 372   0.0000      51.009480      1388.0385 
 373   0.0000      74.700663      2032.7084 
 374   0.0000      91.071324      2478.1767 
 375   0.0000      91.071324      2478.1767 
 376   0.0000      93.079240      2532.8149 
 377   0.0000     106.702501      2903.5227 

                 SPIN DOWN ORBITALS
  NO   OCC          E(Eh)            E(eV) 
   0   1.0000     -14.030827      -381.7982 
   1   1.0000      -9.943198      -270.5682 
   2   1.0000      -0.874643       -23.8002 
   3   1.0000      -0.619345       -16.8532 
   4   1.0000      -0.347486        -9.4556 
   5   1.0000      -0.347486        -9.4556 
   6   1.0000      -0.280328        -7.6281 
   7   0.0000      -0.036608        -0.9962 
   8   0.0000      -0.036608        -0.9962 
   9   0.0000      -0.023744        -0.6461 
  10   0.0000       0.011921         0.3244 
  11   0.0000       0.017894         0.4869 
  12   0.0000       0.017894         0.4869 
  13   0.0000       0.031629         0.8607 
  14   0.0000       0.036151         0.9837 
  15   0.0000       0.047216         1.2848 
  16   0.0000       0.047216         1.2848 
  17   0.0000       0.071556         1.9471 
  18   0.0000       0.082603         2.2477 
  19   0.0000       0.082603         2.2477 
  20   0.0000       0.085278         2.3205 
  21   0.0000       0.086229         2.3464 
  22   0.0000       0.086229         2.3464 
  23   0.0000       0.116636         3.1738 
  24   0.0000       0.116636         3.1738 
  25   0.0000       0.119443         3.2502 
  26   0.0000       0.120715         3.2848 
  27   0.0000       0.139763         3.8031 
  28   0.0000       0.139763         3.8031 
  29   0.0000       0.166701         4.5362 
  30   0.0000       0.168061         4.5732 
  31   0.0000       0.168061         4.5732 
  32   0.0000       0.171379         4.6635 
  33   0.0000       0.190059         5.1718 
  34   0.0000       0.190059         5.1718 
  35   0.0000       0.219305         5.9676 
  36   0.0000       0.219305         5.9676 
  37   0.0000       0.221998         6.0409 
  38   0.0000       0.221998         6.0409 
  39   0.0000       0.224396         6.1061 
  40   0.0000       0.240785         6.5521 
  41   0.0000       0.240785         6.5521 
  42   0.0000       0.241157         6.5622 
  43   0.0000       0.241157         6.5622 
  44   0.0000       0.263843         7.1795 
  45   0.0000       0.263843         7.1795 
  46   0.0000       0.268241         7.2992 
  47   0.0000       0.281686         7.6651 
  48   0.0000       0.304047         8.2735 
  49   0.0000       0.304293         8.2802 
  50   0.0000       0.304293         8.2802 
  51   0.0000       0.305392         8.3101 
  52   0.0000       0.305392         8.3101 
  53   0.0000       0.328116         8.9285 
  54   0.0000       0.346307         9.4235 
  55   0.0000       0.346307         9.4235 
  56   0.0000       0.369333        10.0501 
  57   0.0000       0.372259        10.1297 
  58   0.0000       0.372259        10.1297 
  59   0.0000       0.378733        10.3058 
  60   0.0000       0.378733        10.3058 
  61   0.0000       0.419746        11.4219 
  62   0.0000       0.419746        11.4219 
  63   0.0000       0.425551        11.5798 
  64   0.0000       0.425551        11.5798 
  65   0.0000       0.453847        12.3498 
  66   0.0000       0.453847        12.3498 
  67   0.0000       0.456399        12.4192 
  68   0.0000       0.456399        12.4192 
  69   0.0000       0.456673        12.4267 
  70   0.0000       0.469506        12.7759 
  71   0.0000       0.469506        12.7759 
  72   0.0000       0.484542        13.1851 
  73   0.0000       0.484542        13.1851 
  74   0.0000       0.486791        13.2462 
  75   0.0000       0.486791        13.2462 
  76   0.0000       0.491410        13.3719 
  77   0.0000       0.500650        13.6234 
  78   0.0000       0.504869        13.7382 
  79   0.0000       0.504869        13.7382 
  80   0.0000       0.523694        14.2504 
  81   0.0000       0.523694        14.2504 
  82   0.0000       0.537434        14.6243 
  83   0.0000       0.537434        14.6243 
  84   0.0000       0.555881        15.1263 
  85   0.0000       0.574651        15.6371 
  86   0.0000       0.574651        15.6371 
  87   0.0000       0.577104        15.7038 
  88   0.0000       0.587758        15.9937 
  89   0.0000       0.587758        15.9937 
  90   0.0000       0.596080        16.2201 
  91   0.0000       0.602364        16.3912 
  92   0.0000       0.602364        16.3912 
  93   0.0000       0.637452        17.3460 
  94   0.0000       0.637452        17.3460 
  95   0.0000       0.644062        17.5258 
  96   0.0000       0.644062        17.5258 
  97   0.0000       0.704180        19.1617 
  98   0.0000       0.704180        19.1617 
  99   0.0000       0.720653        19.6100 
 100   0.0000       0.744200        20.2507 
 101   0.0000       0.744200        20.2507 
 102   0.0000       0.751411        20.4469 
 103   0.0000       0.751411        20.4469 
 104   0.0000       0.753691        20.5090 
 105   0.0000       0.783314        21.3150 
 106   0.0000       0.783314        21.3150 
 107   0.0000       0.783614        21.3232 
 108   0.0000       0.793715        21.5981 
 109   0.0000       0.793715        21.5981 
 110   0.0000       0.795014        21.6334 
 111   0.0000       0.795014        21.6334 
 112   0.0000       0.804470        21.8907 
 113   0.0000       0.804470        21.8907 
 114   0.0000       0.831628        22.6297 
 115   0.0000       0.831628        22.6297 
 116   0.0000       0.838818        22.8254 
 117   0.0000       0.838861        22.8266 
 118   0.0000       0.838861        22.8266 
 119   0.0000       0.868228        23.6257 
 120   0.0000       0.868228        23.6257 
 121   0.0000       0.908439        24.7199 
 122   0.0000       0.908439        24.7199 
 123   0.0000       0.913161        24.8484 
 124   0.0000       0.943089        25.6628 
 125   0.0000       0.955118        25.9901 
 126   0.0000       0.955118        25.9901 
 127   0.0000       0.964574        26.2474 
 128   0.0000       0.964574        26.2474 
 129   0.0000       0.979453        26.6523 
 130   0.0000       0.979453        26.6523 
 131   0.0000       0.995171        27.0800 
 132   0.0000       0.995171        27.0800 
 133   0.0000       1.018511        27.7151 
 134   0.0000       1.018511        27.7151 
 135   0.0000       1.033737        28.1294 
 136   0.0000       1.034098        28.1392 
 137   0.0000       1.034098        28.1392 
 138   0.0000       1.112793        30.2806 
 139   0.0000       1.139704        31.0129 
 140   0.0000       1.139704        31.0129 
 141   0.0000       1.185531        32.2599 
 142   0.0000       1.254286        34.1309 
 143   0.0000       1.351728        36.7824 
 144   0.0000       1.351728        36.7824 
 145   0.0000       1.404928        38.2300 
 146   0.0000       1.404928        38.2300 
 147   0.0000       1.461114        39.7589 
 148   0.0000       1.517069        41.2816 
 149   0.0000       1.517069        41.2816 
 150   0.0000       1.555501        42.3273 
 151   0.0000       1.555501        42.3273 
 152   0.0000       1.577612        42.9290 
 153   0.0000       1.577612        42.9290 
 154   0.0000       1.580146        42.9979 
 155   0.0000       1.616709        43.9929 
 156   0.0000       1.644086        44.7378 
 157   0.0000       1.644086        44.7378 
 158   0.0000       1.755955        47.7820 
 159   0.0000       1.755955        47.7820 
 160   0.0000       1.818669        49.4885 
 161   0.0000       1.883202        51.2445 
 162   0.0000       1.883202        51.2445 
 163   0.0000       1.898112        51.6503 
 164   0.0000       1.898112        51.6503 
 165   0.0000       1.953402        53.1548 
 166   0.0000       1.968627        53.5691 
 167   0.0000       1.968627        53.5691 
 168   0.0000       2.083351        56.6909 
 169   0.0000       2.083351        56.6909 
 170   0.0000       2.249225        61.2045 
 171   0.0000       2.301451        62.6257 
 172   0.0000       2.301451        62.6257 
 173   0.0000       2.315739        63.0145 
 174   0.0000       2.392561        65.1049 
 175   0.0000       2.392561        65.1049 
 176   0.0000       2.501476        68.0686 
 177   0.0000       2.595295        70.6216 
 178   0.0000       2.595295        70.6216 
 179   0.0000       2.724197        74.1292 
 180   0.0000       2.829624        76.9980 
 181   0.0000       2.829624        76.9980 
 182   0.0000       2.845497        77.4299 
 183   0.0000       2.954326        80.3913 
 184   0.0000       3.054645        83.1211 
 185   0.0000       3.054645        83.1211 
 186   0.0000       3.058000        83.2124 
 187   0.0000       3.058000        83.2124 
 188   0.0000       3.307152        89.9922 
 189   0.0000       3.307152        89.9922 
 190   0.0000       3.394335        92.3645 
 191   0.0000       3.498995        95.2125 
 192   0.0000       3.498995        95.2125 
 193   0.0000       3.580899        97.4412 
 194   0.0000       3.628112        98.7259 
 195   0.0000       3.628112        98.7259 
 196   0.0000       3.629330        98.7591 
 197   0.0000       3.629330        98.7591 
 198   0.0000       3.700288       100.6899 
 199   0.0000       3.787099       103.0522 
 200   0.0000       3.787099       103.0522 
 201   0.0000       4.019823       109.3849 
 202   0.0000       4.019823       109.3849 
 203   0.0000       4.068409       110.7070 
 204   0.0000       4.068409       110.7070 
 205   0.0000       4.123653       112.2103 
 206   0.0000       4.123653       112.2103 
 207   0.0000       4.177637       113.6793 
 208   0.0000       4.303731       117.1105 
 209   0.0000       4.303731       117.1105 
 210   0.0000       4.339836       118.0929 
 211   0.0000       4.339836       118.0929 
 212   0.0000       4.433013       120.6284 
 213   0.0000       4.433013       120.6284 
 214   0.0000       4.522647       123.0675 
 215   0.0000       4.522647       123.0675 
 216   0.0000       4.539456       123.5249 
 217   0.0000       4.672324       127.1404 
 218   0.0000       4.672324       127.1404 
 219   0.0000       4.716207       128.3345 
 220   0.0000       4.716207       128.3345 
 221   0.0000       4.776942       129.9872 
 222   0.0000       4.876636       132.7000 
 223   0.0000       4.876636       132.7000 
 224   0.0000       4.998359       136.0122 
 225   0.0000       4.998359       136.0122 
 226   0.0000       5.141900       139.9182 
 227   0.0000       5.141900       139.9182 
 228   0.0000       5.142740       139.9411 
 229   0.0000       5.256965       143.0493 
 230   0.0000       5.567750       151.5062 
 231   0.0000       5.567750       151.5062 
 232   0.0000       5.706094       155.2707 
 233   0.0000       5.771409       157.0480 
 234   0.0000       5.771409       157.0480 
 235   0.0000       5.803951       157.9335 
 236   0.0000       5.803951       157.9335 
 237   0.0000       5.994314       163.1136 
 238   0.0000       6.187409       168.3680 
 239   0.0000       6.187409       168.3680 
 240   0.0000       6.251095       170.1009 
 241   0.0000       6.445997       175.4045 
 242   0.0000       6.457865       175.7274 
 243   0.0000       6.457865       175.7274 
 244   0.0000       6.617969       180.0841 
 245   0.0000       6.617969       180.0841 
 246   0.0000       6.774424       184.3414 
 247   0.0000       6.774424       184.3414 
 248   0.0000       7.089799       192.9232 
 249   0.0000       7.424324       202.0261 
 250   0.0000       7.447245       202.6498 
 251   0.0000       7.447245       202.6498 
 252   0.0000       7.501516       204.1266 
 253   0.0000       7.501516       204.1266 
 254   0.0000       8.349905       227.2125 
 255   0.0000       8.579653       233.4642 
 256   0.0000       8.579653       233.4642 
 257   0.0000       8.745420       237.9750 
 258   0.0000       8.745420       237.9750 
 259   0.0000       8.915348       242.5990 
 260   0.0000       8.945652       243.4236 
 261   0.0000       8.945652       243.4236 
 262   0.0000       9.397919       255.7304 
 263   0.0000       9.397919       255.7304 
 264   0.0000       9.818660       267.1793 
 265   0.0000      10.246213       278.8136 
 266   0.0000      10.246214       278.8137 
 267   0.0000      10.320022       280.8221 
 268   0.0000      10.320022       280.8221 
 269   0.0000      10.413081       283.3543 
 270   0.0000      10.432262       283.8763 
 271   0.0000      10.432262       283.8763 
 272   0.0000      10.447225       284.2835 
 273   0.0000      10.447225       284.2835 
 274   0.0000      10.507120       285.9133 
 275   0.0000      10.507120       285.9133 
 276   0.0000      10.761661       292.8397 
 277   0.0000      10.761661       292.8397 
 278   0.0000      10.887140       296.2541 
 279   0.0000      10.932264       297.4820 
 280   0.0000      10.932264       297.4820 
 281   0.0000      11.130065       302.8645 
 282   0.0000      11.130065       302.8645 
 283   0.0000      11.272832       306.7493 
 284   0.0000      11.272832       306.7493 
 285   0.0000      11.354047       308.9593 
 286   0.0000      11.354047       308.9593 
 287   0.0000      11.471020       312.1423 
 288   0.0000      11.570509       314.8495 
 289   0.0000      11.570510       314.8496 
 290   0.0000      11.639296       316.7214 
 291   0.0000      11.639296       316.7214 
 292   0.0000      11.696784       318.2857 
 293   0.0000      11.696785       318.2857 
 294   0.0000      11.801964       321.1478 
 295   0.0000      11.801964       321.1478 
 296   0.0000      11.813469       321.4608 
 297   0.0000      11.858466       322.6853 
 298   0.0000      11.858466       322.6853 
 299   0.0000      11.967194       325.6439 
 300   0.0000      11.967194       325.6439 
 301   0.0000      12.153255       330.7069 
 302   0.0000      12.153255       330.7069 
 303   0.0000      12.208525       332.2109 
 304   0.0000      12.208525       332.2109 
 305   0.0000      12.258719       333.5767 
 306   0.0000      12.384077       336.9879 
 307   0.0000      12.384077       336.9879 
 308   0.0000      12.983453       353.2977 
 309   0.0000      13.013629       354.1189 
 310   0.0000      13.013629       354.1189 
 311   0.0000      13.082555       355.9944 
 312   0.0000      13.082555       355.9944 
 313   0.0000      13.256414       360.7254 
 314   0.0000      13.256414       360.7254 
 315   0.0000      13.473147       366.6230 
 316   0.0000      13.963646       379.9701 
 317   0.0000      14.063547       382.6886 
 318   0.0000      14.063547       382.6886 
 319   0.0000      14.225218       387.0879 
 320   0.0000      14.225218       387.0879 
 321   0.0000      14.539868       395.6499 
 322   0.0000      14.539868       395.6499 
 323   0.0000      14.580598       396.7582 
 324   0.0000      14.580598       396.7582 
 325   0.0000      14.762911       401.7192 
 326   0.0000      15.421292       419.6347 
 327   0.0000      15.421292       419.6347 
 328   0.0000      15.726727       427.9460 
 329   0.0000      15.726727       427.9460 
 330   0.0000      16.175574       440.1598 
 331   0.0000      16.175574       440.1598 
 332   0.0000      16.206737       441.0077 
 333   0.0000      16.327694       444.2991 
 334   0.0000      16.671792       453.6625 
 335   0.0000      16.671792       453.6625 
 336   0.0000      16.750086       455.7930 
 337   0.0000      16.917693       460.3538 
 338   0.0000      16.917693       460.3538 
 339   0.0000      17.471582       475.4259 
 340   0.0000      17.471582       475.4259 
 341   0.0000      17.898502       487.0430 
 342   0.0000      17.898502       487.0430 
 343   0.0000      18.152538       493.9557 
 344   0.0000      18.152538       493.9557 
 345   0.0000      19.047097       518.2978 
 346   0.0000      19.462469       529.6007 
 347   0.0000      19.462469       529.6007 
 348   0.0000      19.805781       538.9427 
 349   0.0000      19.805781       538.9427 
 350   0.0000      20.472666       557.0896 
 351   0.0000      20.796089       565.8904 
 352   0.0000      22.178070       603.4960 
 353   0.0000      22.178070       603.4960 
 354   0.0000      22.851752       621.8278 
 355   0.0000      23.765600       646.6948 
 356   0.0000      23.765600       646.6948 
 357   0.0000      25.409215       691.4199 
 358   0.0000      26.328133       716.4249 
 359   0.0000      26.328133       716.4249 
 360   0.0000      26.545519       722.3403 
 361   0.0000      29.754280       809.6551 
 362   0.0000      31.912829       868.3922 
 363   0.0000      31.912832       868.3923 
 364   0.0000      33.057235       899.5331 
 365   0.0000      33.057235       899.5331 
 366   0.0000      34.548542       940.1136 
 367   0.0000      41.736222      1135.7003 
 368   0.0000      47.707523      1298.1877 
 369   0.0000      47.707529      1298.1879 
 370   0.0000      48.565870      1321.5445 
 371   0.0000      48.565870      1321.5445 
 372   0.0000      51.009480      1388.0385 
 373   0.0000      74.700663      2032.7084 
 374   0.0000      91.071324      2478.1767 
 375   0.0000      91.071324      2478.1767 
 376   0.0000      93.079240      2532.8149 
 377   0.0000     106.702501      2903.5227 

                    ********************************
                    * MULLIKEN POPULATION ANALYSIS *
                    ********************************

--------------------------------------------
MULLIKEN ATOMIC CHARGES AND SPIN POPULATIONS
--------------------------------------------
   0 C :   -0.168440   -0.000000
   1 N :   -0.081990    0.000000
   2 H :    0.250430    0.000000
Sum of atomic charges         :   -0.0000000
Sum of atomic spin populations:   -0.0000000

-----------------------------------------------------
MULLIKEN REDUCED ORBITAL CHARGES AND SPIN POPULATIONS
-----------------------------------------------------
CHARGE
  0 C s       :     3.584265  s :     3.584265
      pz      :     1.226186  p :     2.474931
      px      :     0.624372
      py      :     0.624372
      dz2     :     0.030504  d :     0.097535
      dxz     :     0.033515
      dyz     :     0.033515
      dx2y2   :     0.000000
      dxy     :     0.000000
      f0      :     0.002819  f :     0.010278
      f+1     :     0.003730
      f-1     :     0.003730
      f+2     :     0.000000
      f-2     :     0.000000
      f+3     :     0.000000
      f-3     :     0.000000
      g0      :     0.000385  g :     0.001375
      g+1     :     0.000495
      g-1     :     0.000495
      g+2     :    -0.000000
      g-2     :    -0.000000
      g+3     :     0.000000
      g-3     :     0.000000
      g+4     :     0.000000
      g-4     :     0.000000
      h0      :     0.000033  h :     0.000056
      h+1     :     0.000012
      h-1     :     0.000012
      h+2     :    -0.000000
      h-2     :     0.000000
      h+3     :     0.000000
      h-3     :     0.000000
      h+4     :     0.000000
      h-4     :     0.000000
      h+5     :     0.000000
      h-5     :     0.000000
  1 N s       :     3.463972  s :     3.463972
      pz      :     0.920249  p :     3.569203
      px      :     1.324477
      py      :     1.324477
      dz2     :     0.047059  d :     0.047968
      dxz     :     0.000455
      dyz     :     0.000455
      dx2y2   :    -0.000000
      dxy     :     0.000000
      f0      :    -0.000567  f :     0.001609
      f+1     :     0.001088
      f-1     :     0.001088
      f+2     :     0.000000
      f-2     :    -0.000000
      f+3     :     0.000000
      f-3     :     0.000000
      g0      :    -0.000310  g :    -0.000706
      g+1     :    -0.000198
      g-1     :    -0.000198
      g+2     :     0.000000
      g-2     :    -0.000000
      g+3     :     0.000000
      g-3     :     0.000000
      g+4     :     0.000000
      g-4     :    -0.000000
      h0      :    -0.000053  h :    -0.000056
      h+1     :    -0.000002
      h-1     :    -0.000002
      h+2     :     0.000000
      h-2     :    -0.000000
      h+3     :     0.000000
      h-3     :     0.000000
      h+4     :     0.000000
      h-4     :    -0.000000
      h+5     :     0.000000
      h-5     :     0.000000
  2 H s       :     0.708278  s :     0.708278
      pz      :     0.020291  p :     0.053686
      px      :     0.016698
      py      :     0.016698
      dz2     :    -0.001156  d :    -0.005894
      dxz     :    -0.002369
      dyz     :    -0.002369
      dx2y2   :     0.000000
      dxy     :     0.000000
      f0      :    -0.001587  f :    -0.005444
      f+1     :    -0.001929
      f-1     :    -0.001929
      f+2     :    -0.000000
      f-2     :    -0.000000
      f+3     :     0.000000
      f-3     :     0.000000
      g0      :    -0.000369  g :    -0.001056
      g+1     :    -0.000344
      g-1     :    -0.000344
      g+2     :    -0.000000
      g-2     :    -0.000000
      g+3     :     0.000000
      g-3     :     0.000000
      g+4     :     0.000000
      g-4     :     0.000000

SPIN
  0 C s       :    -0.000000  s :    -0.000000
      pz      :    -0.000000  p :    -0.000000
      px      :     0.000000
      py      :    -0.000000
      dz2     :    -0.000000  d :    -0.000000
      dxz     :     0.000000
      dyz     :    -0.000000
      dx2y2   :     0.000000
      dxy     :    -0.000000
      f0      :    -0.000000  f :    -0.000000
      f+1     :     0.000000
      f-1     :     0.000000
      f+2     :    -0.000000
      f-2     :    -0.000000
      f+3     :    -0.000000
      f-3     :    -0.000000
      g0      :    -0.000000  g :    -0.000000
      g+1     :     0.000000
      g-1     :     0.000000
      g+2     :    -0.000000
      g-2     :     0.000000
      g+3     :    -0.000000
      g-3     :     0.000000
      g+4     :     0.000000
      g-4     :     0.000000
      h0      :    -0.000000  h :    -0.000000
      h+1     :     0.000000
      h-1     :     0.000000
      h+2     :     0.000000
      h-2     :     0.000000
      h+3     :     0.000000
      h-3     :     0.000000
      h+4     :     0.000000
      h-4     :    -0.000000
      h+5     :     0.000000
      h-5     :     0.000000
  1 N s       :     0.000000  s :     0.000000
      pz      :     0.000000  p :     0.000000
      px      :     0.000000
      py      :     0.000000
      dz2     :     0.000000  d :     0.000000
      dxz     :     0.000000
      dyz     :     0.000000
      dx2y2   :    -0.000000
      dxy     :     0.000000
      f0      :    -0.000000  f :    -0.000000
      f+1     :    -0.000000
      f-1     :    -0.000000
      f+2     :    -0.000000
      f-2     :     0.000000
      f+3     :    -0.000000
      f-3     :     0.000000
      g0      :     0.000000  g :     0.000000
      g+1     :     0.000000
      g-1     :     0.000000
      g+2     :     0.000000
      g-2     :     0.000000
      g+3     :    -0.000000
      g-3     :     0.000000
      g+4     :    -0.000000
      g-4     :    -0.000000
      h0      :    -0.000000  h :    -0.000000
      h+1     :     0.000000
      h-1     :     0.000000
      h+2     :     0.000000
      h-2     :    -0.000000
      h+3     :    -0.000000
      h-3     :    -0.000000
      h+4     :    -0.000000
      h-4     :     0.000000
      h+5     :     0.000000
      h-5     :     0.000000
  2 H s       :    -0.000000  s :    -0.000000
      pz      :     0.000000  p :     0.000000
      px      :    -0.000000
      py      :     0.000000
      dz2     :     0.000000  d :     0.000000
      dxz     :    -0.000000
      dyz     :     0.000000
      dx2y2   :    -0.000000
      dxy     :    -0.000000
      f0      :     0.000000  f :     0.000000
      f+1     :    -0.000000
      f-1     :     0.000000
      f+2     :     0.000000
      f-2     :     0.000000
      f+3     :     0.000000
      f-3     :    -0.000000
      g0      :     0.000000  g :     0.000000
      g+1     :     0.000000
      g-1     :     0.000000
      g+2     :     0.000000
      g-2     :     0.000000
      g+3     :     0.000000
      g-3     :    -0.000000
      g+4     :     0.000000
      g-4     :     0.000000


                     *******************************
                     * LOEWDIN POPULATION ANALYSIS *
                     *******************************

-------------------------------------------
LOEWDIN ATOMIC CHARGES AND SPIN POPULATIONS
-------------------------------------------
   0 C :    0.175949   -0.000000
   1 N :    0.571399    0.000000
   2 H :   -0.747349    0.000000

----------------------------------------------------
LOEWDIN REDUCED ORBITAL CHARGES AND SPIN POPULATIONS
----------------------------------------------------
CHARGE
  0 C s       :     2.998301  s :     2.998301
      pz      :     1.206059  p :     2.271231
      px      :     0.532586
      py      :     0.532586
      dz2     :     0.161795  d :     0.373716
      dxz     :     0.105961
      dyz     :     0.105961
      dx2y2   :     0.000000
      dxy     :     0.000000
      f0      :     0.044298  f :     0.132802
      f+1     :     0.044252
      f-1     :     0.044252
      f+2     :     0.000000
      f-2     :     0.000000
      f+3     :     0.000000
      f-3     :     0.000000
      g0      :     0.015207  g :     0.039981
      g+1     :     0.012387
      g-1     :     0.012387
      g+2     :     0.000000
      g-2     :     0.000000
      g+3     :     0.000000
      g-3     :     0.000000
      g+4     :     0.000000
      g-4     :     0.000000
      h0      :     0.004884  h :     0.008020
      h+1     :     0.001568
      h-1     :     0.001568
      h+2     :     0.000000
      h-2     :     0.000000
      h+3     :     0.000000
      h-3     :     0.000000
      h+4     :     0.000000
      h-4     :     0.000000
      h+5     :     0.000000
      h-5     :     0.000000
  1 N s       :     2.850462  s :     2.850462
      pz      :     1.282153  p :     3.205145
      px      :     0.961496
      py      :     0.961496
      dz2     :     0.189059  d :     0.262978
      dxz     :     0.036960
      dyz     :     0.036960
      dx2y2   :     0.000000
      dxy     :     0.000000
      f0      :     0.045309  f :     0.078910
      f+1     :     0.016801
      f-1     :     0.016801
      f+2     :     0.000000
      f-2     :     0.000000
      f+3     :     0.000000
      f-3     :     0.000000
      g0      :     0.016015  g :     0.024666
      g+1     :     0.004325
      g-1     :     0.004325
      g+2     :     0.000000
      g-2     :     0.000000
      g+3     :     0.000000
      g-3     :     0.000000
      g+4     :     0.000000
      g-4     :     0.000000
      h0      :     0.002771  h :     0.006440
      h+1     :     0.001835
      h-1     :     0.001835
      h+2     :     0.000000
      h-2     :     0.000000
      h+3     :     0.000000
      h-3     :     0.000000
      h+4     :     0.000000
      h-4     :     0.000000
      h+5     :     0.000000
      h-5     :     0.000000
  2 H s       :     0.705278  s :     0.705278
      pz      :     0.248431  p :     0.477076
      px      :     0.114323
      py      :     0.114323
      dz2     :     0.139104  d :     0.362672
      dxz     :     0.111784
      dyz     :     0.111784
      dx2y2   :     0.000000
      dxy     :     0.000000
      f0      :     0.061761  f :     0.144605
      f+1     :     0.041422
      f-1     :     0.041422
      f+2     :     0.000000
      f-2     :     0.000000
      f+3     :     0.000000
      f-3     :     0.000000
      g0      :     0.029113  g :     0.057717
      g+1     :     0.014302
      g-1     :     0.014302
      g+2     :     0.000000
      g-2     :     0.000000
      g+3     :     0.000000
      g-3     :     0.000000
      g+4     :     0.000000
      g-4     :     0.000000

SPIN
  0 C s       :    -0.000000  s :    -0.000000
      pz      :    -0.000000  p :    -0.000000
      px      :    -0.000000
      py      :    -0.000000
      dz2     :    -0.000000  d :    -0.000000
      dxz     :     0.000000
      dyz     :     0.000000
      dx2y2   :     0.000000
      dxy     :    -0.000000
      f0      :     0.000000  f :     0.000000
      f+1     :     0.000000
      f-1     :     0.000000
      f+2     :    -0.000000
      f-2     :    -0.000000
      f+3     :    -0.000000
      f-3     :    -0.000000
      g0      :    -0.000000  g :    -0.000000
      g+1     :     0.000000
      g-1     :     0.000000
      g+2     :    -0.000000
      g-2     :     0.000000
      g+3     :    -0.000000
      g-3     :     0.000000
      g+4     :     0.000000
      g-4     :     0.000000
      h0      :     0.000000  h :     0.000000
      h+1     :     0.000000
      h-1     :     0.000000
      h+2     :    -0.000000
      h-2     :     0.000000
      h+3     :     0.000000
      h-3     :     0.000000
      h+4     :     0.000000
      h-4     :    -0.000000
      h+5     :     0.000000
      h-5     :     0.000000
  1 N s       :     0.000000  s :     0.000000
      pz      :     0.000000  p :     0.000000
      px      :     0.000000
      py      :     0.000000
      dz2     :     0.000000  d :     0.000000
      dxz     :    -0.000000
      dyz     :     0.000000
      dx2y2   :     0.000000
      dxy     :     0.000000
      f0      :     0.000000  f :     0.000000
      f+1     :    -0.000000
      f-1     :    -0.000000
      f+2     :    -0.000000
      f-2     :     0.000000
      f+3     :    -0.000000
      f-3     :     0.000000
      g0      :     0.000000  g :     0.000000
      g+1     :    -0.000000
      g-1     :    -0.000000
      g+2     :    -0.000000
      g-2     :    -0.000000
      g+3     :    -0.000000
      g-3     :     0.000000
      g+4     :    -0.000000
      g-4     :    -0.000000
      h0      :    -0.000000  h :    -0.000000
      h+1     :    -0.000000
      h-1     :    -0.000000
      h+2     :    -0.000000
      h-2     :    -0.000000
      h+3     :    -0.000000
      h-3     :    -0.000000
      h+4     :    -0.000000
      h-4     :    -0.000000
      h+5     :     0.000000
      h-5     :     0.000000
  2 H s       :     0.000000  s :     0.000000
      pz      :     0.000000  p :     0.000000
      px      :     0.000000
      py      :     0.000000
      dz2     :     0.000000  d :     0.000000
      dxz     :     0.000000
      dyz     :     0.000000
      dx2y2   :    -0.000000
      dxy     :    -0.000000
      f0      :    -0.000000  f :    -0.000000
      f+1     :    -0.000000
      f-1     :     0.000000
      f+2     :    -0.000000
      f-2     :    -0.000000
      f+3     :     0.000000
      f-3     :    -0.000000
      g0      :     0.000000  g :     0.000000
      g+1     :    -0.000000
      g-1     :     0.000000
      g+2     :    -0.000000
      g-2     :    -0.000000
      g+3     :     0.000000
      g-3     :    -0.000000
      g+4     :     0.000000
      g-4     :    -0.000000


                      *****************************
                      * MAYER POPULATION ANALYSIS *
                      *****************************

  NA   - Mulliken gross atomic population
  ZA   - Total nuclear charge
  QA   - Mulliken gross atomic charge
  VA   - Mayer's total valence
  BVA  - Mayer's bonded valence
  FA   - Mayer's free valence

  ATOM       NA         ZA         QA         VA         BVA        FA
  0 C      6.1684     6.0000    -0.1684     3.0583     3.0583    -0.0000
  1 N      7.0820     7.0000    -0.0820     4.0547     4.0547    -0.0000
  2 H      0.7496     1.0000     0.2504     0.9439     0.9439     0.0000

  Mayer bond orders larger than 0.1
B(  0-C ,  1-N ) :   3.0845 B(  1-N ,  2-H ) :   0.9701 

-------
TIMINGS
-------

Total SCF time: 0 days 0 hours 48 min 44 sec 

Total time                  ....    2924.589 sec
Sum of individual times     ....    2923.888 sec  (100.0%)

Fock matrix formation       ....    2914.877 sec  ( 99.7%)
  XC integration            ....     112.099 sec  (  3.8% of F)
    Basis function eval.    ....       7.333 sec  (  6.5% of XC)
    Density eval.           ....      23.356 sec  ( 20.8% of XC)
    XC-Functional eval.     ....       1.003 sec  (  0.9% of XC)
    XC-Potential eval.      ....      79.564 sec  ( 71.0% of XC)
Diagonalization             ....       1.123 sec  (  0.0%)
Density matrix formation    ....       0.021 sec  (  0.0%)
Population analysis         ....       0.098 sec  (  0.0%)
Initial guess               ....       5.065 sec  (  0.2%)
Orbital Transformation      ....       0.000 sec  (  0.0%)
Orbital Orthonormalization  ....       0.000 sec  (  0.0%)
DIIS solution               ....       0.503 sec  (  0.0%)
Grid generation             ....       2.201 sec  (  0.1%)

-------------------------   --------------------
FINAL SINGLE POINT ENERGY       -93.330888163647
-------------------------   --------------------


                            ***************************************
                            *     ORCA property calculations      *
                            ***************************************

                                    ---------------------
                                    Active property flags
                                    ---------------------
   (+) Dipole Moment
   (+) Polarizability


------------------------------------------------------------------------------
                       ORCA ELECTRIC PROPERTIES CALCULATION
------------------------------------------------------------------------------

Dipole Moment Calculation                       ... on
Quadrupole Moment Calculation                   ... off
Polarizability Calculation                      ... Analytic (CP-SCF)
GBWName                                         ... hnc_pbe.gbw
Electron density file                           ... hnc_pbe.scfp.tmp
The origin for moment calculation is the CENTER OF MASS  = ( 0.000000,  0.000000 -0.098736)

-------------
DIPOLE MOMENT
-------------
                                X             Y             Z
Electronic contribution:      0.00000       0.00000      -0.17629
Nuclear contribution   :      0.00000       0.00000       1.38230
                        -----------------------------------------
Total Dipole Moment    :      0.00000       0.00000       1.20601
                        -----------------------------------------
Magnitude (a.u.)       :      1.20601
Magnitude (Debye)      :      3.06544



--------------------
Rotational spectrum 
--------------------
 
Rotational constants in cm-1:     0.000000     1.511184     1.511184 
Rotational constants in MHz :     0.000000 45304.158594 45304.158594 

 Dipole components along the rotational axes: 
x,y,z [a.u.] :     1.206014     0.000000     0.000000 
x,y,z [Debye]:     3.065443     0.000000     0.000000 

 
Transforming and storing MO dipole integrals   ... done

                ... starting polarizability calculation

Opening the Dipole integral file               ... (hnc_pbe.dmo.tmp) done
Reading Dipole-MO integrals                    ... done
Solving CP-SCF equations                       ... 
------------------------------------------------------------------------------
                           ORCA CP-SCF CALCULATION
------------------------------------------------------------------------------

Input orbitals are from        ... hnc_pbe.gbw
Input Perturbation             ... hnc_pbe.cpv.tmp
Wavefunction output            ... hnc_pbe.cpu.tmp
Perturbation mode              ... Real perturbation (singlet)
Solver                         ... POPLE
Max. number of iterations      ... 200
Convergence tolerance          ... 1.000e-06
Integral handling              ... Direct
Number of perturbations        ... 3
Number of operators            ... 2
Orbital ranges used for CP-SCF:
 Operator 0:  Orbitals   0...  6  to   7...377
 Operator 1:  Orbitals   0...  6  to   7...377
DFT calculation                         ... on
Exchange functional (SCF)               ... PBE
Exchange functional (CP-SCF)            ... PBE
   PBE kappa parameter  XKappa (SCF)    ...  0.804000
   PBE kappa parameter  XKappa (CP-SCF) ...  0.804000
   PBE mue parameter   XMuePBE (SCF)    ...  0.219520
   PBE mue parameter   XMuePBE (CP-SCF) ...  0.219520
Correlation functional (SCF)            ... PBE
Correlation functional (CP-SCF)         ... PBE
   PBE beta parameter CBetaPBE (SCF)    ...  0.066725
   PBE beta parameter CBetaPBE (CP-SCF) ...  0.066725
 LDA part of GGA corr.  LDAOpt (SCF)    ... PW91-LDA
 LDA part of GGA corr.  LDAOpt (CP-SCF) ... PW91-LDA
Variables per vector in CP-SCF ... 5194
Number of vectors sought       ... 3
Recalculating density on grid  ... done
Calculating the xc-kernel      ... done
     CP-SCF ITERATION   0: 
     CP-SCF ITERATION   1:      0.413906824541
     CP-SCF ITERATION   2:      0.018602203894
     CP-SCF ITERATION   3:      0.000114594471
     CP-SCF ITERATION   4:      0.000001393616
     CP-SCF ITERATION   5:      0.000000329177
done
Reading CP-SCF coefficients                    ... done
Doing the polarizability tensor   ... done
Cleaning up                                    ... done

-------------------------
THE POLARIZABILITY TENSOR
-------------------------

The raw cartesian tensor (atomic units):
   16.40260     -0.00000      0.00000  
   -0.00000     16.40260     -0.00000  
    0.00000     -0.00000     24.48168  
diagonalized tensor: 
   16.40260     16.40260     24.48168  

    0.96071      0.27754      0.00000  
    0.27754     -0.96071     -0.00000  
   -0.00000     -0.00000      1.00000  

Isotropic polarizability :  19.09562


Timings for individual modules:

Sum of individual times         ...     5178.405 sec (=  86.307 min)
GTO integral calculation        ...        1.410 sec (=   0.024 min)   0.0 %
SCF iterations                  ...     2924.607 sec (=  48.743 min)  56.5 %
Solution of CP-SCF eqns.        ...     2252.387 sec (=  37.540 min)  43.5 %
                             ****ORCA TERMINATED NORMALLY****
TOTAL RUN TIME: 0 days 1 hours 26 minutes 18 seconds 896 msec
