
                                 *****************
                                 * O   R   C   A *
                                 *****************

           --- An Ab Initio, DFT and Semiempirical electronic structure package ---

                  #######################################################
                  #                        -***-                        #
                  #          Department of theory and spectroscopy      #
                  #               Directorship: Frank Neese             #
                  #        Max Planck Institute fuer Kohlenforschung    #
                  #                Kaiser Wilhelm Platz 1               #
                  #                 D-45470 Muelheim/Ruhr               #
                  #                      Germany                        #
                  #                                                     #
                  #                  All rights reserved                #
                  #                        -***-                        #
                  #######################################################


                         Program Version 4.1.2  - RELEASE  -


 With contributions from (in alphabetic order):
   Daniel Aravena         : Magnetic Properties
   Michael Atanasov       : Ab Initio Ligand Field Theory
   Alexander A. Auer      : GIAO ZORA
   Ute Becker             : Parallelization
   Giovanni Bistoni       : ED, Open-shell LED
   Martin Brehm           : Molecular dynamics
   Dmytro Bykov           : SCF Hessian
   Vijay G. Chilkuri      : MRCI spin determinant printing
   Dipayan Datta          : RHF DLPNO-CCSD density
   Achintya Kumar Dutta   : EOM-CC, STEOM-CC
   Dmitry Ganyushin       : Spin-Orbit,Spin-Spin,Magnetic field MRCI
   Miquel Garcia          : C-PCM Hessian
   Yang Guo               : DLPNO-NEVPT2, CIM, IAO-localization
   Andreas Hansen         : Spin unrestricted coupled pair/coupled cluster methods
   Benjamin Helmich-Paris : CASSCF linear response (MC-RPA)
   Lee Huntington         : MR-EOM, pCC
   Robert Izsak           : Overlap fitted RIJCOSX, COSX-SCS-MP3, EOM
   Christian Kollmar      : KDIIS, OOCD, Brueckner-CCSD(T), CCSD density
   Simone Kossmann        : Meta GGA functionals, TD-DFT gradient, OOMP2, MP2 Hessian
   Martin Krupicka        : AUTO-CI
   Lucas Lang             : DCDCAS
   Dagmar Lenk            : GEPOL surface, SMD
   Dimitrios Liakos       : Extrapolation schemes; parallel MDCI
   Dimitrios Manganas     : ROCIS; embedding schemes
   Dimitrios Pantazis     : SARC Basis sets
   Taras Petrenko         : DFT Hessian,TD-DFT gradient, ASA, ECA, R-Raman, ABS, FL, XAS/XES, NRVS
   Peter Pinski           : DLPNO-MP2, DLPNO-MP2 Gradient
   Christoph Reimann      : Effective Core Potentials
   Marius Retegan         : Local ZFS, SOC
   Christoph Riplinger    : Optimizer, TS searches, QM/MM, DLPNO-CCSD(T), (RO)-DLPNO pert. Triples
   Tobias Risthaus        : Range-separated hybrids, TD-DFT gradient, RPA, STAB
   Michael Roemelt        : Restricted open shell CIS
   Masaaki Saitow         : Open-shell DLPNO
   Barbara Sandhoefer     : DKH picture change effects
   Avijit Sen             : IP-ROCIS
   Kantharuban Sivalingam : CASSCF convergence, NEVPT2, FIC-MRCI
   Bernardo de Souza      : ESD, SOC TD-DFT
   Georgi Stoychev        : AutoAux, RI-MP2 NMR
   Willem Van den Heuvel  : Paramagnetic NMR
   Boris Wezisla          : Elementary symmetry handling
   Frank Wennmohs         : Technical directorship


 We gratefully acknowledge several colleagues who have allowed us to
 interface, adapt or use parts of their codes:
   Stefan Grimme, W. Hujo, H. Kruse,             : VdW corrections, initial TS optimization,
                  C. Bannwarth                     DFT functionals, gCP, sTDA/sTD-DF
   Ed Valeev                                     : LibInt (2-el integral package), F12 methods
   Garnet Chan, S. Sharma, J. Yang, R. Olivares  : DMRG
   Ulf Ekstrom                                   : XCFun DFT Library
   Mihaly Kallay                                 : mrcc  (arbitrary order and MRCC methods)
   Andreas Klamt, Michael Diedenhofen            : otool_cosmo (COSMO solvation model)
   Jiri Pittner, Ondrej Demel                    : Mk-CCSD
   Frank Weinhold                                : gennbo (NPA and NBO analysis)
   Christopher J. Cramer and Donald G. Truhlar   : smd solvation model
   Lars Goerigk                                  : TD-DFT with DH, B97 family of functionals
   V. Asgeirsson, H. Jonsson                     : NEB implementation
   FAccTs GmbH                                   : IRC, NEB, NEB-TS, Multilevel


 Your calculation uses the libint2 library for the computation of 2-el integrals
 For citations please refer to: http://libint.valeyev.net

 This ORCA versions uses:
   CBLAS   interface :  Fast vector & matrix operations
   LAPACKE interface :  Fast linear algebra routines
   SCALAPACK package :  Parallel linear algebra routines


----- Orbital basis set information -----
Your calculation utilizes the basis: aug-pc-4
   H, C-F              : F. Jensen, J. Chem. Phys. 115, 9113 (2001).
                         F. Jensen, J. Chem. Phys. 116, 7372 (2002).
                         F. Jensen, J. Chem. Phys. 117, 9234 (2002).
   Si-Cl               : F. Jensen, T. Helgaker, J. Chem. Phys. 121, 3463 (2004).
   He-B, Ne-Mg, Al, Ar : F. Jensen, J. Phys. Chem. A 111, 11198 (2007).
   K, Ca, Ga-Kr        : F. Jensen, J. Chem. Phys. 136, 094110 (2012).
   Sc-Zn               : F. Jensen, J. Chem. Phys. 138, 014107 (2013).

================================================================================
                                        WARNINGS
                       Please study these warnings very carefully!
================================================================================


INFO   : the flag for use of LIBINT has been found!

================================================================================
                                       INPUT FILE
================================================================================
NAME = hno_pbe.inp
|  1> !uks pbe nori aug-pc-4 grid7 nofinalgrid verytightscf
|  2> 
|  3> %maxcore 1500
|  4> 
|  5> %pal nprocs 1 end
|  6> 
|  7> %scf
|  8> 	maxiter 200
|  9> end
| 10> %elprop
| 11> 	dipole true
| 12> 	 polar 1
| 13> 	 maxiter 200
| 14> end
| 15> 
| 16> * xyz 0 1
| 17> H 0.0000 -0.9718 0.9211
| 18> N 0.0000 0.0648 0.5834
| 19> O 0.0000 0.0648 -0.6256
| 20> *
| 21> 
| 22>                          ****END OF INPUT****
================================================================================

                       ****************************
                       * Single Point Calculation *
                       ****************************

---------------------------------
CARTESIAN COORDINATES (ANGSTROEM)
---------------------------------
  H      0.000000   -0.971800    0.921100
  N      0.000000    0.064800    0.583400
  O      0.000000    0.064800   -0.625600

----------------------------
CARTESIAN COORDINATES (A.U.)
----------------------------
  NO LB      ZA    FRAG     MASS         X           Y           Z
   0 H     1.0000    0     1.008    0.000000   -1.836436    1.740627
   1 N     7.0000    0    14.007    0.000000    0.122454    1.102466
   2 O     8.0000    0    15.999    0.000000    0.122454   -1.182213

--------------------------------
INTERNAL COORDINATES (ANGSTROEM)
--------------------------------
 H      0   0   0     0.000000000000     0.00000000     0.00000000
 N      1   0   0     1.090220551081     0.00000000     0.00000000
 O      2   1   0     1.209000000000   108.04439626     0.00000000

---------------------------
INTERNAL COORDINATES (A.U.)
---------------------------
 H      0   0   0     0.000000000000     0.00000000     0.00000000
 N      1   0   0     2.060218267116     0.00000000     0.00000000
 O      2   1   0     2.284678895911   108.04439626     0.00000000

---------------------
BASIS SET INFORMATION
---------------------
There are 3 groups of distinct atoms

 Group   1 Type H   : 12s7p4d3f2g contracted to 8s7p4d3f2g pattern {51111111/1111111/1111/111/11}
 Group   2 Type N   : 27s12p7d4f3g2h contracted to 9s8p7d4f3g2h pattern {1191111111/51111111/1111111/1111/111/11}
 Group   3 Type O   : 27s12p7d4f3g2h contracted to 9s8p7d4f3g2h pattern {1191111111/51111111/1111111/1111/111/11}

Atom   0H    basis set group =>   1
Atom   1N    basis set group =>   2
Atom   2O    basis set group =>   3
------------------------------------------------------------------------------
                           ORCA GTO INTEGRAL CALCULATION
------------------------------------------------------------------------------

                         BASIS SET STATISTICS AND STARTUP INFO

 # of primitive gaussian shells          ...  138
 # of primitive gaussian functions       ...  442
 # of contracted shells                  ...   90
 # of contracted basis functions         ...  378
 Highest angular momentum                ...    5
 Maximum contraction depth               ...   11
 Integral package used                   ... LIBINT
 Integral threshhold            Thresh   ...  1.000e-12
 Primitive cut-off              TCut     ...  1.000e-14


------------------------------ INTEGRAL EVALUATION ----------------------------


 * One electron integrals 
 Pre-screening matrix                    ... done
 Shell pair data                         ... done (   0.001 sec)

-------------------------------------------------------------------------------
                                 ORCA SCF
-------------------------------------------------------------------------------

------------
SCF SETTINGS
------------
Hamiltonian:
 Density Functional     Method          .... DFT(GTOs)
 Exchange Functional    Exchange        .... PBE
   PBE kappa parameter   XKappa         ....  0.804000
   PBE mue parameter    XMuePBE         ....  0.219520
 Correlation Functional Correlation     .... PBE
   PBE beta parameter  CBetaPBE         ....  0.066725
 LDA part of GGA corr.  LDAOpt          .... PW91-LDA
 Gradients option       PostSCFGGA      .... off
   Density functional embedding theory  .... OFF
   NL short-range parameter             ....  6.400000


General Settings:
 Integral files         IntName         .... hno_pbe
 Hartree-Fock type      HFTyp           .... UHF
 Total Charge           Charge          ....    0
 Multiplicity           Mult            ....    1
 Number of Electrons    NEL             ....   16
 Basis Dimension        Dim             ....  378
 Nuclear Repulsion      ENuc            ....     30.1824609529 Eh

Convergence Acceleration:
 DIIS                   CNVDIIS         .... on
   Start iteration      DIISMaxIt       ....    12
   Startup error        DIISStart       ....  0.200000
   # of expansion vecs  DIISMaxEq       ....     5
   Bias factor          DIISBfac        ....   1.050
   Max. coefficient     DIISMaxC        ....  10.000
 Newton-Raphson         CNVNR           .... off
 SOSCF                  CNVSOSCF        .... off
 Level Shifting         CNVShift        .... on
   Level shift para.    LevelShift      ....    0.2500
   Turn off err/grad.   ShiftErr        ....    0.0010
 Zerner damping         CNVZerner       .... off
 Static damping         CNVDamp         .... on
   Fraction old density DampFac         ....    0.7000
   Max. Damping (<1)    DampMax         ....    0.9800
   Min. Damping (>=0)   DampMin         ....    0.0000
   Turn off err/grad.   DampErr         ....    0.1000
 Fernandez-Rico         CNVRico         .... off

SCF Procedure:
 Maximum # iterations   MaxIter         ....   200
 SCF integral mode      SCFMode         .... Direct
   Integral package                     .... LIBINT
 Reset frequency        DirectResetFreq ....    20
 Integral Threshold     Thresh          ....  1.000e-12 Eh
 Primitive CutOff       TCut            ....  1.000e-14 Eh

Convergence Tolerance:
 Convergence Check Mode ConvCheckMode   .... Total+1el-Energy
 Convergence forced     ConvForced      .... 0
 Energy Change          TolE            ....  1.000e-09 Eh
 1-El. energy change                    ....  1.000e-06 Eh
 DIIS Error             TolErr          ....  1.000e-08


Diagonalization of the overlap matrix:
Smallest eigenvalue                        ... 1.790e-06
Time for diagonalization                   ...    0.029 sec
Threshold for overlap eigenvalues          ... 1.000e-08
Number of eigenvalues below threshold      ... 0
Time for construction of square roots      ...    0.018 sec
Total time needed                          ...    0.047 sec

-------------------
DFT GRID GENERATION
-------------------

General Integration Accuracy     IntAcc      ...  5.670
Radial Grid Type                 RadialGrid  ... Gauss-Chebyshev
Angular Grid (max. acc.)         AngularGrid ... Lebedev-770
Angular grid pruning method      GridPruning ... 3 (G Style)
Weight generation scheme         WeightScheme... Becke
Basis function cutoff            BFCut       ...    1.0000e-12
Integration weight cutoff        WCut        ...    1.0000e-14
Grids for H and He will be reduced by one unit

# of grid points (after initial pruning)     ...  67880 (   0.0 sec)
# of grid points (after weights+screening)   ...  67218 (   0.0 sec)
nearest neighbour list constructed           ...    0.0 sec
Grid point re-assignment to atoms done       ...    0.0 sec
Grid point division into batches done        ...    1.3 sec
Reduced shell lists constructed in    2.1 sec

Total number of grid points                  ...    67218
Total number of batches                      ...     1053
Average number of points per batch           ...       63
Average number of grid points per atom       ...    22406
Average number of shells per batch           ...    68.19 (75.76%)
Average number of basis functions per batch  ...   296.68 (78.49%)
Average number of large shells per batch     ...    61.35 (89.97%)
Average number of large basis fcns per batch ...   268.29 (90.43%)
Maximum spatial batch extension              ...  25.70, 22.11, 20.69 au
Average spatial batch extension              ...   2.26,  2.16,  2.10 au

Time for grid setup =    2.111 sec

------------------------------
INITIAL GUESS: MODEL POTENTIAL
------------------------------
Loading Hartree-Fock densities                     ... done
Calculating cut-offs                               ... done
Setting up the integral package                    ... done
Initializing the effective Hamiltonian             ... done
Starting the Coulomb interaction                   ... done (   0.1 sec)
Reading the grid                                   ... done
Mapping shells                                     ... done
Starting the XC term evaluation                    ... done (   4.3 sec)
  promolecular density results
     # of electrons  =     15.999509758
     EX              =    -14.902742915
     EC              =     -0.522070094
     EX+EC           =    -15.424813009
Transforming the Hamiltonian                       ... done (   0.0 sec)
Diagonalizing the Hamiltonian                      ... done (   0.0 sec)
Back transforming the eigenvectors                 ... done (   0.0 sec)
Now organizing SCF variables                       ... done
                      ------------------
                      INITIAL GUESS DONE (   6.6 sec)
                      ------------------
--------------
SCF ITERATIONS
--------------
ITER       Energy         Delta-E        Max-DP      RMS-DP      [F,P]     Damp
               ***  Starting incremental Fock matrix formation  ***
  0   -130.3813239772   0.000000000000 0.00664908  0.00009090  0.1438320 0.7000
  1   -130.3946309169  -0.013306939724 0.00355045  0.00005912  0.0368376 0.7000
                               ***Turning on DIIS***
  2   -130.3980721509  -0.003441234015 0.00851479  0.00011792  0.0222604 0.0000
  3   -130.4060533787  -0.007981227785 0.00366575  0.00004086  0.0347839 0.0000
  4   -130.4072745172  -0.001221138514 0.00114071  0.00001581  0.0138914 0.0000
  5   -130.4074673111  -0.000192793846 0.00059189  0.00000698  0.0032839 0.0000
  6   -130.4074812540  -0.000013942863 0.00044638  0.00000571  0.0002814 0.0000
  7   -130.4074817245  -0.000000470586 0.00004761  0.00000057  0.0002186 0.0000
  8   -130.4074818033  -0.000000078721 0.00000576  0.00000008  0.0000290 0.0000
  9   -130.4074818041  -0.000000000868 0.00000215  0.00000003  0.0000208 0.0000
 10   -130.4074818044  -0.000000000285 0.00000408  0.00000005  0.0000088 0.0000
 11   -130.4074818045  -0.000000000066 0.00000592  0.00000009  0.0000012 0.0000
 12   -130.4074818045   0.000000000002 0.00000587  0.00000010  0.0000002 0.0000
 13   -130.4074818045  -0.000000000007 0.00003639  0.00000030  0.0000001 0.0000
                 **** Energy Check signals convergence ****

               *****************************************************
               *                     SUCCESS                       *
               *           SCF CONVERGED AFTER  14 CYCLES          *
               *****************************************************


----------------
TOTAL SCF ENERGY
----------------

Total Energy       :         -130.40748180 Eh           -3548.56799 eV

Components:
Nuclear Repulsion  :           30.18246095 Eh             821.30652 eV
Electronic Energy  :         -160.58994276 Eh           -4369.87450 eV
One Electron Energy:         -237.56370021 Eh           -6464.43693 eV
Two Electron Energy:           76.97375746 Eh            2094.56243 eV

Virial components:
Potential Energy   :         -260.35987727 Eh           -7084.75244 eV
Kinetic Energy     :          129.95239547 Eh            3536.18446 eV
Virial Ratio       :            2.00350195


DFT components:
N(Alpha)           :        7.999999850718 electrons
N(Beta)            :        7.999999850718 electrons
N(Total)           :       15.999999701436 electrons
E(X)               :      -15.068729287954 Eh       
E(C)               :       -0.524325943486 Eh       
E(XC)              :      -15.593055231440 Eh       
DFET-embed. en.    :        0.000000000000 Eh       

---------------
SCF CONVERGENCE
---------------

  Last Energy change         ...   -3.9790e-13  Tolerance :   1.0000e-09
  Last MAX-Density change    ...    1.8610e-05  Tolerance :   1.0000e-08
  Last RMS-Density change    ...    2.2174e-07  Tolerance :   1.0000e-09
  Last DIIS Error            ...    1.9095e-08  Tolerance :   1.0000e-08

             **** THE GBW FILE WAS UPDATED (hno_pbe.gbw) ****
             **** DENSITY FILE WAS UPDATED (hno_pbe.scfp.tmp) ****
             **** ENERGY FILE WAS UPDATED (hno_pbe.en.tmp) ****
----------------------
UHF SPIN CONTAMINATION
----------------------

Warning: in a DFT calculation there is little theoretical justification to 
         calculate <S**2> as in Hartree-Fock theory. We will do it anyways
         but you should keep in mind that the values have only limited relevance

Expectation value of <S**2>     :     0.000000
Ideal value S*(S+1) for S=0.0   :     0.000000
Deviation                       :     0.000000

----------------
ORBITAL ENERGIES
----------------
                 SPIN UP ORBITALS
  NO   OCC          E(Eh)            E(eV) 
   0   1.0000     -18.839358      -512.6450 
   1   1.0000     -14.116318      -384.1245 
   2   1.0000      -1.092408       -29.7259 
   3   1.0000      -0.659780       -17.9535 
   4   1.0000      -0.483455       -13.1555 
   5   1.0000      -0.434457       -11.8222 
   6   1.0000      -0.404048       -10.9947 
   7   1.0000      -0.205709        -5.5976 
   8   0.0000      -0.163438        -4.4474 
   9   0.0000      -0.026133        -0.7111 
  10   0.0000       0.014898         0.4054 
  11   0.0000       0.021273         0.5789 
  12   0.0000       0.023455         0.6383 
  13   0.0000       0.039304         1.0695 
  14   0.0000       0.054193         1.4747 
  15   0.0000       0.057247         1.5578 
  16   0.0000       0.061303         1.6681 
  17   0.0000       0.068754         1.8709 
  18   0.0000       0.081040         2.2052 
  19   0.0000       0.084986         2.3126 
  20   0.0000       0.112779         3.0689 
  21   0.0000       0.116789         3.1780 
  22   0.0000       0.125026         3.4021 
  23   0.0000       0.139007         3.7826 
  24   0.0000       0.158386         4.3099 
  25   0.0000       0.169614         4.6154 
  26   0.0000       0.172663         4.6984 
  27   0.0000       0.176410         4.8004 
  28   0.0000       0.179416         4.8822 
  29   0.0000       0.179742         4.8910 
  30   0.0000       0.184395         5.0177 
  31   0.0000       0.185853         5.0573 
  32   0.0000       0.191700         5.2164 
  33   0.0000       0.196988         5.3603 
  34   0.0000       0.220095         5.9891 
  35   0.0000       0.221781         6.0350 
  36   0.0000       0.237545         6.4639 
  37   0.0000       0.249464         6.7883 
  38   0.0000       0.251865         6.8536 
  39   0.0000       0.281675         7.6648 
  40   0.0000       0.286921         7.8075 
  41   0.0000       0.300166         8.1679 
  42   0.0000       0.302652         8.2356 
  43   0.0000       0.307869         8.3776 
  44   0.0000       0.318035         8.6542 
  45   0.0000       0.326957         8.8970 
  46   0.0000       0.335719         9.1354 
  47   0.0000       0.343982         9.3602 
  48   0.0000       0.355445         9.6721 
  49   0.0000       0.365425         9.9437 
  50   0.0000       0.369864        10.0645 
  51   0.0000       0.390788        10.6339 
  52   0.0000       0.404215        10.9992 
  53   0.0000       0.407867        11.0986 
  54   0.0000       0.413290        11.2462 
  55   0.0000       0.424861        11.5611 
  56   0.0000       0.430682        11.7194 
  57   0.0000       0.431193        11.7334 
  58   0.0000       0.436609        11.8807 
  59   0.0000       0.438697        11.9375 
  60   0.0000       0.439722        11.9654 
  61   0.0000       0.445444        12.1211 
  62   0.0000       0.446249        12.1431 
  63   0.0000       0.475682        12.9440 
  64   0.0000       0.482871        13.1396 
  65   0.0000       0.484541        13.1850 
  66   0.0000       0.516539        14.0557 
  67   0.0000       0.516583        14.0569 
  68   0.0000       0.521333        14.1862 
  69   0.0000       0.528538        14.3823 
  70   0.0000       0.533716        14.5232 
  71   0.0000       0.548970        14.9382 
  72   0.0000       0.565421        15.3859 
  73   0.0000       0.576139        15.6775 
  74   0.0000       0.578558        15.7434 
  75   0.0000       0.606772        16.5111 
  76   0.0000       0.613181        16.6855 
  77   0.0000       0.620926        16.8963 
  78   0.0000       0.632496        17.2111 
  79   0.0000       0.641330        17.4515 
  80   0.0000       0.659318        17.9409 
  81   0.0000       0.660512        17.9734 
  82   0.0000       0.674885        18.3645 
  83   0.0000       0.680986        18.5306 
  84   0.0000       0.683096        18.5880 
  85   0.0000       0.691444        18.8152 
  86   0.0000       0.705754        19.2045 
  87   0.0000       0.712949        19.4003 
  88   0.0000       0.722980        19.6733 
  89   0.0000       0.729258        19.8441 
  90   0.0000       0.751721        20.4554 
  91   0.0000       0.758692        20.6451 
  92   0.0000       0.764776        20.8106 
  93   0.0000       0.769582        20.9414 
  94   0.0000       0.795286        21.6408 
  95   0.0000       0.814858        22.1734 
  96   0.0000       0.817640        22.2491 
  97   0.0000       0.836492        22.7621 
  98   0.0000       0.837277        22.7835 
  99   0.0000       0.850232        23.1360 
 100   0.0000       0.854785        23.2599 
 101   0.0000       0.864767        23.5315 
 102   0.0000       0.865666        23.5560 
 103   0.0000       0.875343        23.8193 
 104   0.0000       0.892978        24.2992 
 105   0.0000       0.893335        24.3089 
 106   0.0000       0.899714        24.4825 
 107   0.0000       0.910130        24.7659 
 108   0.0000       0.914925        24.8964 
 109   0.0000       0.928758        25.2728 
 110   0.0000       0.930119        25.3098 
 111   0.0000       0.935144        25.4466 
 112   0.0000       0.942092        25.6356 
 113   0.0000       0.943320        25.6690 
 114   0.0000       0.955220        25.9928 
 115   0.0000       0.971891        26.4465 
 116   0.0000       0.975622        26.5480 
 117   0.0000       0.993452        27.0332 
 118   0.0000       1.019566        27.7438 
 119   0.0000       1.027894        27.9704 
 120   0.0000       1.032485        28.0954 
 121   0.0000       1.047432        28.5021 
 122   0.0000       1.062870        28.9222 
 123   0.0000       1.063749        28.9461 
 124   0.0000       1.077708        29.3259 
 125   0.0000       1.101099        29.9624 
 126   0.0000       1.166041        31.7296 
 127   0.0000       1.167702        31.7748 
 128   0.0000       1.175048        31.9747 
 129   0.0000       1.175259        31.9804 
 130   0.0000       1.193540        32.4779 
 131   0.0000       1.218906        33.1681 
 132   0.0000       1.238474        33.7006 
 133   0.0000       1.251434        34.0533 
 134   0.0000       1.268535        34.5186 
 135   0.0000       1.282048        34.8863 
 136   0.0000       1.310166        35.6514 
 137   0.0000       1.341712        36.5099 
 138   0.0000       1.362563        37.0772 
 139   0.0000       1.380335        37.5608 
 140   0.0000       1.418295        38.5938 
 141   0.0000       1.445224        39.3266 
 142   0.0000       1.494279        40.6614 
 143   0.0000       1.526734        41.5445 
 144   0.0000       1.552763        42.2528 
 145   0.0000       1.556832        42.3635 
 146   0.0000       1.561890        42.5012 
 147   0.0000       1.593016        43.3482 
 148   0.0000       1.657563        45.1046 
 149   0.0000       1.706669        46.4408 
 150   0.0000       1.741250        47.3818 
 151   0.0000       1.770169        48.1687 
 152   0.0000       1.785582        48.5882 
 153   0.0000       1.822781        49.6004 
 154   0.0000       1.847312        50.2679 
 155   0.0000       1.892009        51.4842 
 156   0.0000       1.914454        52.0949 
 157   0.0000       1.980428        53.8902 
 158   0.0000       2.033105        55.3236 
 159   0.0000       2.065168        56.1961 
 160   0.0000       2.072762        56.4027 
 161   0.0000       2.121365        57.7253 
 162   0.0000       2.131932        58.0128 
 163   0.0000       2.177996        59.2663 
 164   0.0000       2.180517        59.3349 
 165   0.0000       2.305378        62.7325 
 166   0.0000       2.364675        64.3461 
 167   0.0000       2.372202        64.5509 
 168   0.0000       2.445090        66.5343 
 169   0.0000       2.458758        66.9062 
 170   0.0000       2.523037        68.6553 
 171   0.0000       2.544737        69.2458 
 172   0.0000       2.673405        72.7471 
 173   0.0000       2.700279        73.4783 
 174   0.0000       2.722711        74.0887 
 175   0.0000       2.906821        79.0986 
 176   0.0000       2.921068        79.4863 
 177   0.0000       2.939229        79.9805 
 178   0.0000       2.965708        80.7010 
 179   0.0000       3.021258        82.2126 
 180   0.0000       3.098360        84.3107 
 181   0.0000       3.168700        86.2247 
 182   0.0000       3.283526        89.3493 
 183   0.0000       3.291536        89.5673 
 184   0.0000       3.346860        91.0727 
 185   0.0000       3.425199        93.2044 
 186   0.0000       3.508542        95.4723 
 187   0.0000       3.521262        95.8184 
 188   0.0000       3.629442        98.7621 
 189   0.0000       3.652981        99.4027 
 190   0.0000       3.728879       101.4680 
 191   0.0000       3.766029       102.4789 
 192   0.0000       3.850797       104.7855 
 193   0.0000       3.870762       105.3288 
 194   0.0000       4.029528       109.6490 
 195   0.0000       4.083868       111.1277 
 196   0.0000       4.121352       112.1477 
 197   0.0000       4.143824       112.7592 
 198   0.0000       4.150310       112.9357 
 199   0.0000       4.208747       114.5258 
 200   0.0000       4.285062       116.6025 
 201   0.0000       4.350779       118.3907 
 202   0.0000       4.369891       118.9108 
 203   0.0000       4.465416       121.5101 
 204   0.0000       4.472057       121.6909 
 205   0.0000       4.559150       124.0608 
 206   0.0000       4.560822       124.1063 
 207   0.0000       4.603487       125.2673 
 208   0.0000       4.797033       130.5339 
 209   0.0000       4.799921       130.6125 
 210   0.0000       4.917074       133.8004 
 211   0.0000       4.998252       136.0093 
 212   0.0000       5.114739       139.1791 
 213   0.0000       5.153327       140.2291 
 214   0.0000       5.172803       140.7591 
 215   0.0000       5.209846       141.7671 
 216   0.0000       5.326952       144.9537 
 217   0.0000       5.374201       146.2394 
 218   0.0000       5.403602       147.0395 
 219   0.0000       5.552100       151.0803 
 220   0.0000       5.581205       151.8723 
 221   0.0000       5.626221       153.0973 
 222   0.0000       5.684103       154.6723 
 223   0.0000       5.888644       160.2382 
 224   0.0000       5.969093       162.4273 
 225   0.0000       5.975741       162.6082 
 226   0.0000       6.023468       163.9069 
 227   0.0000       6.076876       165.3602 
 228   0.0000       6.175268       168.0376 
 229   0.0000       6.292747       171.2343 
 230   0.0000       6.361945       173.1173 
 231   0.0000       6.405807       174.3109 
 232   0.0000       6.435698       175.1242 
 233   0.0000       6.580426       179.0625 
 234   0.0000       6.592286       179.3852 
 235   0.0000       6.741280       183.4396 
 236   0.0000       6.761064       183.9779 
 237   0.0000       6.967916       189.6066 
 238   0.0000       7.224038       196.5761 
 239   0.0000       7.269656       197.8174 
 240   0.0000       7.434388       202.3000 
 241   0.0000       7.493753       203.9154 
 242   0.0000       7.557738       205.6565 
 243   0.0000       7.624285       207.4673 
 244   0.0000       7.783257       211.7932 
 245   0.0000       7.842827       213.4142 
 246   0.0000       8.234555       224.0736 
 247   0.0000       8.377522       227.9640 
 248   0.0000       8.409147       228.8245 
 249   0.0000       8.493231       231.1126 
 250   0.0000       8.734106       237.6671 
 251   0.0000       8.900357       242.1910 
 252   0.0000       8.912257       242.5148 
 253   0.0000       9.000460       244.9150 
 254   0.0000       9.119011       248.1409 
 255   0.0000       9.246638       251.6138 
 256   0.0000       9.266437       252.1526 
 257   0.0000       9.383932       255.3498 
 258   0.0000       9.453187       257.2343 
 259   0.0000       9.526922       259.2407 
 260   0.0000       9.722627       264.5661 
 261   0.0000      10.033718       273.0314 
 262   0.0000      10.052552       273.5439 
 263   0.0000      10.256549       279.0949 
 264   0.0000      10.693657       290.9892 
 265   0.0000      10.893353       296.4232 
 266   0.0000      10.951347       298.0013 
 267   0.0000      10.982680       298.8539 
 268   0.0000      11.098118       301.9952 
 269   0.0000      11.123031       302.6730 
 270   0.0000      11.135682       303.0173 
 271   0.0000      11.152014       303.4617 
 272   0.0000      11.198448       304.7253 
 273   0.0000      11.234811       305.7148 
 274   0.0000      11.275722       306.8280 
 275   0.0000      11.364031       309.2310 
 276   0.0000      11.372362       309.4577 
 277   0.0000      11.477721       312.3247 
 278   0.0000      11.540735       314.0394 
 279   0.0000      11.625414       316.3436 
 280   0.0000      11.675409       317.7040 
 281   0.0000      11.988789       326.2315 
 282   0.0000      11.991085       326.2940 
 283   0.0000      12.056613       328.0771 
 284   0.0000      12.094931       329.1198 
 285   0.0000      12.139526       330.3333 
 286   0.0000      12.279085       334.1309 
 287   0.0000      12.291594       334.4713 
 288   0.0000      12.323511       335.3398 
 289   0.0000      12.451181       338.8139 
 290   0.0000      12.660266       344.5034 
 291   0.0000      12.671464       344.8081 
 292   0.0000      12.676389       344.9421 
 293   0.0000      12.742711       346.7468 
 294   0.0000      12.829855       349.1181 
 295   0.0000      12.844593       349.5192 
 296   0.0000      12.952375       352.4520 
 297   0.0000      12.954274       352.5037 
 298   0.0000      13.039916       354.8342 
 299   0.0000      13.435565       365.6003 
 300   0.0000      13.556983       368.9043 
 301   0.0000      13.595846       369.9618 
 302   0.0000      13.685364       372.3977 
 303   0.0000      13.762933       374.5084 
 304   0.0000      14.068146       382.8137 
 305   0.0000      14.613968       397.6663 
 306   0.0000      14.797228       402.6530 
 307   0.0000      14.806144       402.8957 
 308   0.0000      14.930531       406.2804 
 309   0.0000      14.987932       407.8424 
 310   0.0000      15.134564       411.8324 
 311   0.0000      15.142989       412.0617 
 312   0.0000      15.292242       416.1231 
 313   0.0000      15.317739       416.8169 
 314   0.0000      15.460618       420.7048 
 315   0.0000      15.608349       424.7248 
 316   0.0000      15.688612       426.9088 
 317   0.0000      15.842558       431.0979 
 318   0.0000      16.056406       436.9170 
 319   0.0000      16.385297       445.8666 
 320   0.0000      16.699628       454.4200 
 321   0.0000      16.708286       454.6556 
 322   0.0000      16.876202       459.2248 
 323   0.0000      16.946499       461.1377 
 324   0.0000      16.965286       461.6489 
 325   0.0000      17.082588       464.8408 
 326   0.0000      17.105580       465.4665 
 327   0.0000      17.135910       466.2918 
 328   0.0000      17.191137       467.7946 
 329   0.0000      17.210069       468.3098 
 330   0.0000      17.273490       470.0356 
 331   0.0000      17.276919       470.1289 
 332   0.0000      17.412321       473.8133 
 333   0.0000      17.899012       487.0569 
 334   0.0000      17.918822       487.5959 
 335   0.0000      17.941658       488.2173 
 336   0.0000      18.019627       490.3390 
 337   0.0000      18.607384       506.3327 
 338   0.0000      18.701680       508.8986 
 339   0.0000      18.758828       510.4537 
 340   0.0000      18.909167       514.5446 
 341   0.0000      19.136144       520.7209 
 342   0.0000      19.950022       542.8677 
 343   0.0000      20.017334       544.6993 
 344   0.0000      20.360377       554.0340 
 345   0.0000      21.083424       573.7091 
 346   0.0000      22.967187       624.9689 
 347   0.0000      23.026778       626.5905 
 348   0.0000      23.329527       634.8287 
 349   0.0000      23.461901       638.4308 
 350   0.0000      23.614661       642.5876 
 351   0.0000      24.171965       657.7526 
 352   0.0000      24.422849       664.5795 
 353   0.0000      25.387482       690.8285 
 354   0.0000      25.844495       703.2645 
 355   0.0000      26.071916       709.4529 
 356   0.0000      27.314165       743.2562 
 357   0.0000      28.894919       786.2707 
 358   0.0000      30.707763       835.6007 
 359   0.0000      31.870043       867.2280 
 360   0.0000      32.060174       872.4017 
 361   0.0000      34.164426       929.6613 
 362   0.0000      40.887972      1112.6183 
 363   0.0000      47.732706      1298.8730 
 364   0.0000      47.849515      1302.0515 
 365   0.0000      47.880602      1302.8974 
 366   0.0000      48.351284      1315.7053 
 367   0.0000      49.203340      1338.8910 
 368   0.0000      66.523676      1810.2012 
 369   0.0000      66.571850      1811.5121 
 370   0.0000      67.151939      1827.2972 
 371   0.0000      67.295981      1831.2167 
 372   0.0000      68.907837      1875.0776 
 373   0.0000      90.912481      2473.8544 
 374   0.0000      91.009230      2476.4870 
 375   0.0000      92.334589      2512.5519 
 376   0.0000     105.624651      2874.1929 
 377   0.0000     143.491089      3904.5910 

                 SPIN DOWN ORBITALS
  NO   OCC          E(Eh)            E(eV) 
   0   1.0000     -18.839358      -512.6450 
   1   1.0000     -14.116318      -384.1245 
   2   1.0000      -1.092408       -29.7259 
   3   1.0000      -0.659780       -17.9535 
   4   1.0000      -0.483455       -13.1555 
   5   1.0000      -0.434457       -11.8222 
   6   1.0000      -0.404048       -10.9947 
   7   1.0000      -0.205709        -5.5976 
   8   0.0000      -0.163438        -4.4474 
   9   0.0000      -0.026133        -0.7111 
  10   0.0000       0.014898         0.4054 
  11   0.0000       0.021273         0.5789 
  12   0.0000       0.023455         0.6383 
  13   0.0000       0.039304         1.0695 
  14   0.0000       0.054193         1.4747 
  15   0.0000       0.057247         1.5578 
  16   0.0000       0.061303         1.6681 
  17   0.0000       0.068754         1.8709 
  18   0.0000       0.081040         2.2052 
  19   0.0000       0.084986         2.3126 
  20   0.0000       0.112779         3.0689 
  21   0.0000       0.116789         3.1780 
  22   0.0000       0.125026         3.4021 
  23   0.0000       0.139007         3.7826 
  24   0.0000       0.158386         4.3099 
  25   0.0000       0.169614         4.6154 
  26   0.0000       0.172663         4.6984 
  27   0.0000       0.176410         4.8004 
  28   0.0000       0.179416         4.8822 
  29   0.0000       0.179742         4.8910 
  30   0.0000       0.184395         5.0177 
  31   0.0000       0.185853         5.0573 
  32   0.0000       0.191700         5.2164 
  33   0.0000       0.196988         5.3603 
  34   0.0000       0.220095         5.9891 
  35   0.0000       0.221781         6.0350 
  36   0.0000       0.237545         6.4639 
  37   0.0000       0.249464         6.7883 
  38   0.0000       0.251865         6.8536 
  39   0.0000       0.281675         7.6648 
  40   0.0000       0.286921         7.8075 
  41   0.0000       0.300166         8.1679 
  42   0.0000       0.302652         8.2356 
  43   0.0000       0.307869         8.3776 
  44   0.0000       0.318035         8.6542 
  45   0.0000       0.326957         8.8970 
  46   0.0000       0.335719         9.1354 
  47   0.0000       0.343982         9.3602 
  48   0.0000       0.355445         9.6721 
  49   0.0000       0.365425         9.9437 
  50   0.0000       0.369864        10.0645 
  51   0.0000       0.390788        10.6339 
  52   0.0000       0.404215        10.9992 
  53   0.0000       0.407867        11.0986 
  54   0.0000       0.413290        11.2462 
  55   0.0000       0.424861        11.5611 
  56   0.0000       0.430682        11.7194 
  57   0.0000       0.431193        11.7334 
  58   0.0000       0.436609        11.8807 
  59   0.0000       0.438697        11.9375 
  60   0.0000       0.439722        11.9654 
  61   0.0000       0.445444        12.1211 
  62   0.0000       0.446249        12.1431 
  63   0.0000       0.475682        12.9440 
  64   0.0000       0.482871        13.1396 
  65   0.0000       0.484541        13.1850 
  66   0.0000       0.516539        14.0557 
  67   0.0000       0.516583        14.0569 
  68   0.0000       0.521333        14.1862 
  69   0.0000       0.528538        14.3823 
  70   0.0000       0.533716        14.5232 
  71   0.0000       0.548970        14.9382 
  72   0.0000       0.565421        15.3859 
  73   0.0000       0.576139        15.6775 
  74   0.0000       0.578558        15.7434 
  75   0.0000       0.606772        16.5111 
  76   0.0000       0.613181        16.6855 
  77   0.0000       0.620926        16.8963 
  78   0.0000       0.632496        17.2111 
  79   0.0000       0.641330        17.4515 
  80   0.0000       0.659318        17.9409 
  81   0.0000       0.660512        17.9734 
  82   0.0000       0.674885        18.3645 
  83   0.0000       0.680986        18.5306 
  84   0.0000       0.683096        18.5880 
  85   0.0000       0.691444        18.8152 
  86   0.0000       0.705754        19.2045 
  87   0.0000       0.712949        19.4003 
  88   0.0000       0.722980        19.6733 
  89   0.0000       0.729258        19.8441 
  90   0.0000       0.751721        20.4554 
  91   0.0000       0.758692        20.6451 
  92   0.0000       0.764776        20.8106 
  93   0.0000       0.769582        20.9414 
  94   0.0000       0.795286        21.6408 
  95   0.0000       0.814858        22.1734 
  96   0.0000       0.817640        22.2491 
  97   0.0000       0.836492        22.7621 
  98   0.0000       0.837277        22.7835 
  99   0.0000       0.850232        23.1360 
 100   0.0000       0.854785        23.2599 
 101   0.0000       0.864767        23.5315 
 102   0.0000       0.865666        23.5560 
 103   0.0000       0.875343        23.8193 
 104   0.0000       0.892978        24.2992 
 105   0.0000       0.893335        24.3089 
 106   0.0000       0.899714        24.4825 
 107   0.0000       0.910130        24.7659 
 108   0.0000       0.914925        24.8964 
 109   0.0000       0.928758        25.2728 
 110   0.0000       0.930119        25.3098 
 111   0.0000       0.935144        25.4466 
 112   0.0000       0.942092        25.6356 
 113   0.0000       0.943320        25.6690 
 114   0.0000       0.955220        25.9928 
 115   0.0000       0.971891        26.4465 
 116   0.0000       0.975622        26.5480 
 117   0.0000       0.993452        27.0332 
 118   0.0000       1.019566        27.7438 
 119   0.0000       1.027894        27.9704 
 120   0.0000       1.032485        28.0954 
 121   0.0000       1.047432        28.5021 
 122   0.0000       1.062870        28.9222 
 123   0.0000       1.063749        28.9461 
 124   0.0000       1.077708        29.3259 
 125   0.0000       1.101099        29.9624 
 126   0.0000       1.166041        31.7296 
 127   0.0000       1.167702        31.7748 
 128   0.0000       1.175048        31.9747 
 129   0.0000       1.175259        31.9804 
 130   0.0000       1.193540        32.4779 
 131   0.0000       1.218906        33.1681 
 132   0.0000       1.238474        33.7006 
 133   0.0000       1.251434        34.0533 
 134   0.0000       1.268535        34.5186 
 135   0.0000       1.282048        34.8863 
 136   0.0000       1.310166        35.6514 
 137   0.0000       1.341712        36.5099 
 138   0.0000       1.362563        37.0772 
 139   0.0000       1.380335        37.5608 
 140   0.0000       1.418295        38.5938 
 141   0.0000       1.445224        39.3266 
 142   0.0000       1.494279        40.6614 
 143   0.0000       1.526734        41.5445 
 144   0.0000       1.552763        42.2528 
 145   0.0000       1.556832        42.3635 
 146   0.0000       1.561890        42.5012 
 147   0.0000       1.593016        43.3482 
 148   0.0000       1.657563        45.1046 
 149   0.0000       1.706669        46.4408 
 150   0.0000       1.741250        47.3818 
 151   0.0000       1.770169        48.1687 
 152   0.0000       1.785582        48.5882 
 153   0.0000       1.822781        49.6004 
 154   0.0000       1.847312        50.2679 
 155   0.0000       1.892009        51.4842 
 156   0.0000       1.914454        52.0949 
 157   0.0000       1.980428        53.8902 
 158   0.0000       2.033105        55.3236 
 159   0.0000       2.065168        56.1961 
 160   0.0000       2.072762        56.4027 
 161   0.0000       2.121365        57.7253 
 162   0.0000       2.131932        58.0128 
 163   0.0000       2.177996        59.2663 
 164   0.0000       2.180517        59.3349 
 165   0.0000       2.305378        62.7325 
 166   0.0000       2.364675        64.3461 
 167   0.0000       2.372202        64.5509 
 168   0.0000       2.445090        66.5343 
 169   0.0000       2.458758        66.9062 
 170   0.0000       2.523037        68.6553 
 171   0.0000       2.544737        69.2458 
 172   0.0000       2.673405        72.7471 
 173   0.0000       2.700279        73.4783 
 174   0.0000       2.722711        74.0887 
 175   0.0000       2.906821        79.0986 
 176   0.0000       2.921068        79.4863 
 177   0.0000       2.939229        79.9805 
 178   0.0000       2.965708        80.7010 
 179   0.0000       3.021258        82.2126 
 180   0.0000       3.098360        84.3107 
 181   0.0000       3.168700        86.2247 
 182   0.0000       3.283526        89.3493 
 183   0.0000       3.291536        89.5673 
 184   0.0000       3.346860        91.0727 
 185   0.0000       3.425199        93.2044 
 186   0.0000       3.508542        95.4723 
 187   0.0000       3.521262        95.8184 
 188   0.0000       3.629442        98.7621 
 189   0.0000       3.652981        99.4027 
 190   0.0000       3.728879       101.4680 
 191   0.0000       3.766029       102.4789 
 192   0.0000       3.850797       104.7855 
 193   0.0000       3.870762       105.3288 
 194   0.0000       4.029528       109.6490 
 195   0.0000       4.083868       111.1277 
 196   0.0000       4.121352       112.1477 
 197   0.0000       4.143824       112.7592 
 198   0.0000       4.150310       112.9357 
 199   0.0000       4.208747       114.5258 
 200   0.0000       4.285062       116.6025 
 201   0.0000       4.350779       118.3907 
 202   0.0000       4.369891       118.9108 
 203   0.0000       4.465416       121.5101 
 204   0.0000       4.472057       121.6909 
 205   0.0000       4.559150       124.0608 
 206   0.0000       4.560822       124.1063 
 207   0.0000       4.603487       125.2673 
 208   0.0000       4.797033       130.5339 
 209   0.0000       4.799921       130.6125 
 210   0.0000       4.917074       133.8004 
 211   0.0000       4.998252       136.0093 
 212   0.0000       5.114739       139.1791 
 213   0.0000       5.153327       140.2291 
 214   0.0000       5.172803       140.7591 
 215   0.0000       5.209846       141.7671 
 216   0.0000       5.326952       144.9537 
 217   0.0000       5.374201       146.2394 
 218   0.0000       5.403602       147.0395 
 219   0.0000       5.552100       151.0803 
 220   0.0000       5.581205       151.8723 
 221   0.0000       5.626221       153.0973 
 222   0.0000       5.684103       154.6723 
 223   0.0000       5.888644       160.2382 
 224   0.0000       5.969093       162.4273 
 225   0.0000       5.975741       162.6082 
 226   0.0000       6.023468       163.9069 
 227   0.0000       6.076876       165.3602 
 228   0.0000       6.175268       168.0376 
 229   0.0000       6.292747       171.2343 
 230   0.0000       6.361945       173.1173 
 231   0.0000       6.405807       174.3109 
 232   0.0000       6.435698       175.1242 
 233   0.0000       6.580426       179.0625 
 234   0.0000       6.592286       179.3852 
 235   0.0000       6.741280       183.4396 
 236   0.0000       6.761064       183.9779 
 237   0.0000       6.967916       189.6066 
 238   0.0000       7.224038       196.5761 
 239   0.0000       7.269656       197.8174 
 240   0.0000       7.434388       202.3000 
 241   0.0000       7.493753       203.9154 
 242   0.0000       7.557738       205.6565 
 243   0.0000       7.624285       207.4673 
 244   0.0000       7.783257       211.7932 
 245   0.0000       7.842827       213.4142 
 246   0.0000       8.234555       224.0736 
 247   0.0000       8.377522       227.9640 
 248   0.0000       8.409147       228.8245 
 249   0.0000       8.493231       231.1126 
 250   0.0000       8.734106       237.6671 
 251   0.0000       8.900357       242.1910 
 252   0.0000       8.912257       242.5148 
 253   0.0000       9.000460       244.9150 
 254   0.0000       9.119011       248.1409 
 255   0.0000       9.246638       251.6138 
 256   0.0000       9.266437       252.1526 
 257   0.0000       9.383932       255.3498 
 258   0.0000       9.453187       257.2343 
 259   0.0000       9.526922       259.2407 
 260   0.0000       9.722627       264.5661 
 261   0.0000      10.033718       273.0314 
 262   0.0000      10.052552       273.5439 
 263   0.0000      10.256549       279.0949 
 264   0.0000      10.693657       290.9892 
 265   0.0000      10.893353       296.4232 
 266   0.0000      10.951347       298.0013 
 267   0.0000      10.982680       298.8539 
 268   0.0000      11.098118       301.9952 
 269   0.0000      11.123031       302.6730 
 270   0.0000      11.135682       303.0173 
 271   0.0000      11.152014       303.4617 
 272   0.0000      11.198448       304.7253 
 273   0.0000      11.234811       305.7148 
 274   0.0000      11.275722       306.8280 
 275   0.0000      11.364031       309.2310 
 276   0.0000      11.372362       309.4577 
 277   0.0000      11.477721       312.3247 
 278   0.0000      11.540735       314.0394 
 279   0.0000      11.625414       316.3436 
 280   0.0000      11.675409       317.7040 
 281   0.0000      11.988789       326.2315 
 282   0.0000      11.991085       326.2940 
 283   0.0000      12.056613       328.0771 
 284   0.0000      12.094931       329.1198 
 285   0.0000      12.139526       330.3333 
 286   0.0000      12.279085       334.1309 
 287   0.0000      12.291594       334.4713 
 288   0.0000      12.323511       335.3398 
 289   0.0000      12.451181       338.8139 
 290   0.0000      12.660266       344.5034 
 291   0.0000      12.671464       344.8081 
 292   0.0000      12.676389       344.9421 
 293   0.0000      12.742711       346.7468 
 294   0.0000      12.829855       349.1181 
 295   0.0000      12.844593       349.5192 
 296   0.0000      12.952375       352.4520 
 297   0.0000      12.954274       352.5037 
 298   0.0000      13.039916       354.8342 
 299   0.0000      13.435565       365.6003 
 300   0.0000      13.556983       368.9043 
 301   0.0000      13.595846       369.9618 
 302   0.0000      13.685364       372.3977 
 303   0.0000      13.762933       374.5084 
 304   0.0000      14.068146       382.8137 
 305   0.0000      14.613968       397.6663 
 306   0.0000      14.797228       402.6530 
 307   0.0000      14.806144       402.8957 
 308   0.0000      14.930531       406.2804 
 309   0.0000      14.987932       407.8424 
 310   0.0000      15.134564       411.8324 
 311   0.0000      15.142989       412.0617 
 312   0.0000      15.292242       416.1231 
 313   0.0000      15.317739       416.8169 
 314   0.0000      15.460618       420.7048 
 315   0.0000      15.608349       424.7248 
 316   0.0000      15.688612       426.9088 
 317   0.0000      15.842558       431.0979 
 318   0.0000      16.056406       436.9170 
 319   0.0000      16.385297       445.8666 
 320   0.0000      16.699628       454.4200 
 321   0.0000      16.708286       454.6556 
 322   0.0000      16.876202       459.2248 
 323   0.0000      16.946499       461.1377 
 324   0.0000      16.965286       461.6489 
 325   0.0000      17.082588       464.8408 
 326   0.0000      17.105580       465.4665 
 327   0.0000      17.135910       466.2918 
 328   0.0000      17.191137       467.7946 
 329   0.0000      17.210069       468.3098 
 330   0.0000      17.273490       470.0356 
 331   0.0000      17.276919       470.1289 
 332   0.0000      17.412321       473.8133 
 333   0.0000      17.899012       487.0569 
 334   0.0000      17.918822       487.5959 
 335   0.0000      17.941658       488.2173 
 336   0.0000      18.019627       490.3390 
 337   0.0000      18.607384       506.3327 
 338   0.0000      18.701680       508.8986 
 339   0.0000      18.758828       510.4537 
 340   0.0000      18.909167       514.5446 
 341   0.0000      19.136144       520.7209 
 342   0.0000      19.950022       542.8677 
 343   0.0000      20.017334       544.6993 
 344   0.0000      20.360377       554.0340 
 345   0.0000      21.083424       573.7091 
 346   0.0000      22.967187       624.9689 
 347   0.0000      23.026778       626.5905 
 348   0.0000      23.329527       634.8287 
 349   0.0000      23.461901       638.4308 
 350   0.0000      23.614661       642.5876 
 351   0.0000      24.171965       657.7526 
 352   0.0000      24.422849       664.5795 
 353   0.0000      25.387482       690.8285 
 354   0.0000      25.844495       703.2645 
 355   0.0000      26.071916       709.4529 
 356   0.0000      27.314165       743.2562 
 357   0.0000      28.894919       786.2707 
 358   0.0000      30.707763       835.6007 
 359   0.0000      31.870043       867.2280 
 360   0.0000      32.060174       872.4017 
 361   0.0000      34.164426       929.6613 
 362   0.0000      40.887972      1112.6183 
 363   0.0000      47.732706      1298.8730 
 364   0.0000      47.849515      1302.0515 
 365   0.0000      47.880602      1302.8974 
 366   0.0000      48.351284      1315.7053 
 367   0.0000      49.203340      1338.8910 
 368   0.0000      66.523676      1810.2012 
 369   0.0000      66.571850      1811.5121 
 370   0.0000      67.151939      1827.2972 
 371   0.0000      67.295981      1831.2167 
 372   0.0000      68.907837      1875.0776 
 373   0.0000      90.912481      2473.8544 
 374   0.0000      91.009230      2476.4870 
 375   0.0000      92.334589      2512.5519 
 376   0.0000     105.624651      2874.1929 
 377   0.0000     143.491089      3904.5910 

                    ********************************
                    * MULLIKEN POPULATION ANALYSIS *
                    ********************************

--------------------------------------------
MULLIKEN ATOMIC CHARGES AND SPIN POPULATIONS
--------------------------------------------
   0 H :    0.157106    0.000000
   1 N :    0.022490   -0.000000
   2 O :   -0.179596   -0.000000
Sum of atomic charges         :    0.0000000
Sum of atomic spin populations:   -0.0000000

-----------------------------------------------------
MULLIKEN REDUCED ORBITAL CHARGES AND SPIN POPULATIONS
-----------------------------------------------------
CHARGE
  0 H s       :     0.770317  s :     0.770317
      pz      :     0.013480  p :     0.060266
      px      :     0.012829
      py      :     0.033957
      dz2     :     0.000996  d :     0.009500
      dxz     :     0.001287
      dyz     :     0.003064
      dx2y2   :     0.001327
      dxy     :     0.002826
      f0      :     0.001387  f :     0.002615
      f+1     :     0.000103
      f-1     :    -0.000052
      f+2     :     0.000078
      f-2     :     0.000449
      f+3     :     0.000345
      f-3     :     0.000306
      g0      :     0.000071  g :     0.000196
      g+1     :     0.000017
      g-1     :     0.000231
      g+2     :    -0.000190
      g-2     :    -0.000101
      g+3     :     0.000111
      g-3     :    -0.000015
      g+4     :     0.000040
      g-4     :     0.000032
  1 N s       :     3.731041  s :     3.731041
      pz      :     0.961638  p :     3.117690
      px      :     0.801343
      py      :     1.354709
      dz2     :     0.017876  d :     0.114580
      dxz     :     0.023242
      dyz     :     0.059003
      dx2y2   :     0.013729
      dxy     :     0.000729
      f0      :     0.001963  f :     0.013085
      f+1     :     0.003122
      f-1     :     0.007746
      f+2     :     0.000106
      f-2     :    -0.000002
      f+3     :    -0.000014
      f-3     :     0.000164
      g0      :     0.000344  g :     0.001003
      g+1     :     0.000322
      g-1     :     0.000301
      g+2     :     0.000014
      g-2     :    -0.000001
      g+3     :     0.000003
      g-3     :    -0.000002
      g+4     :     0.000019
      g-4     :     0.000003
      h0      :     0.000053  h :     0.000111
      h+1     :     0.000039
      h-1     :     0.000011
      h+2     :     0.000001
      h-2     :    -0.000001
      h+3     :     0.000001
      h-3     :     0.000001
      h+4     :     0.000005
      h-4     :    -0.000000
      h+5     :     0.000000
      h-5     :     0.000001
  2 O s       :     3.913916  s :     3.913916
      pz      :     1.190479  p :     4.191466
      px      :     1.129949
      py      :     1.871039
      dz2     :     0.014692  d :     0.063215
      dxz     :     0.020200
      dyz     :     0.028336
      dx2y2   :    -0.000028
      dxy     :     0.000016
      f0      :     0.001593  f :     0.009313
      f+1     :     0.002811
      f-1     :     0.005088
      f+2     :    -0.000122
      f-2     :    -0.000056
      f+3     :     0.000009
      f-3     :    -0.000010
      g0      :     0.000365  g :     0.001458
      g+1     :     0.000379
      g-1     :     0.000763
      g+2     :    -0.000007
      g-2     :    -0.000017
      g+3     :    -0.000004
      g-3     :    -0.000021
      g+4     :     0.000002
      g-4     :    -0.000002
      h0      :     0.000073  h :     0.000228
      h+1     :     0.000037
      h-1     :     0.000107
      h+2     :     0.000016
      h-2     :    -0.000001
      h+3     :    -0.000001
      h-3     :    -0.000000
      h+4     :    -0.000002
      h-4     :    -0.000001
      h+5     :    -0.000000
      h-5     :    -0.000000

SPIN
  0 H s       :     0.000000  s :     0.000000
      pz      :     0.000000  p :     0.000000
      px      :    -0.000000
      py      :     0.000000
      dz2     :    -0.000000  d :     0.000000
      dxz     :    -0.000000
      dyz     :     0.000000
      dx2y2   :     0.000000
      dxy     :     0.000000
      f0      :    -0.000000  f :     0.000000
      f+1     :    -0.000000
      f-1     :     0.000000
      f+2     :     0.000000
      f-2     :     0.000000
      f+3     :     0.000000
      f-3     :     0.000000
      g0      :    -0.000000  g :    -0.000000
      g+1     :    -0.000000
      g-1     :    -0.000000
      g+2     :     0.000000
      g-2     :    -0.000000
      g+3     :     0.000000
      g-3     :     0.000000
      g+4     :     0.000000
      g-4     :     0.000000
  1 N s       :    -0.000000  s :    -0.000000
      pz      :     0.000000  p :     0.000000
      px      :     0.000000
      py      :    -0.000000
      dz2     :     0.000000  d :     0.000000
      dxz     :     0.000000
      dyz     :     0.000000
      dx2y2   :    -0.000000
      dxy     :     0.000000
      f0      :     0.000000  f :     0.000000
      f+1     :     0.000000
      f-1     :     0.000000
      f+2     :    -0.000000
      f-2     :    -0.000000
      f+3     :     0.000000
      f-3     :    -0.000000
      g0      :    -0.000000  g :     0.000000
      g+1     :     0.000000
      g-1     :     0.000000
      g+2     :    -0.000000
      g-2     :     0.000000
      g+3     :     0.000000
      g-3     :     0.000000
      g+4     :     0.000000
      g-4     :     0.000000
      h0      :    -0.000000  h :    -0.000000
      h+1     :    -0.000000
      h-1     :     0.000000
      h+2     :    -0.000000
      h-2     :     0.000000
      h+3     :    -0.000000
      h-3     :     0.000000
      h+4     :    -0.000000
      h-4     :     0.000000
      h+5     :     0.000000
      h-5     :     0.000000
  2 O s       :    -0.000000  s :    -0.000000
      pz      :     0.000000  p :     0.000000
      px      :    -0.000000
      py      :    -0.000000
      dz2     :     0.000000  d :     0.000000
      dxz     :     0.000000
      dyz     :    -0.000000
      dx2y2   :     0.000000
      dxy     :     0.000000
      f0      :     0.000000  f :     0.000000
      f+1     :    -0.000000
      f-1     :    -0.000000
      f+2     :     0.000000
      f-2     :     0.000000
      f+3     :     0.000000
      f-3     :     0.000000
      g0      :     0.000000  g :    -0.000000
      g+1     :    -0.000000
      g-1     :    -0.000000
      g+2     :     0.000000
      g-2     :     0.000000
      g+3     :     0.000000
      g-3     :     0.000000
      g+4     :    -0.000000
      g-4     :     0.000000
      h0      :     0.000000  h :    -0.000000
      h+1     :    -0.000000
      h-1     :    -0.000000
      h+2     :     0.000000
      h-2     :     0.000000
      h+3     :     0.000000
      h-3     :    -0.000000
      h+4     :    -0.000000
      h-4     :     0.000000
      h+5     :    -0.000000
      h-5     :    -0.000000


                     *******************************
                     * LOEWDIN POPULATION ANALYSIS *
                     *******************************

-------------------------------------------
LOEWDIN ATOMIC CHARGES AND SPIN POPULATIONS
-------------------------------------------
   0 H :   -0.619552    0.000000
   1 N :    0.330689   -0.000000
   2 O :    0.288863    0.000000

----------------------------------------------------
LOEWDIN REDUCED ORBITAL CHARGES AND SPIN POPULATIONS
----------------------------------------------------
CHARGE
  0 H s       :     0.683915  s :     0.683915
      pz      :     0.098610  p :     0.419145
      px      :     0.059669
      py      :     0.260866
      dz2     :     0.071872  d :     0.317348
      dxz     :     0.019997
      dyz     :     0.092980
      dx2y2   :     0.079315
      dxy     :     0.053185
      f0      :     0.021269  f :     0.130373
      f+1     :     0.002930
      f-1     :     0.044889
      f+2     :     0.023452
      f-2     :     0.013654
      f+3     :     0.012487
      f-3     :     0.011693
      g0      :     0.011957  g :     0.068771
      g+1     :     0.000693
      g-1     :     0.019653
      g+2     :     0.016871
      g-2     :     0.004686
      g+3     :     0.005228
      g-3     :     0.006064
      g+4     :     0.001737
      g-4     :     0.001882
  1 N s       :     2.946343  s :     2.946343
      pz      :     1.067622  p :     2.846058
      px      :     0.653418
      py      :     1.125018
      dz2     :     0.226619  d :     0.593049
      dxz     :     0.076239
      dyz     :     0.260548
      dx2y2   :     0.029057
      dxy     :     0.000586
      f0      :     0.072079  f :     0.222478
      f+1     :     0.038045
      f-1     :     0.105683
      f+2     :     0.002717
      f-2     :     0.000073
      f+3     :     0.000319
      f-3     :     0.003563
      g0      :     0.015689  g :     0.048587
      g+1     :     0.010543
      g-1     :     0.021574
      g+2     :     0.000121
      g-2     :     0.000012
      g+3     :     0.000013
      g-3     :     0.000280
      g+4     :     0.000320
      g-4     :     0.000035
      h0      :     0.004312  h :     0.012795
      h+1     :     0.002815
      h-1     :     0.005145
      h+2     :     0.000067
      h-2     :     0.000000
      h+3     :     0.000013
      h-3     :     0.000096
      h+4     :     0.000119
      h-4     :     0.000072
      h+5     :     0.000054
      h-5     :     0.000102
  2 O s       :     3.239006  s :     3.239006
      pz      :     1.357575  p :     3.858702
      px      :     0.966067
      py      :     1.535060
      dz2     :     0.160402  d :     0.396435
      dxz     :     0.048181
      dyz     :     0.184646
      dx2y2   :     0.003070
      dxy     :     0.000136
      f0      :     0.046106  f :     0.157525
      f+1     :     0.021134
      f-1     :     0.085922
      f+2     :     0.004017
      f-2     :     0.000031
      f+3     :     0.000029
      f-3     :     0.000284
      g0      :     0.012450  g :     0.045563
      g+1     :     0.005823
      g-1     :     0.022792
      g+2     :     0.003752
      g-2     :     0.000003
      g+3     :     0.000002
      g-3     :     0.000691
      g+4     :     0.000047
      g-4     :     0.000003
      h0      :     0.003641  h :     0.013907
      h+1     :     0.001933
      h-1     :     0.005473
      h+2     :     0.001908
      h-2     :     0.000000
      h+3     :     0.000005
      h-3     :     0.000794
      h+4     :     0.000143
      h-4     :     0.000006
      h+5     :     0.000001
      h-5     :     0.000005

SPIN
  0 H s       :     0.000000  s :     0.000000
      pz      :    -0.000000  p :     0.000000
      px      :    -0.000000
      py      :     0.000000
      dz2     :     0.000000  d :     0.000000
      dxz     :    -0.000000
      dyz     :    -0.000000
      dx2y2   :     0.000000
      dxy     :     0.000000
      f0      :     0.000000  f :    -0.000000
      f+1     :    -0.000000
      f-1     :     0.000000
      f+2     :    -0.000000
      f-2     :    -0.000000
      f+3     :    -0.000000
      f-3     :     0.000000
      g0      :     0.000000  g :     0.000000
      g+1     :    -0.000000
      g-1     :    -0.000000
      g+2     :    -0.000000
      g-2     :    -0.000000
      g+3     :     0.000000
      g-3     :     0.000000
      g+4     :     0.000000
      g-4     :    -0.000000
  1 N s       :    -0.000000  s :    -0.000000
      pz      :     0.000000  p :    -0.000000
      px      :    -0.000000
      py      :    -0.000000
      dz2     :     0.000000  d :    -0.000000
      dxz     :    -0.000000
      dyz     :    -0.000000
      dx2y2   :    -0.000000
      dxy     :    -0.000000
      f0      :     0.000000  f :     0.000000
      f+1     :     0.000000
      f-1     :     0.000000
      f+2     :    -0.000000
      f-2     :     0.000000
      f+3     :    -0.000000
      f-3     :    -0.000000
      g0      :    -0.000000  g :    -0.000000
      g+1     :     0.000000
      g-1     :    -0.000000
      g+2     :     0.000000
      g-2     :    -0.000000
      g+3     :    -0.000000
      g-3     :     0.000000
      g+4     :    -0.000000
      g-4     :     0.000000
      h0      :    -0.000000  h :    -0.000000
      h+1     :    -0.000000
      h-1     :    -0.000000
      h+2     :     0.000000
      h-2     :    -0.000000
      h+3     :     0.000000
      h-3     :    -0.000000
      h+4     :    -0.000000
      h-4     :     0.000000
      h+5     :     0.000000
      h-5     :     0.000000
  2 O s       :    -0.000000  s :    -0.000000
      pz      :     0.000000  p :     0.000000
      px      :     0.000000
      py      :     0.000000
      dz2     :     0.000000  d :     0.000000
      dxz     :    -0.000000
      dyz     :    -0.000000
      dx2y2   :     0.000000
      dxy     :    -0.000000
      f0      :    -0.000000  f :    -0.000000
      f+1     :    -0.000000
      f-1     :    -0.000000
      f+2     :     0.000000
      f-2     :     0.000000
      f+3     :    -0.000000
      f-3     :    -0.000000
      g0      :     0.000000  g :     0.000000
      g+1     :     0.000000
      g-1     :    -0.000000
      g+2     :    -0.000000
      g-2     :     0.000000
      g+3     :     0.000000
      g-3     :     0.000000
      g+4     :    -0.000000
      g-4     :    -0.000000
      h0      :    -0.000000  h :    -0.000000
      h+1     :    -0.000000
      h-1     :    -0.000000
      h+2     :    -0.000000
      h-2     :    -0.000000
      h+3     :    -0.000000
      h-3     :    -0.000000
      h+4     :     0.000000
      h-4     :     0.000000
      h+5     :    -0.000000
      h-5     :    -0.000000


                      *****************************
                      * MAYER POPULATION ANALYSIS *
                      *****************************

  NA   - Mulliken gross atomic population
  ZA   - Total nuclear charge
  QA   - Mulliken gross atomic charge
  VA   - Mayer's total valence
  BVA  - Mayer's bonded valence
  FA   - Mayer's free valence

  ATOM       NA         ZA         QA         VA         BVA        FA
  0 H      0.8429     1.0000     0.1571     1.0123     1.0123     0.0000
  1 N      6.9775     7.0000     0.0225     2.7985     2.7985     0.0000
  2 O      8.1796     8.0000    -0.1796     1.9748     1.9748    -0.0000

  Mayer bond orders larger than 0.1
B(  0-H ,  1-N ) :   0.9180 B(  1-N ,  2-O ) :   1.8805 

-------
TIMINGS
-------

Total SCF time: 0 days 0 hours 52 min 9 sec 

Total time                  ....    3129.676 sec
Sum of individual times     ....    3129.034 sec  (100.0%)

Fock matrix formation       ....    3120.369 sec  ( 99.7%)
  XC integration            ....     118.927 sec  (  3.8% of F)
    Basis function eval.    ....       8.626 sec  (  7.3% of XC)
    Density eval.           ....      27.592 sec  ( 23.2% of XC)
    XC-Functional eval.     ....       1.087 sec  (  0.9% of XC)
    XC-Potential eval.      ....      80.824 sec  ( 68.0% of XC)
Diagonalization             ....       1.298 sec  (  0.0%)
Density matrix formation    ....       0.025 sec  (  0.0%)
Population analysis         ....       0.125 sec  (  0.0%)
Initial guess               ....       4.495 sec  (  0.1%)
Orbital Transformation      ....       0.000 sec  (  0.0%)
Orbital Orthonormalization  ....       0.000 sec  (  0.0%)
DIIS solution               ....       0.610 sec  (  0.0%)
Grid generation             ....       2.111 sec  (  0.1%)

-------------------------   --------------------
FINAL SINGLE POINT ENERGY      -130.407481804489
-------------------------   --------------------


                            ***************************************
                            *     ORCA property calculations      *
                            ***************************************

                                    ---------------------
                                    Active property flags
                                    ---------------------
   (+) Dipole Moment
   (+) Polarizability


------------------------------------------------------------------------------
                       ORCA ELECTRIC PROPERTIES CALCULATION
------------------------------------------------------------------------------

Dipole Moment Calculation                       ... on
Quadrupole Moment Calculation                   ... off
Polarizability Calculation                      ... Analytic (CP-SCF)
GBWName                                         ... hno_pbe.gbw
Electron density file                           ... hno_pbe.scfp.tmp
The origin for moment calculation is the CENTER OF MASS  = ( 0.000000,  0.058787 -0.055376)

-------------
DIPOLE MOMENT
-------------
                                X             Y             Z
Electronic contribution:      0.00000       0.43946      -0.58555
Nuclear contribution   :      0.00000      -0.94022       0.88620
                        -----------------------------------------
Total Dipole Moment    :      0.00000      -0.50076       0.30065
                        -----------------------------------------
Magnitude (a.u.)       :      0.58408
Magnitude (Debye)      :      1.48462



--------------------
Rotational spectrum 
--------------------
 
Rotational constants in cm-1:    17.606681     1.410914     1.306238 
Rotational constants in MHz : 527835.027066 42298.140358 39160.044243 

 Dipole components along the rotational axes: 
x,y,z [a.u.] :    -0.344842     0.471418     0.000000 
x,y,z [Debye]:    -0.876519     1.198250     0.000000 

 
Transforming and storing MO dipole integrals   ... done

                ... starting polarizability calculation

Opening the Dipole integral file               ... (hno_pbe.dmo.tmp) done
Reading Dipole-MO integrals                    ... done
Solving CP-SCF equations                       ... 
------------------------------------------------------------------------------
                           ORCA CP-SCF CALCULATION
------------------------------------------------------------------------------

Input orbitals are from        ... hno_pbe.gbw
Input Perturbation             ... hno_pbe.cpv.tmp
Wavefunction output            ... hno_pbe.cpu.tmp
Perturbation mode              ... Real perturbation (singlet)
Solver                         ... POPLE
Max. number of iterations      ... 200
Convergence tolerance          ... 1.000e-06
Integral handling              ... Direct
Number of perturbations        ... 3
Number of operators            ... 2
Orbital ranges used for CP-SCF:
 Operator 0:  Orbitals   0...  7  to   8...377
 Operator 1:  Orbitals   0...  7  to   8...377
DFT calculation                         ... on
Exchange functional (SCF)               ... PBE
Exchange functional (CP-SCF)            ... PBE
   PBE kappa parameter  XKappa (SCF)    ...  0.804000
   PBE kappa parameter  XKappa (CP-SCF) ...  0.804000
   PBE mue parameter   XMuePBE (SCF)    ...  0.219520
   PBE mue parameter   XMuePBE (CP-SCF) ...  0.219520
Correlation functional (SCF)            ... PBE
Correlation functional (CP-SCF)         ... PBE
   PBE beta parameter CBetaPBE (SCF)    ...  0.066725
   PBE beta parameter CBetaPBE (CP-SCF) ...  0.066725
 LDA part of GGA corr.  LDAOpt (SCF)    ... PW91-LDA
 LDA part of GGA corr.  LDAOpt (CP-SCF) ... PW91-LDA
Variables per vector in CP-SCF ... 5920
Number of vectors sought       ... 3
Recalculating density on grid  ... done
Calculating the xc-kernel      ... done
     CP-SCF ITERATION   0: 
     CP-SCF ITERATION   1:      0.503457237975
     CP-SCF ITERATION   2:      0.076672690254
     CP-SCF ITERATION   3:      0.001459379297
     CP-SCF ITERATION   4:      0.000024843807
     CP-SCF ITERATION   5:      0.000000371827
done
Reading CP-SCF coefficients                    ... done
Doing the polarizability tensor   ... done
Cleaning up                                    ... done

-------------------------
THE POLARIZABILITY TENSOR
-------------------------

The raw cartesian tensor (atomic units):
   11.35185      0.00000     -0.00000  
    0.00000     17.71694     -3.23155  
   -0.00000     -3.23155     20.08629  
diagonalized tensor: 
   11.35185     15.45976     22.34346  

    1.00000     -0.00000     -0.00000  
    0.00000      0.81982     -0.57263  
    0.00000      0.57263      0.81982  

Isotropic polarizability :  16.38502


Timings for individual modules:

Sum of individual times         ...     5181.682 sec (=  86.361 min)
GTO integral calculation        ...        1.185 sec (=   0.020 min)   0.0 %
SCF iterations                  ...     3129.711 sec (=  52.162 min)  60.4 %
Solution of CP-SCF eqns.        ...     2050.786 sec (=  34.180 min)  39.6 %
                             ****ORCA TERMINATED NORMALLY****
TOTAL RUN TIME: 0 days 1 hours 26 minutes 22 seconds 85 msec
