
                                 *****************
                                 * O   R   C   A *
                                 *****************

           --- An Ab Initio, DFT and Semiempirical electronic structure package ---

                  #######################################################
                  #                        -***-                        #
                  #          Department of theory and spectroscopy      #
                  #               Directorship: Frank Neese             #
                  #        Max Planck Institute fuer Kohlenforschung    #
                  #                Kaiser Wilhelm Platz 1               #
                  #                 D-45470 Muelheim/Ruhr               #
                  #                      Germany                        #
                  #                                                     #
                  #                  All rights reserved                #
                  #                        -***-                        #
                  #######################################################


                         Program Version 4.1.2  - RELEASE  -


 With contributions from (in alphabetic order):
   Daniel Aravena         : Magnetic Properties
   Michael Atanasov       : Ab Initio Ligand Field Theory
   Alexander A. Auer      : GIAO ZORA
   Ute Becker             : Parallelization
   Giovanni Bistoni       : ED, Open-shell LED
   Martin Brehm           : Molecular dynamics
   Dmytro Bykov           : SCF Hessian
   Vijay G. Chilkuri      : MRCI spin determinant printing
   Dipayan Datta          : RHF DLPNO-CCSD density
   Achintya Kumar Dutta   : EOM-CC, STEOM-CC
   Dmitry Ganyushin       : Spin-Orbit,Spin-Spin,Magnetic field MRCI
   Miquel Garcia          : C-PCM Hessian
   Yang Guo               : DLPNO-NEVPT2, CIM, IAO-localization
   Andreas Hansen         : Spin unrestricted coupled pair/coupled cluster methods
   Benjamin Helmich-Paris : CASSCF linear response (MC-RPA)
   Lee Huntington         : MR-EOM, pCC
   Robert Izsak           : Overlap fitted RIJCOSX, COSX-SCS-MP3, EOM
   Christian Kollmar      : KDIIS, OOCD, Brueckner-CCSD(T), CCSD density
   Simone Kossmann        : Meta GGA functionals, TD-DFT gradient, OOMP2, MP2 Hessian
   Martin Krupicka        : AUTO-CI
   Lucas Lang             : DCDCAS
   Dagmar Lenk            : GEPOL surface, SMD
   Dimitrios Liakos       : Extrapolation schemes; parallel MDCI
   Dimitrios Manganas     : ROCIS; embedding schemes
   Dimitrios Pantazis     : SARC Basis sets
   Taras Petrenko         : DFT Hessian,TD-DFT gradient, ASA, ECA, R-Raman, ABS, FL, XAS/XES, NRVS
   Peter Pinski           : DLPNO-MP2, DLPNO-MP2 Gradient
   Christoph Reimann      : Effective Core Potentials
   Marius Retegan         : Local ZFS, SOC
   Christoph Riplinger    : Optimizer, TS searches, QM/MM, DLPNO-CCSD(T), (RO)-DLPNO pert. Triples
   Tobias Risthaus        : Range-separated hybrids, TD-DFT gradient, RPA, STAB
   Michael Roemelt        : Restricted open shell CIS
   Masaaki Saitow         : Open-shell DLPNO
   Barbara Sandhoefer     : DKH picture change effects
   Avijit Sen             : IP-ROCIS
   Kantharuban Sivalingam : CASSCF convergence, NEVPT2, FIC-MRCI
   Bernardo de Souza      : ESD, SOC TD-DFT
   Georgi Stoychev        : AutoAux, RI-MP2 NMR
   Willem Van den Heuvel  : Paramagnetic NMR
   Boris Wezisla          : Elementary symmetry handling
   Frank Wennmohs         : Technical directorship


 We gratefully acknowledge several colleagues who have allowed us to
 interface, adapt or use parts of their codes:
   Stefan Grimme, W. Hujo, H. Kruse,             : VdW corrections, initial TS optimization,
                  C. Bannwarth                     DFT functionals, gCP, sTDA/sTD-DF
   Ed Valeev                                     : LibInt (2-el integral package), F12 methods
   Garnet Chan, S. Sharma, J. Yang, R. Olivares  : DMRG
   Ulf Ekstrom                                   : XCFun DFT Library
   Mihaly Kallay                                 : mrcc  (arbitrary order and MRCC methods)
   Andreas Klamt, Michael Diedenhofen            : otool_cosmo (COSMO solvation model)
   Jiri Pittner, Ondrej Demel                    : Mk-CCSD
   Frank Weinhold                                : gennbo (NPA and NBO analysis)
   Christopher J. Cramer and Donald G. Truhlar   : smd solvation model
   Lars Goerigk                                  : TD-DFT with DH, B97 family of functionals
   V. Asgeirsson, H. Jonsson                     : NEB implementation
   FAccTs GmbH                                   : IRC, NEB, NEB-TS, Multilevel


 Your calculation uses the libint2 library for the computation of 2-el integrals
 For citations please refer to: http://libint.valeyev.net

 This ORCA versions uses:
   CBLAS   interface :  Fast vector & matrix operations
   LAPACKE interface :  Fast linear algebra routines
   SCALAPACK package :  Parallel linear algebra routines


----- Orbital basis set information -----
Your calculation utilizes the basis: aug-pc-4
   H, C-F              : F. Jensen, J. Chem. Phys. 115, 9113 (2001).
                         F. Jensen, J. Chem. Phys. 116, 7372 (2002).
                         F. Jensen, J. Chem. Phys. 117, 9234 (2002).
   Si-Cl               : F. Jensen, T. Helgaker, J. Chem. Phys. 121, 3463 (2004).
   He-B, Ne-Mg, Al, Ar : F. Jensen, J. Phys. Chem. A 111, 11198 (2007).
   K, Ca, Ga-Kr        : F. Jensen, J. Chem. Phys. 136, 094110 (2012).
   Sc-Zn               : F. Jensen, J. Chem. Phys. 138, 014107 (2013).

================================================================================
                                        WARNINGS
                       Please study these warnings very carefully!
================================================================================


INFO   : the flag for use of LIBINT has been found!

================================================================================
                                       INPUT FILE
================================================================================
NAME = hns_pbe.inp
|  1> !uks pbe nori aug-pc-4 grid7 nofinalgrid verytightscf
|  2> 
|  3> %maxcore 1500
|  4> 
|  5> %pal nprocs 1 end
|  6> 
|  7> %scf
|  8> 	maxiter 200
|  9> end
| 10> %elprop
| 11> 	dipole true
| 12> 	 polar 1
| 13> 	 maxiter 200
| 14> end
| 15> 
| 16> * xyz 0 1
| 17> N 1.0375899124 0.1438382012 0.0000000000
| 18> S -0.5437813358 -0.0126986493 0.0000000000
| 19> H 1.4373719861 -0.8036890193 0.0000000000
| 20> *
| 21> 
| 22>                          ****END OF INPUT****
================================================================================

                       ****************************
                       * Single Point Calculation *
                       ****************************

---------------------------------
CARTESIAN COORDINATES (ANGSTROEM)
---------------------------------
  N      1.037590    0.143838    0.000000
  S     -0.543781   -0.012699    0.000000
  H      1.437372   -0.803689    0.000000

----------------------------
CARTESIAN COORDINATES (A.U.)
----------------------------
  NO LB      ZA    FRAG     MASS         X           Y           Z
   0 N     7.0000    0    14.007    1.960761    0.271815    0.000000
   1 S    16.0000    0    32.060   -1.027598   -0.023997    0.000000
   2 H     1.0000    0     1.008    2.716239   -1.518752    0.000000

--------------------------------
INTERNAL COORDINATES (ANGSTROEM)
--------------------------------
 N      0   0   0     0.000000000000     0.00000000     0.00000000
 S      1   0   0     1.589100000062     0.00000000     0.00000000
 H      1   2   0     1.028413117400   107.22274440     0.00000000

---------------------------
INTERNAL COORDINATES (A.U.)
---------------------------
 N      0   0   0     0.000000000000     0.00000000     0.00000000
 S      1   0   0     3.002963799532     0.00000000     0.00000000
 H      1   2   0     1.943419144418   107.22274440     0.00000000

---------------------
BASIS SET INFORMATION
---------------------
There are 3 groups of distinct atoms

 Group   1 Type N   : 27s12p7d4f3g2h contracted to 9s8p7d4f3g2h pattern {1191111111/51111111/1111111/1111/111/11}
 Group   2 Type S   : 44s27p7d4f3g2h contracted to 8s7p7d4f3g2h pattern {15121211111/111111111/1111111/1111/111/11}
 Group   3 Type H   : 12s7p4d3f2g contracted to 8s7p4d3f2g pattern {51111111/1111111/1111/111/11}

Atom   0N    basis set group =>   1
Atom   1S    basis set group =>   2
Atom   2H    basis set group =>   3
------------------------------------------------------------------------------
                           ORCA GTO INTEGRAL CALCULATION
------------------------------------------------------------------------------

                         BASIS SET STATISTICS AND STARTUP INFO

 # of primitive gaussian shells          ...  170
 # of primitive gaussian functions       ...  504
 # of contracted shells                  ...   88
 # of contracted basis functions         ...  374
 Highest angular momentum                ...    5
 Maximum contraction depth               ...   15
 Integral package used                   ... LIBINT
 Integral threshhold            Thresh   ...  1.000e-12
 Primitive cut-off              TCut     ...  1.000e-14


------------------------------ INTEGRAL EVALUATION ----------------------------


 * One electron integrals 
 Pre-screening matrix                    ... done
 Shell pair data                         ... done (   0.002 sec)

-------------------------------------------------------------------------------
                                 ORCA SCF
-------------------------------------------------------------------------------

------------
SCF SETTINGS
------------
Hamiltonian:
 Density Functional     Method          .... DFT(GTOs)
 Exchange Functional    Exchange        .... PBE
   PBE kappa parameter   XKappa         ....  0.804000
   PBE mue parameter    XMuePBE         ....  0.219520
 Correlation Functional Correlation     .... PBE
   PBE beta parameter  CBetaPBE         ....  0.066725
 LDA part of GGA corr.  LDAOpt          .... PW91-LDA
 Gradients option       PostSCFGGA      .... off
   Density functional embedding theory  .... OFF
   NL short-range parameter             ....  6.400000


General Settings:
 Integral files         IntName         .... hns_pbe
 Hartree-Fock type      HFTyp           .... UHF
 Total Charge           Charge          ....    0
 Multiplicity           Mult            ....    1
 Number of Electrons    NEL             ....   24
 Basis Dimension        Dim             ....  374
 Nuclear Repulsion      ENuc            ....     44.8674231713 Eh

Convergence Acceleration:
 DIIS                   CNVDIIS         .... on
   Start iteration      DIISMaxIt       ....    12
   Startup error        DIISStart       ....  0.200000
   # of expansion vecs  DIISMaxEq       ....     5
   Bias factor          DIISBfac        ....   1.050
   Max. coefficient     DIISMaxC        ....  10.000
 Newton-Raphson         CNVNR           .... off
 SOSCF                  CNVSOSCF        .... off
 Level Shifting         CNVShift        .... on
   Level shift para.    LevelShift      ....    0.2500
   Turn off err/grad.   ShiftErr        ....    0.0010
 Zerner damping         CNVZerner       .... off
 Static damping         CNVDamp         .... on
   Fraction old density DampFac         ....    0.7000
   Max. Damping (<1)    DampMax         ....    0.9800
   Min. Damping (>=0)   DampMin         ....    0.0000
   Turn off err/grad.   DampErr         ....    0.1000
 Fernandez-Rico         CNVRico         .... off

SCF Procedure:
 Maximum # iterations   MaxIter         ....   200
 SCF integral mode      SCFMode         .... Direct
   Integral package                     .... LIBINT
 Reset frequency        DirectResetFreq ....    20
 Integral Threshold     Thresh          ....  1.000e-12 Eh
 Primitive CutOff       TCut            ....  1.000e-14 Eh

Convergence Tolerance:
 Convergence Check Mode ConvCheckMode   .... Total+1el-Energy
 Convergence forced     ConvForced      .... 0
 Energy Change          TolE            ....  1.000e-09 Eh
 1-El. energy change                    ....  1.000e-06 Eh
 DIIS Error             TolErr          ....  1.000e-08


Diagonalization of the overlap matrix:
Smallest eigenvalue                        ... 2.511e-06
Time for diagonalization                   ...    0.072 sec
Threshold for overlap eigenvalues          ... 1.000e-08
Number of eigenvalues below threshold      ... 0
Time for construction of square roots      ...    0.017 sec
Total time needed                          ...    0.089 sec

-------------------
DFT GRID GENERATION
-------------------

General Integration Accuracy     IntAcc      ...  5.670
Radial Grid Type                 RadialGrid  ... Gauss-Chebyshev
Angular Grid (max. acc.)         AngularGrid ... Lebedev-770
Angular grid pruning method      GridPruning ... 3 (G Style)
Weight generation scheme         WeightScheme... Becke
Basis function cutoff            BFCut       ...    1.0000e-12
Integration weight cutoff        WCut        ...    1.0000e-14
Grids for H and He will be reduced by one unit

# of grid points (after initial pruning)     ...  70062 (   0.0 sec)
# of grid points (after weights+screening)   ...  69465 (   0.0 sec)
nearest neighbour list constructed           ...    0.0 sec
Grid point re-assignment to atoms done       ...    0.0 sec
Grid point division into batches done        ...    1.4 sec
Reduced shell lists constructed in    2.1 sec

Total number of grid points                  ...    69465
Total number of batches                      ...     1086
Average number of points per batch           ...       63
Average number of grid points per atom       ...    23155
Average number of shells per batch           ...    66.63 (75.71%)
Average number of basis functions per batch  ...   291.11 (77.84%)
Average number of large shells per batch     ...    59.89 (89.88%)
Average number of large basis fcns per batch ...   262.74 (90.25%)
Maximum spatial batch extension              ...  20.30, 31.52, 28.09 au
Average spatial batch extension              ...   2.20,  2.32,  2.37 au

Time for grid setup =    2.193 sec

------------------------------
INITIAL GUESS: MODEL POTENTIAL
------------------------------
Loading Hartree-Fock densities                     ... done
Calculating cut-offs                               ... done
Setting up the integral package                    ... done
Initializing the effective Hamiltonian             ... done
Starting the Coulomb interaction                   ... done (   0.1 sec)
Reading the grid                                   ... done
Mapping shells                                     ... done
Starting the XC term evaluation                    ... done (   4.2 sec)
  promolecular density results
     # of electrons  =     23.999509775
     EX              =    -31.657111750
     EC              =     -0.867357499
     EX+EC           =    -32.524469249
Transforming the Hamiltonian                       ... done (   0.0 sec)
Diagonalizing the Hamiltonian                      ... done (   0.0 sec)
Back transforming the eigenvectors                 ... done (   0.0 sec)
Now organizing SCF variables                       ... done
                      ------------------
                      INITIAL GUESS DONE (   6.7 sec)
                      ------------------
--------------
SCF ITERATIONS
--------------
ITER       Energy         Delta-E        Max-DP      RMS-DP      [F,P]     Damp
               ***  Starting incremental Fock matrix formation  ***
  0   -453.1987541790   0.000000000000 0.01611748  0.00021677  0.2995969 0.7000
  1   -453.2593655192  -0.060611340167 0.01052550  0.00012901  0.0676458 0.7000
                               ***Turning on DIIS***
  2   -453.2634870148  -0.004121495596 0.03105135  0.00022128  0.0565440 0.0000
  3   -453.2953877261  -0.031900711285 0.01662647  0.00015994  0.0366225 0.0000
  4   -453.2961804693  -0.000792743218 0.00377633  0.00005506  0.0345367 0.0000
  5   -453.2973238015  -0.001143332195 0.00156344  0.00001974  0.0159178 0.0000
  6   -453.2976331139  -0.000309312436 0.00083373  0.00001066  0.0063394 0.0000
  7   -453.2976707094  -0.000037595446 0.00035730  0.00000427  0.0029638 0.0000
  8   -453.2976785300  -0.000007820630 0.00019581  0.00000268  0.0012263 0.0000
  9   -453.2976799449  -0.000001414894 0.00015903  0.00000189  0.0004830 0.0000
 10   -453.2976801247  -0.000000179828 0.00004387  0.00000044  0.0002833 0.0000
 11   -453.2976802156  -0.000000090829 0.00001439  0.00000013  0.0000175 0.0000
 12   -453.2976802165  -0.000000000942 0.00002763  0.00000019  0.0000054 0.0000
 13   -453.2976802166  -0.000000000064 0.00001331  0.00000009  0.0000009 0.0000
 14   -453.2976802166  -0.000000000013 0.00000831  0.00000009  0.0000004 0.0000
 15   -453.2976802166  -0.000000000000 0.00001568  0.00000014  0.0000001 0.0000
                 **** Energy Check signals convergence ****

               *****************************************************
               *                     SUCCESS                       *
               *           SCF CONVERGED AFTER  16 CYCLES          *
               *****************************************************


----------------
TOTAL SCF ENERGY
----------------

Total Energy       :         -453.29768022 Eh          -12334.85697 eV

Components:
Nuclear Repulsion  :           44.86742317 Eh            1220.90465 eV
Electronic Energy  :         -498.16510339 Eh          -13555.76162 eV
One Electron Energy:         -713.56237273 Eh          -19417.01930 eV
Two Electron Energy:          215.39726934 Eh            5861.25768 eV

Virial components:
Potential Energy   :         -906.03005871 Eh          -24654.33130 eV
Kinetic Energy     :          452.73237850 Eh           12319.47433 eV
Virial Ratio       :            2.00124864


DFT components:
N(Alpha)           :       11.999999899378 electrons
N(Beta)            :       11.999999899378 electrons
N(Total)           :       23.999999798756 electrons
E(X)               :      -31.777583964673 Eh       
E(C)               :       -0.868756035811 Eh       
E(XC)              :      -32.646340000484 Eh       
DFET-embed. en.    :        0.000000000000 Eh       

---------------
SCF CONVERGENCE
---------------

  Last Energy change         ...    1.2790e-11  Tolerance :   1.0000e-09
  Last MAX-Density change    ...    1.3015e-05  Tolerance :   1.0000e-08
  Last RMS-Density change    ...    1.2925e-07  Tolerance :   1.0000e-09
  Last DIIS Error            ...    4.8161e-08  Tolerance :   1.0000e-08

             **** THE GBW FILE WAS UPDATED (hns_pbe.gbw) ****
             **** DENSITY FILE WAS UPDATED (hns_pbe.scfp.tmp) ****
             **** ENERGY FILE WAS UPDATED (hns_pbe.en.tmp) ****
----------------------
UHF SPIN CONTAMINATION
----------------------

Warning: in a DFT calculation there is little theoretical justification to 
         calculate <S**2> as in Hartree-Fock theory. We will do it anyways
         but you should keep in mind that the values have only limited relevance

Expectation value of <S**2>     :     0.000000
Ideal value S*(S+1) for S=0.0   :     0.000000
Deviation                       :     0.000000

----------------
ORBITAL ENERGIES
----------------
                 SPIN UP ORBITALS
  NO   OCC          E(Eh)            E(eV) 
   0   1.0000     -88.083724     -2396.8800 
   1   1.0000     -14.055068      -382.4578 
   2   1.0000      -7.719339      -210.0539 
   3   1.0000      -5.742914      -156.2726 
   4   1.0000      -5.738648      -156.1565 
   5   1.0000      -5.727390      -155.8502 
   6   1.0000      -0.853449       -23.2235 
   7   1.0000      -0.592686       -16.1278 
   8   1.0000      -0.423842       -11.5333 
   9   1.0000      -0.344038        -9.3617 
  10   1.0000      -0.330136        -8.9835 
  11   1.0000      -0.195324        -5.3150 
  12   0.0000      -0.179124        -4.8742 
  13   0.0000      -0.034534        -0.9397 
  14   0.0000      -0.007035        -0.1914 
  15   0.0000       0.015014         0.4085 
  16   0.0000       0.017021         0.4632 
  17   0.0000       0.024879         0.6770 
  18   0.0000       0.040223         1.0945 
  19   0.0000       0.046432         1.2635 
  20   0.0000       0.048939         1.3317 
  21   0.0000       0.050695         1.3795 
  22   0.0000       0.056814         1.5460 
  23   0.0000       0.064588         1.7575 
  24   0.0000       0.083112         2.2616 
  25   0.0000       0.094801         2.5797 
  26   0.0000       0.096367         2.6223 
  27   0.0000       0.109380         2.9764 
  28   0.0000       0.116316         3.1651 
  29   0.0000       0.123409         3.3581 
  30   0.0000       0.129845         3.5333 
  31   0.0000       0.132383         3.6023 
  32   0.0000       0.137210         3.7337 
  33   0.0000       0.148632         4.0445 
  34   0.0000       0.153156         4.1676 
  35   0.0000       0.166331         4.5261 
  36   0.0000       0.170123         4.6293 
  37   0.0000       0.175918         4.7870 
  38   0.0000       0.181693         4.9441 
  39   0.0000       0.185767         5.0550 
  40   0.0000       0.205051         5.5797 
  41   0.0000       0.208027         5.6607 
  42   0.0000       0.215985         5.8773 
  43   0.0000       0.221253         6.0206 
  44   0.0000       0.227581         6.1928 
  45   0.0000       0.239352         6.5131 
  46   0.0000       0.244635         6.6568 
  47   0.0000       0.250964         6.8291 
  48   0.0000       0.256027         6.9668 
  49   0.0000       0.257768         7.0142 
  50   0.0000       0.262397         7.1402 
  51   0.0000       0.269834         7.3426 
  52   0.0000       0.274443         7.4680 
  53   0.0000       0.284643         7.7455 
  54   0.0000       0.317970         8.6524 
  55   0.0000       0.322189         8.7672 
  56   0.0000       0.337550         9.1852 
  57   0.0000       0.340299         9.2600 
  58   0.0000       0.342599         9.3226 
  59   0.0000       0.347610         9.4589 
  60   0.0000       0.357314         9.7230 
  61   0.0000       0.360389         9.8067 
  62   0.0000       0.380297        10.3484 
  63   0.0000       0.387811        10.5529 
  64   0.0000       0.394625        10.7383 
  65   0.0000       0.404181        10.9983 
  66   0.0000       0.415991        11.3197 
  67   0.0000       0.418687        11.3931 
  68   0.0000       0.425209        11.5705 
  69   0.0000       0.426480        11.6051 
  70   0.0000       0.437880        11.9153 
  71   0.0000       0.444046        12.0831 
  72   0.0000       0.446962        12.1625 
  73   0.0000       0.447751        12.1839 
  74   0.0000       0.449411        12.2291 
  75   0.0000       0.459834        12.5127 
  76   0.0000       0.462203        12.5772 
  77   0.0000       0.463576        12.6145 
  78   0.0000       0.496990        13.5238 
  79   0.0000       0.502307        13.6685 
  80   0.0000       0.507637        13.8135 
  81   0.0000       0.509664        13.8687 
  82   0.0000       0.510153        13.8820 
  83   0.0000       0.519044        14.1239 
  84   0.0000       0.527324        14.3492 
  85   0.0000       0.537430        14.6242 
  86   0.0000       0.545438        14.8421 
  87   0.0000       0.553070        15.0498 
  88   0.0000       0.558116        15.1871 
  89   0.0000       0.571012        15.5380 
  90   0.0000       0.578041        15.7293 
  91   0.0000       0.586867        15.9695 
  92   0.0000       0.587794        15.9947 
  93   0.0000       0.595190        16.1960 
  94   0.0000       0.607774        16.5384 
  95   0.0000       0.635477        17.2922 
  96   0.0000       0.638800        17.3826 
  97   0.0000       0.645234        17.5577 
  98   0.0000       0.669500        18.2180 
  99   0.0000       0.675536        18.3823 
 100   0.0000       0.687474        18.7071 
 101   0.0000       0.696967        18.9654 
 102   0.0000       0.697322        18.9751 
 103   0.0000       0.725237        19.7347 
 104   0.0000       0.740399        20.1473 
 105   0.0000       0.741180        20.1685 
 106   0.0000       0.753077        20.4923 
 107   0.0000       0.754713        20.5368 
 108   0.0000       0.756813        20.5939 
 109   0.0000       0.768450        20.9106 
 110   0.0000       0.768791        20.9199 
 111   0.0000       0.780220        21.2309 
 112   0.0000       0.780786        21.2463 
 113   0.0000       0.784925        21.3589 
 114   0.0000       0.793079        21.5808 
 115   0.0000       0.795171        21.6377 
 116   0.0000       0.804924        21.9031 
 117   0.0000       0.812769        22.1166 
 118   0.0000       0.827427        22.5154 
 119   0.0000       0.837591        22.7920 
 120   0.0000       0.844238        22.9729 
 121   0.0000       0.849190        23.1076 
 122   0.0000       0.858493        23.3608 
 123   0.0000       0.868065        23.6213 
 124   0.0000       0.874192        23.7880 
 125   0.0000       0.880653        23.9638 
 126   0.0000       0.901333        24.5265 
 127   0.0000       0.911938        24.8151 
 128   0.0000       0.929512        25.2933 
 129   0.0000       0.931277        25.3413 
 130   0.0000       0.934067        25.4173 
 131   0.0000       0.949615        25.8403 
 132   0.0000       0.958756        26.0891 
 133   0.0000       0.960904        26.1475 
 134   0.0000       0.966025        26.2869 
 135   0.0000       0.977465        26.5982 
 136   0.0000       0.991210        26.9722 
 137   0.0000       1.018572        27.7168 
 138   0.0000       1.018883        27.7252 
 139   0.0000       1.027776        27.9672 
 140   0.0000       1.028299        27.9814 
 141   0.0000       1.036571        28.2065 
 142   0.0000       1.062405        28.9095 
 143   0.0000       1.092422        29.7263 
 144   0.0000       1.098522        29.8923 
 145   0.0000       1.113293        30.2942 
 146   0.0000       1.159623        31.5549 
 147   0.0000       1.216208        33.0947 
 148   0.0000       1.225611        33.3506 
 149   0.0000       1.263302        34.3762 
 150   0.0000       1.283575        34.9278 
 151   0.0000       1.370663        37.2976 
 152   0.0000       1.379149        37.5286 
 153   0.0000       1.394691        37.9515 
 154   0.0000       1.437383        39.1132 
 155   0.0000       1.451159        39.4880 
 156   0.0000       1.467071        39.9210 
 157   0.0000       1.496469        40.7210 
 158   0.0000       1.532720        41.7074 
 159   0.0000       1.536244        41.8033 
 160   0.0000       1.550717        42.1972 
 161   0.0000       1.560794        42.4714 
 162   0.0000       1.597316        43.4652 
 163   0.0000       1.627448        44.2851 
 164   0.0000       1.662164        45.2298 
 165   0.0000       1.686330        45.8874 
 166   0.0000       1.718822        46.7715 
 167   0.0000       1.782368        48.5007 
 168   0.0000       1.800732        49.0004 
 169   0.0000       1.818833        49.4930 
 170   0.0000       1.836444        49.9722 
 171   0.0000       1.870177        50.8901 
 172   0.0000       1.954796        53.1927 
 173   0.0000       2.029494        55.2253 
 174   0.0000       2.090403        56.8827 
 175   0.0000       2.144546        58.3561 
 176   0.0000       2.192904        59.6720 
 177   0.0000       2.219188        60.3872 
 178   0.0000       2.231866        60.7322 
 179   0.0000       2.290122        62.3174 
 180   0.0000       2.343284        63.7640 
 181   0.0000       2.359154        64.1958 
 182   0.0000       2.373860        64.5960 
 183   0.0000       2.502643        68.1004 
 184   0.0000       2.544648        69.2434 
 185   0.0000       2.568326        69.8877 
 186   0.0000       2.578995        70.1780 
 187   0.0000       2.657869        72.3243 
 188   0.0000       2.662855        72.4600 
 189   0.0000       2.667531        72.5872 
 190   0.0000       2.743714        74.6603 
 191   0.0000       2.827104        76.9294 
 192   0.0000       2.856989        77.7426 
 193   0.0000       2.959639        80.5359 
 194   0.0000       3.004972        81.7694 
 195   0.0000       3.039921        82.7205 
 196   0.0000       3.089986        84.0828 
 197   0.0000       3.120398        84.9103 
 198   0.0000       3.132955        85.2520 
 199   0.0000       3.176036        86.4243 
 200   0.0000       3.232959        87.9733 
 201   0.0000       3.293475        89.6200 
 202   0.0000       3.309200        90.0479 
 203   0.0000       3.323947        90.4492 
 204   0.0000       3.331636        90.6584 
 205   0.0000       3.407743        92.7294 
 206   0.0000       3.420988        93.0898 
 207   0.0000       3.473581        94.5209 
 208   0.0000       3.491466        95.0076 
 209   0.0000       3.523125        95.8691 
 210   0.0000       3.525421        95.9316 
 211   0.0000       3.548284        96.5537 
 212   0.0000       3.591800        97.7379 
 213   0.0000       3.604742        98.0900 
 214   0.0000       3.694183       100.5238 
 215   0.0000       3.744042       101.8806 
 216   0.0000       3.814078       103.7863 
 217   0.0000       3.865583       105.1879 
 218   0.0000       3.866842       105.2221 
 219   0.0000       3.937911       107.1560 
 220   0.0000       3.956861       107.6717 
 221   0.0000       4.009126       109.0939 
 222   0.0000       4.170036       113.4724 
 223   0.0000       4.262138       115.9787 
 224   0.0000       4.300032       117.0098 
 225   0.0000       4.339596       118.0864 
 226   0.0000       4.574454       124.4772 
 227   0.0000       4.606893       125.3599 
 228   0.0000       4.627900       125.9315 
 229   0.0000       4.763321       129.6166 
 230   0.0000       4.867632       132.4550 
 231   0.0000       4.916794       133.7928 
 232   0.0000       4.961817       135.0179 
 233   0.0000       5.027966       136.8179 
 234   0.0000       5.119486       139.3083 
 235   0.0000       5.124549       139.4461 
 236   0.0000       5.140896       139.8909 
 237   0.0000       5.143267       139.9554 
 238   0.0000       5.182362       141.0192 
 239   0.0000       5.293852       144.0530 
 240   0.0000       5.366132       146.0199 
 241   0.0000       5.441922       148.0822 
 242   0.0000       5.564854       151.4274 
 243   0.0000       5.593410       152.2044 
 244   0.0000       5.615867       152.8155 
 245   0.0000       5.622678       153.0008 
 246   0.0000       5.714680       155.5044 
 247   0.0000       5.722235       155.7099 
 248   0.0000       5.822440       158.4367 
 249   0.0000       5.898169       160.4973 
 250   0.0000       5.974697       162.5798 
 251   0.0000       6.068228       165.1249 
 252   0.0000       6.075229       165.3154 
 253   0.0000       6.181970       168.2200 
 254   0.0000       6.230601       169.5433 
 255   0.0000       6.275772       170.7724 
 256   0.0000       6.374511       173.4593 
 257   0.0000       6.377111       173.5300 
 258   0.0000       6.517607       177.3531 
 259   0.0000       6.703281       182.4056 
 260   0.0000       6.740858       183.4281 
 261   0.0000       6.764256       184.0648 
 262   0.0000       7.035988       191.4590 
 263   0.0000       7.387325       201.0193 
 264   0.0000       7.394662       201.2190 
 265   0.0000       7.554042       205.5559 
 266   0.0000       7.587780       206.4740 
 267   0.0000       7.822490       212.8608 
 268   0.0000       7.901306       215.0055 
 269   0.0000       8.199268       223.1134 
 270   0.0000       8.204621       223.2591 
 271   0.0000       8.238337       224.1765 
 272   0.0000       8.299013       225.8276 
 273   0.0000       8.318756       226.3649 
 274   0.0000       8.446323       229.8361 
 275   0.0000       8.448143       229.8857 
 276   0.0000       8.492152       231.0832 
 277   0.0000       8.606634       234.1984 
 278   0.0000       8.705988       236.9020 
 279   0.0000       8.808404       239.6889 
 280   0.0000       8.843106       240.6331 
 281   0.0000       8.937535       243.2027 
 282   0.0000       9.044371       246.1099 
 283   0.0000       9.074494       246.9295 
 284   0.0000       9.408434       256.0165 
 285   0.0000       9.588753       260.9232 
 286   0.0000       9.752497       265.3789 
 287   0.0000       9.905505       269.5425 
 288   0.0000      10.079342       274.2728 
 289   0.0000      11.244313       305.9733 
 290   0.0000      11.296236       307.3862 
 291   0.0000      11.310953       307.7867 
 292   0.0000      11.340536       308.5917 
 293   0.0000      11.388134       309.8869 
 294   0.0000      11.407267       310.4075 
 295   0.0000      11.423103       310.8384 
 296   0.0000      11.434631       311.1521 
 297   0.0000      11.442076       311.3547 
 298   0.0000      11.478719       312.3518 
 299   0.0000      11.489437       312.6435 
 300   0.0000      11.512606       313.2739 
 301   0.0000      11.520845       313.4981 
 302   0.0000      11.617645       316.1322 
 303   0.0000      11.621149       316.2275 
 304   0.0000      11.680468       317.8417 
 305   0.0000      11.746948       319.6507 
 306   0.0000      11.863372       322.8188 
 307   0.0000      11.911796       324.1364 
 308   0.0000      11.958054       325.3952 
 309   0.0000      12.420283       337.9731 
 310   0.0000      12.424358       338.0840 
 311   0.0000      12.550945       341.5286 
 312   0.0000      12.673013       344.8502 
 313   0.0000      12.714499       345.9791 
 314   0.0000      12.803205       348.3929 
 315   0.0000      12.890619       350.7716 
 316   0.0000      13.631428       370.9300 
 317   0.0000      13.672399       372.0449 
 318   0.0000      13.922229       378.8431 
 319   0.0000      14.114952       384.0874 
 320   0.0000      14.659945       398.9174 
 321   0.0000      14.763954       401.7476 
 322   0.0000      15.001128       408.2014 
 323   0.0000      15.123254       411.5247 
 324   0.0000      15.189730       413.3336 
 325   0.0000      15.276734       415.7011 
 326   0.0000      15.376757       418.4228 
 327   0.0000      15.755117       428.7185 
 328   0.0000      15.838270       430.9812 
 329   0.0000      16.078059       437.5062 
 330   0.0000      16.118106       438.5960 
 331   0.0000      16.592690       451.5100 
 332   0.0000      16.702996       454.5116 
 333   0.0000      16.705876       454.5900 
 334   0.0000      16.839374       458.2227 
 335   0.0000      16.887587       459.5346 
 336   0.0000      16.888700       459.5649 
 337   0.0000      16.979500       462.0357 
 338   0.0000      17.058038       464.1728 
 339   0.0000      17.171603       467.2631 
 340   0.0000      17.262003       469.7230 
 341   0.0000      17.300004       470.7570 
 342   0.0000      17.394246       473.3215 
 343   0.0000      17.514687       476.5989 
 344   0.0000      17.966131       488.8833 
 345   0.0000      18.996369       516.9175 
 346   0.0000      19.047170       518.2998 
 347   0.0000      19.104327       519.8552 
 348   0.0000      20.430307       555.9369 
 349   0.0000      20.599527       560.5416 
 350   0.0000      20.952839       570.1557 
 351   0.0000      23.370700       635.9491 
 352   0.0000      23.423767       637.3931 
 353   0.0000      23.535744       640.4402 
 354   0.0000      25.583867       696.1724 
 355   0.0000      26.010729       707.7879 
 356   0.0000      26.958032       733.5653 
 357   0.0000      27.929199       759.9921 
 358   0.0000      30.343306       825.6833 
 359   0.0000      41.180858      1120.5881 
 360   0.0000      47.756808      1299.5288 
 361   0.0000      47.892348      1303.2170 
 362   0.0000      47.924217      1304.0842 
 363   0.0000      48.204707      1311.7168 
 364   0.0000      48.796591      1327.8227 
 365   0.0000      62.364643      1697.0282 
 366   0.0000      62.367428      1697.1040 
 367   0.0000      62.439714      1699.0710 
 368   0.0000      62.502802      1700.7877 
 369   0.0000      63.042361      1715.4699 
 370   0.0000      90.924189      2474.1730 
 371   0.0000      91.037867      2477.2663 
 372   0.0000      92.685792      2522.1086 
 373   0.0000     104.122808      2833.3257 

                 SPIN DOWN ORBITALS
  NO   OCC          E(Eh)            E(eV) 
   0   1.0000     -88.083724     -2396.8800 
   1   1.0000     -14.055068      -382.4578 
   2   1.0000      -7.719339      -210.0539 
   3   1.0000      -5.742914      -156.2726 
   4   1.0000      -5.738648      -156.1565 
   5   1.0000      -5.727390      -155.8502 
   6   1.0000      -0.853449       -23.2235 
   7   1.0000      -0.592686       -16.1278 
   8   1.0000      -0.423842       -11.5333 
   9   1.0000      -0.344038        -9.3617 
  10   1.0000      -0.330136        -8.9835 
  11   1.0000      -0.195324        -5.3150 
  12   0.0000      -0.179124        -4.8742 
  13   0.0000      -0.034534        -0.9397 
  14   0.0000      -0.007035        -0.1914 
  15   0.0000       0.015014         0.4085 
  16   0.0000       0.017021         0.4632 
  17   0.0000       0.024879         0.6770 
  18   0.0000       0.040223         1.0945 
  19   0.0000       0.046432         1.2635 
  20   0.0000       0.048939         1.3317 
  21   0.0000       0.050695         1.3795 
  22   0.0000       0.056814         1.5460 
  23   0.0000       0.064588         1.7575 
  24   0.0000       0.083112         2.2616 
  25   0.0000       0.094801         2.5797 
  26   0.0000       0.096367         2.6223 
  27   0.0000       0.109380         2.9764 
  28   0.0000       0.116316         3.1651 
  29   0.0000       0.123409         3.3581 
  30   0.0000       0.129845         3.5333 
  31   0.0000       0.132383         3.6023 
  32   0.0000       0.137210         3.7337 
  33   0.0000       0.148632         4.0445 
  34   0.0000       0.153156         4.1676 
  35   0.0000       0.166331         4.5261 
  36   0.0000       0.170123         4.6293 
  37   0.0000       0.175918         4.7870 
  38   0.0000       0.181693         4.9441 
  39   0.0000       0.185767         5.0550 
  40   0.0000       0.205051         5.5797 
  41   0.0000       0.208027         5.6607 
  42   0.0000       0.215985         5.8773 
  43   0.0000       0.221253         6.0206 
  44   0.0000       0.227581         6.1928 
  45   0.0000       0.239352         6.5131 
  46   0.0000       0.244635         6.6568 
  47   0.0000       0.250964         6.8291 
  48   0.0000       0.256027         6.9668 
  49   0.0000       0.257768         7.0142 
  50   0.0000       0.262397         7.1402 
  51   0.0000       0.269834         7.3426 
  52   0.0000       0.274443         7.4680 
  53   0.0000       0.284643         7.7455 
  54   0.0000       0.317970         8.6524 
  55   0.0000       0.322189         8.7672 
  56   0.0000       0.337550         9.1852 
  57   0.0000       0.340299         9.2600 
  58   0.0000       0.342599         9.3226 
  59   0.0000       0.347610         9.4589 
  60   0.0000       0.357314         9.7230 
  61   0.0000       0.360389         9.8067 
  62   0.0000       0.380297        10.3484 
  63   0.0000       0.387811        10.5529 
  64   0.0000       0.394625        10.7383 
  65   0.0000       0.404181        10.9983 
  66   0.0000       0.415991        11.3197 
  67   0.0000       0.418687        11.3931 
  68   0.0000       0.425209        11.5705 
  69   0.0000       0.426480        11.6051 
  70   0.0000       0.437880        11.9153 
  71   0.0000       0.444046        12.0831 
  72   0.0000       0.446962        12.1625 
  73   0.0000       0.447751        12.1839 
  74   0.0000       0.449411        12.2291 
  75   0.0000       0.459834        12.5127 
  76   0.0000       0.462203        12.5772 
  77   0.0000       0.463576        12.6145 
  78   0.0000       0.496990        13.5238 
  79   0.0000       0.502307        13.6685 
  80   0.0000       0.507637        13.8135 
  81   0.0000       0.509664        13.8687 
  82   0.0000       0.510153        13.8820 
  83   0.0000       0.519044        14.1239 
  84   0.0000       0.527324        14.3492 
  85   0.0000       0.537430        14.6242 
  86   0.0000       0.545438        14.8421 
  87   0.0000       0.553070        15.0498 
  88   0.0000       0.558116        15.1871 
  89   0.0000       0.571012        15.5380 
  90   0.0000       0.578041        15.7293 
  91   0.0000       0.586867        15.9695 
  92   0.0000       0.587794        15.9947 
  93   0.0000       0.595190        16.1960 
  94   0.0000       0.607774        16.5384 
  95   0.0000       0.635477        17.2922 
  96   0.0000       0.638800        17.3826 
  97   0.0000       0.645234        17.5577 
  98   0.0000       0.669500        18.2180 
  99   0.0000       0.675536        18.3823 
 100   0.0000       0.687474        18.7071 
 101   0.0000       0.696967        18.9654 
 102   0.0000       0.697322        18.9751 
 103   0.0000       0.725237        19.7347 
 104   0.0000       0.740399        20.1473 
 105   0.0000       0.741180        20.1685 
 106   0.0000       0.753077        20.4923 
 107   0.0000       0.754713        20.5368 
 108   0.0000       0.756813        20.5939 
 109   0.0000       0.768450        20.9106 
 110   0.0000       0.768791        20.9199 
 111   0.0000       0.780220        21.2309 
 112   0.0000       0.780786        21.2463 
 113   0.0000       0.784925        21.3589 
 114   0.0000       0.793079        21.5808 
 115   0.0000       0.795171        21.6377 
 116   0.0000       0.804924        21.9031 
 117   0.0000       0.812769        22.1166 
 118   0.0000       0.827427        22.5154 
 119   0.0000       0.837591        22.7920 
 120   0.0000       0.844238        22.9729 
 121   0.0000       0.849190        23.1076 
 122   0.0000       0.858493        23.3608 
 123   0.0000       0.868065        23.6213 
 124   0.0000       0.874192        23.7880 
 125   0.0000       0.880653        23.9638 
 126   0.0000       0.901333        24.5265 
 127   0.0000       0.911938        24.8151 
 128   0.0000       0.929512        25.2933 
 129   0.0000       0.931277        25.3413 
 130   0.0000       0.934067        25.4173 
 131   0.0000       0.949615        25.8403 
 132   0.0000       0.958756        26.0891 
 133   0.0000       0.960904        26.1475 
 134   0.0000       0.966025        26.2869 
 135   0.0000       0.977465        26.5982 
 136   0.0000       0.991210        26.9722 
 137   0.0000       1.018572        27.7168 
 138   0.0000       1.018883        27.7252 
 139   0.0000       1.027776        27.9672 
 140   0.0000       1.028299        27.9814 
 141   0.0000       1.036571        28.2065 
 142   0.0000       1.062405        28.9095 
 143   0.0000       1.092422        29.7263 
 144   0.0000       1.098522        29.8923 
 145   0.0000       1.113293        30.2942 
 146   0.0000       1.159623        31.5549 
 147   0.0000       1.216208        33.0947 
 148   0.0000       1.225611        33.3506 
 149   0.0000       1.263302        34.3762 
 150   0.0000       1.283575        34.9278 
 151   0.0000       1.370663        37.2976 
 152   0.0000       1.379149        37.5286 
 153   0.0000       1.394691        37.9515 
 154   0.0000       1.437383        39.1132 
 155   0.0000       1.451159        39.4880 
 156   0.0000       1.467071        39.9210 
 157   0.0000       1.496469        40.7210 
 158   0.0000       1.532720        41.7074 
 159   0.0000       1.536244        41.8033 
 160   0.0000       1.550717        42.1972 
 161   0.0000       1.560794        42.4714 
 162   0.0000       1.597316        43.4652 
 163   0.0000       1.627448        44.2851 
 164   0.0000       1.662164        45.2298 
 165   0.0000       1.686330        45.8874 
 166   0.0000       1.718822        46.7715 
 167   0.0000       1.782368        48.5007 
 168   0.0000       1.800732        49.0004 
 169   0.0000       1.818833        49.4930 
 170   0.0000       1.836444        49.9722 
 171   0.0000       1.870177        50.8901 
 172   0.0000       1.954796        53.1927 
 173   0.0000       2.029494        55.2253 
 174   0.0000       2.090403        56.8827 
 175   0.0000       2.144546        58.3561 
 176   0.0000       2.192904        59.6720 
 177   0.0000       2.219188        60.3872 
 178   0.0000       2.231866        60.7322 
 179   0.0000       2.290122        62.3174 
 180   0.0000       2.343284        63.7640 
 181   0.0000       2.359154        64.1958 
 182   0.0000       2.373860        64.5960 
 183   0.0000       2.502643        68.1004 
 184   0.0000       2.544648        69.2434 
 185   0.0000       2.568326        69.8877 
 186   0.0000       2.578995        70.1780 
 187   0.0000       2.657869        72.3243 
 188   0.0000       2.662855        72.4600 
 189   0.0000       2.667531        72.5872 
 190   0.0000       2.743714        74.6603 
 191   0.0000       2.827104        76.9294 
 192   0.0000       2.856989        77.7426 
 193   0.0000       2.959639        80.5359 
 194   0.0000       3.004972        81.7694 
 195   0.0000       3.039921        82.7205 
 196   0.0000       3.089986        84.0828 
 197   0.0000       3.120398        84.9103 
 198   0.0000       3.132955        85.2520 
 199   0.0000       3.176036        86.4243 
 200   0.0000       3.232959        87.9733 
 201   0.0000       3.293475        89.6200 
 202   0.0000       3.309200        90.0479 
 203   0.0000       3.323947        90.4492 
 204   0.0000       3.331636        90.6584 
 205   0.0000       3.407743        92.7294 
 206   0.0000       3.420988        93.0898 
 207   0.0000       3.473581        94.5209 
 208   0.0000       3.491466        95.0076 
 209   0.0000       3.523125        95.8691 
 210   0.0000       3.525421        95.9316 
 211   0.0000       3.548284        96.5537 
 212   0.0000       3.591800        97.7379 
 213   0.0000       3.604742        98.0900 
 214   0.0000       3.694183       100.5238 
 215   0.0000       3.744042       101.8806 
 216   0.0000       3.814078       103.7863 
 217   0.0000       3.865583       105.1879 
 218   0.0000       3.866842       105.2221 
 219   0.0000       3.937911       107.1560 
 220   0.0000       3.956861       107.6717 
 221   0.0000       4.009126       109.0939 
 222   0.0000       4.170036       113.4724 
 223   0.0000       4.262138       115.9787 
 224   0.0000       4.300032       117.0098 
 225   0.0000       4.339596       118.0864 
 226   0.0000       4.574454       124.4772 
 227   0.0000       4.606893       125.3599 
 228   0.0000       4.627900       125.9315 
 229   0.0000       4.763321       129.6166 
 230   0.0000       4.867632       132.4550 
 231   0.0000       4.916794       133.7928 
 232   0.0000       4.961817       135.0179 
 233   0.0000       5.027966       136.8179 
 234   0.0000       5.119486       139.3083 
 235   0.0000       5.124549       139.4461 
 236   0.0000       5.140896       139.8909 
 237   0.0000       5.143267       139.9554 
 238   0.0000       5.182362       141.0192 
 239   0.0000       5.293852       144.0530 
 240   0.0000       5.366132       146.0199 
 241   0.0000       5.441922       148.0822 
 242   0.0000       5.564854       151.4274 
 243   0.0000       5.593410       152.2044 
 244   0.0000       5.615867       152.8155 
 245   0.0000       5.622678       153.0008 
 246   0.0000       5.714680       155.5044 
 247   0.0000       5.722235       155.7099 
 248   0.0000       5.822440       158.4367 
 249   0.0000       5.898169       160.4973 
 250   0.0000       5.974697       162.5798 
 251   0.0000       6.068228       165.1249 
 252   0.0000       6.075229       165.3154 
 253   0.0000       6.181970       168.2200 
 254   0.0000       6.230601       169.5433 
 255   0.0000       6.275772       170.7724 
 256   0.0000       6.374511       173.4593 
 257   0.0000       6.377111       173.5300 
 258   0.0000       6.517607       177.3531 
 259   0.0000       6.703281       182.4056 
 260   0.0000       6.740858       183.4281 
 261   0.0000       6.764256       184.0648 
 262   0.0000       7.035988       191.4590 
 263   0.0000       7.387325       201.0193 
 264   0.0000       7.394662       201.2190 
 265   0.0000       7.554042       205.5559 
 266   0.0000       7.587780       206.4740 
 267   0.0000       7.822490       212.8608 
 268   0.0000       7.901306       215.0055 
 269   0.0000       8.199268       223.1134 
 270   0.0000       8.204621       223.2591 
 271   0.0000       8.238337       224.1765 
 272   0.0000       8.299013       225.8276 
 273   0.0000       8.318756       226.3649 
 274   0.0000       8.446323       229.8361 
 275   0.0000       8.448143       229.8857 
 276   0.0000       8.492152       231.0832 
 277   0.0000       8.606634       234.1984 
 278   0.0000       8.705988       236.9020 
 279   0.0000       8.808404       239.6889 
 280   0.0000       8.843106       240.6331 
 281   0.0000       8.937535       243.2027 
 282   0.0000       9.044371       246.1099 
 283   0.0000       9.074494       246.9295 
 284   0.0000       9.408434       256.0165 
 285   0.0000       9.588753       260.9232 
 286   0.0000       9.752497       265.3789 
 287   0.0000       9.905505       269.5425 
 288   0.0000      10.079342       274.2728 
 289   0.0000      11.244313       305.9733 
 290   0.0000      11.296236       307.3862 
 291   0.0000      11.310953       307.7867 
 292   0.0000      11.340536       308.5917 
 293   0.0000      11.388134       309.8869 
 294   0.0000      11.407267       310.4075 
 295   0.0000      11.423103       310.8384 
 296   0.0000      11.434631       311.1521 
 297   0.0000      11.442076       311.3547 
 298   0.0000      11.478719       312.3518 
 299   0.0000      11.489437       312.6435 
 300   0.0000      11.512606       313.2739 
 301   0.0000      11.520845       313.4981 
 302   0.0000      11.617645       316.1322 
 303   0.0000      11.621149       316.2275 
 304   0.0000      11.680468       317.8417 
 305   0.0000      11.746948       319.6507 
 306   0.0000      11.863372       322.8188 
 307   0.0000      11.911796       324.1364 
 308   0.0000      11.958054       325.3952 
 309   0.0000      12.420283       337.9731 
 310   0.0000      12.424358       338.0840 
 311   0.0000      12.550945       341.5286 
 312   0.0000      12.673013       344.8502 
 313   0.0000      12.714499       345.9791 
 314   0.0000      12.803205       348.3929 
 315   0.0000      12.890619       350.7716 
 316   0.0000      13.631428       370.9300 
 317   0.0000      13.672399       372.0449 
 318   0.0000      13.922229       378.8431 
 319   0.0000      14.114952       384.0874 
 320   0.0000      14.659945       398.9174 
 321   0.0000      14.763954       401.7476 
 322   0.0000      15.001128       408.2014 
 323   0.0000      15.123254       411.5247 
 324   0.0000      15.189730       413.3336 
 325   0.0000      15.276734       415.7011 
 326   0.0000      15.376757       418.4228 
 327   0.0000      15.755117       428.7185 
 328   0.0000      15.838270       430.9812 
 329   0.0000      16.078059       437.5062 
 330   0.0000      16.118106       438.5960 
 331   0.0000      16.592690       451.5100 
 332   0.0000      16.702996       454.5116 
 333   0.0000      16.705876       454.5900 
 334   0.0000      16.839374       458.2227 
 335   0.0000      16.887587       459.5346 
 336   0.0000      16.888700       459.5649 
 337   0.0000      16.979500       462.0357 
 338   0.0000      17.058038       464.1728 
 339   0.0000      17.171603       467.2631 
 340   0.0000      17.262003       469.7230 
 341   0.0000      17.300004       470.7570 
 342   0.0000      17.394246       473.3215 
 343   0.0000      17.514687       476.5989 
 344   0.0000      17.966131       488.8833 
 345   0.0000      18.996369       516.9175 
 346   0.0000      19.047170       518.2998 
 347   0.0000      19.104327       519.8552 
 348   0.0000      20.430307       555.9369 
 349   0.0000      20.599527       560.5416 
 350   0.0000      20.952839       570.1557 
 351   0.0000      23.370700       635.9491 
 352   0.0000      23.423767       637.3931 
 353   0.0000      23.535744       640.4402 
 354   0.0000      25.583867       696.1724 
 355   0.0000      26.010729       707.7879 
 356   0.0000      26.958032       733.5653 
 357   0.0000      27.929199       759.9921 
 358   0.0000      30.343306       825.6833 
 359   0.0000      41.180858      1120.5881 
 360   0.0000      47.756808      1299.5288 
 361   0.0000      47.892348      1303.2170 
 362   0.0000      47.924217      1304.0842 
 363   0.0000      48.204707      1311.7168 
 364   0.0000      48.796591      1327.8227 
 365   0.0000      62.364643      1697.0282 
 366   0.0000      62.367428      1697.1040 
 367   0.0000      62.439714      1699.0710 
 368   0.0000      62.502802      1700.7877 
 369   0.0000      63.042361      1715.4699 
 370   0.0000      90.924189      2474.1730 
 371   0.0000      91.037867      2477.2663 
 372   0.0000      92.685792      2522.1086 
 373   0.0000     104.122808      2833.3257 

                    ********************************
                    * MULLIKEN POPULATION ANALYSIS *
                    ********************************

--------------------------------------------
MULLIKEN ATOMIC CHARGES AND SPIN POPULATIONS
--------------------------------------------
   0 N :   -0.156835    0.000000
   1 S :   -0.051509   -0.000000
   2 H :    0.208343   -0.000000
Sum of atomic charges         :    0.0000000
Sum of atomic spin populations:   -0.0000000

-----------------------------------------------------
MULLIKEN REDUCED ORBITAL CHARGES AND SPIN POPULATIONS
-----------------------------------------------------
CHARGE
  0 N s       :     3.678443  s :     3.678443
      pz      :     0.983323  p :     3.382244
      px      :     1.045091
      py      :     1.353830
      dz2     :     0.004904  d :     0.087727
      dxz     :     0.024305
      dyz     :     0.003128
      dx2y2   :     0.011513
      dxy     :     0.043877
      f0      :     0.000352  f :     0.009998
      f+1     :    -0.000053
      f-1     :    -0.000404
      f+2     :     0.001251
      f-2     :     0.000013
      f+3     :     0.002943
      f-3     :     0.005897
      g0      :    -0.000048  g :    -0.001331
      g+1     :    -0.000398
      g-1     :    -0.000001
      g+2     :     0.000038
      g-2     :    -0.000686
      g+3     :     0.000324
      g-3     :     0.000004
      g+4     :     0.000853
      g-4     :    -0.001416
      h0      :    -0.000025  h :    -0.000247
      h+1     :    -0.000004
      h-1     :    -0.000006
      h+2     :     0.000002
      h-2     :    -0.000004
      h+3     :    -0.000007
      h-3     :    -0.000082
      h+4     :     0.000075
      h-4     :    -0.000010
      h+5     :    -0.000007
      h-5     :    -0.000178
  1 S s       :     6.031836  s :     6.031836
      pz      :     2.931016  p :     9.832263
      px      :     2.980485
      py      :     3.920762
      dz2     :     0.014353  d :     0.166036
      dxz     :     0.039611
      dyz     :    -0.000016
      dx2y2   :     0.037772
      dxy     :     0.074317
      f0      :     0.001367  f :     0.019374
      f+1     :     0.001775
      f-1     :     0.000453
      f+2     :     0.004644
      f-2     :     0.000037
      f+3     :     0.003677
      f-3     :     0.007420
      g0      :     0.000077  g :     0.001928
      g+1     :     0.000521
      g-1     :     0.000014
      g+2     :     0.000136
      g-2     :    -0.000371
      g+3     :     0.000617
      g-3     :     0.000016
      g+4     :     0.000296
      g-4     :     0.000621
      h0      :    -0.000009  h :     0.000071
      h+1     :     0.000002
      h-1     :    -0.000013
      h+2     :     0.000068
      h-2     :     0.000007
      h+3     :    -0.000000
      h-3     :    -0.000100
      h+4     :     0.000071
      h-4     :    -0.000001
      h+5     :     0.000046
      h-5     :     0.000001
  2 H s       :     0.704857  s :     0.704857
      pz      :     0.015478  p :     0.068306
      px      :     0.029744
      py      :     0.023084
      dz2     :     0.001305  d :     0.015805
      dxz     :    -0.006185
      dyz     :     0.003715
      dx2y2   :     0.011710
      dxy     :     0.005259
      f0      :     0.000389  f :     0.003110
      f+1     :     0.000044
      f-1     :     0.000128
      f+2     :    -0.001014
      f-2     :    -0.002092
      f+3     :     0.005817
      f-3     :    -0.000162
      g0      :    -0.000029  g :    -0.000421
      g+1     :     0.000011
      g-1     :     0.000019
      g+2     :     0.000047
      g-2     :     0.000061
      g+3     :     0.000000
      g-3     :    -0.000624
      g+4     :     0.000133
      g-4     :    -0.000041

SPIN
  0 N s       :     0.000000  s :     0.000000
      pz      :     0.000000  p :    -0.000000
      px      :    -0.000000
      py      :    -0.000000
      dz2     :    -0.000000  d :    -0.000000
      dxz     :     0.000000
      dyz     :    -0.000000
      dx2y2   :    -0.000000
      dxy     :     0.000000
      f0      :     0.000000  f :     0.000000
      f+1     :     0.000000
      f-1     :    -0.000000
      f+2     :     0.000000
      f-2     :     0.000000
      f+3     :     0.000000
      f-3     :     0.000000
      g0      :     0.000000  g :     0.000000
      g+1     :     0.000000
      g-1     :     0.000000
      g+2     :     0.000000
      g-2     :    -0.000000
      g+3     :     0.000000
      g-3     :     0.000000
      g+4     :     0.000000
      g-4     :    -0.000000
      h0      :     0.000000  h :     0.000000
      h+1     :     0.000000
      h-1     :     0.000000
      h+2     :     0.000000
      h-2     :    -0.000000
      h+3     :     0.000000
      h-3     :    -0.000000
      h+4     :     0.000000
      h-4     :     0.000000
      h+5     :     0.000000
      h-5     :    -0.000000
  1 S s       :     0.000000  s :     0.000000
      pz      :    -0.000000  p :    -0.000000
      px      :    -0.000000
      py      :     0.000000
      dz2     :    -0.000000  d :    -0.000000
      dxz     :    -0.000000
      dyz     :    -0.000000
      dx2y2   :    -0.000000
      dxy     :    -0.000000
      f0      :    -0.000000  f :    -0.000000
      f+1     :    -0.000000
      f-1     :    -0.000000
      f+2     :    -0.000000
      f-2     :    -0.000000
      f+3     :    -0.000000
      f-3     :    -0.000000
      g0      :    -0.000000  g :    -0.000000
      g+1     :    -0.000000
      g-1     :    -0.000000
      g+2     :    -0.000000
      g-2     :    -0.000000
      g+3     :    -0.000000
      g-3     :     0.000000
      g+4     :     0.000000
      g-4     :    -0.000000
      h0      :    -0.000000  h :    -0.000000
      h+1     :    -0.000000
      h-1     :    -0.000000
      h+2     :    -0.000000
      h-2     :    -0.000000
      h+3     :    -0.000000
      h-3     :    -0.000000
      h+4     :    -0.000000
      h-4     :     0.000000
      h+5     :     0.000000
      h-5     :    -0.000000
  2 H s       :    -0.000000  s :    -0.000000
      pz      :    -0.000000  p :    -0.000000
      px      :    -0.000000
      py      :    -0.000000
      dz2     :     0.000000  d :    -0.000000
      dxz     :    -0.000000
      dyz     :    -0.000000
      dx2y2   :    -0.000000
      dxy     :    -0.000000
      f0      :    -0.000000  f :    -0.000000
      f+1     :    -0.000000
      f-1     :     0.000000
      f+2     :    -0.000000
      f-2     :    -0.000000
      f+3     :    -0.000000
      f-3     :     0.000000
      g0      :     0.000000  g :     0.000000
      g+1     :    -0.000000
      g-1     :    -0.000000
      g+2     :    -0.000000
      g-2     :     0.000000
      g+3     :    -0.000000
      g-3     :    -0.000000
      g+4     :    -0.000000
      g-4     :     0.000000


                     *******************************
                     * LOEWDIN POPULATION ANALYSIS *
                     *******************************

-------------------------------------------
LOEWDIN ATOMIC CHARGES AND SPIN POPULATIONS
-------------------------------------------
   0 N :   -0.193369   -0.000000
   1 S :    1.323328   -0.000000
   2 H :   -1.129959    0.000000

----------------------------------------------------
LOEWDIN REDUCED ORBITAL CHARGES AND SPIN POPULATIONS
----------------------------------------------------
CHARGE
  0 N s       :     3.013965  s :     3.013965
      pz      :     0.789069  p :     3.235824
      px      :     1.194681
      py      :     1.252074
      dz2     :     0.056227  d :     0.571835
      dxz     :     0.081115
      dyz     :     0.001960
      dx2y2   :     0.178542
      dxy     :     0.253991
      f0      :     0.011711  f :     0.233998
      f+1     :     0.026807
      f-1     :     0.006327
      f+2     :     0.021943
      f-2     :     0.001356
      f+3     :     0.063287
      f-3     :     0.102567
      g0      :     0.004522  g :     0.098639
      g+1     :     0.008682
      g-1     :     0.000182
      g+2     :     0.009633
      g-2     :     0.007016
      g+3     :     0.007374
      g-3     :     0.000490
      g+4     :     0.019725
      g-4     :     0.041015
      h0      :     0.002583  h :     0.039109
      h+1     :     0.002887
      h-1     :     0.000341
      h+2     :     0.003135
      h-2     :     0.000017
      h+3     :     0.003521
      h-3     :     0.003014
      h+4     :     0.002108
      h-4     :     0.000390
      h+5     :     0.007676
      h-5     :     0.013437
  1 S s       :     5.081366  s :     5.081366
      pz      :     2.677135  p :     8.928680
      px      :     2.931393
      py      :     3.320153
      dz2     :     0.048379  d :     0.411997
      dxz     :     0.060232
      dyz     :     0.000191
      dx2y2   :     0.128118
      dxy     :     0.175077
      f0      :     0.007395  f :     0.158869
      f+1     :     0.024329
      f-1     :     0.005818
      f+2     :     0.014169
      f-2     :     0.000333
      f+3     :     0.035540
      f-3     :     0.071285
      g0      :     0.003912  g :     0.069175
      g+1     :     0.004809
      g-1     :     0.000048
      g+2     :     0.007719
      g-2     :     0.005304
      g+3     :     0.003776
      g-3     :     0.000363
      g+4     :     0.010860
      g-4     :     0.032383
      h0      :     0.000972  h :     0.026585
      h+1     :     0.002586
      h-1     :     0.000355
      h+2     :     0.001937
      h-2     :     0.000085
      h+3     :     0.002404
      h-3     :     0.003235
      h+4     :     0.001249
      h-4     :     0.000255
      h+5     :     0.002997
      h-5     :     0.010510
  2 H s       :     0.733454  s :     0.733454
      pz      :     0.112790  p :     0.579298
      px      :     0.197989
      py      :     0.268519
      dz2     :     0.048503  d :     0.470761
      dxz     :     0.045700
      dyz     :     0.066694
      dx2y2   :     0.177499
      dxy     :     0.132365
      f0      :     0.022306  f :     0.228165
      f+1     :     0.023037
      f-1     :     0.011241
      f+2     :     0.006095
      f-2     :     0.019990
      f+3     :     0.065313
      f-3     :     0.080182
      g0      :     0.004995  g :     0.118281
      g+1     :     0.010884
      g-1     :     0.004182
      g+2     :     0.008299
      g-2     :     0.008707
      g+3     :     0.000196
      g-3     :     0.006098
      g+4     :     0.048536
      g-4     :     0.026384

SPIN
  0 N s       :     0.000000  s :     0.000000
      pz      :     0.000000  p :     0.000000
      px      :     0.000000
      py      :    -0.000000
      dz2     :    -0.000000  d :    -0.000000
      dxz     :     0.000000
      dyz     :    -0.000000
      dx2y2   :    -0.000000
      dxy     :    -0.000000
      f0      :     0.000000  f :     0.000000
      f+1     :     0.000000
      f-1     :    -0.000000
      f+2     :    -0.000000
      f-2     :     0.000000
      f+3     :     0.000000
      f-3     :     0.000000
      g0      :    -0.000000  g :    -0.000000
      g+1     :    -0.000000
      g-1     :    -0.000000
      g+2     :    -0.000000
      g-2     :    -0.000000
      g+3     :    -0.000000
      g-3     :    -0.000000
      g+4     :    -0.000000
      g-4     :    -0.000000
      h0      :    -0.000000  h :    -0.000000
      h+1     :     0.000000
      h-1     :     0.000000
      h+2     :    -0.000000
      h-2     :     0.000000
      h+3     :    -0.000000
      h-3     :     0.000000
      h+4     :    -0.000000
      h-4     :     0.000000
      h+5     :    -0.000000
      h-5     :    -0.000000
  1 S s       :     0.000000  s :     0.000000
      pz      :    -0.000000  p :    -0.000000
      px      :    -0.000000
      py      :     0.000000
      dz2     :     0.000000  d :     0.000000
      dxz     :     0.000000
      dyz     :    -0.000000
      dx2y2   :     0.000000
      dxy     :     0.000000
      f0      :    -0.000000  f :    -0.000000
      f+1     :    -0.000000
      f-1     :    -0.000000
      f+2     :    -0.000000
      f-2     :    -0.000000
      f+3     :     0.000000
      f-3     :    -0.000000
      g0      :     0.000000  g :     0.000000
      g+1     :    -0.000000
      g-1     :    -0.000000
      g+2     :    -0.000000
      g-2     :    -0.000000
      g+3     :    -0.000000
      g-3     :    -0.000000
      g+4     :     0.000000
      g-4     :    -0.000000
      h0      :     0.000000  h :     0.000000
      h+1     :     0.000000
      h-1     :    -0.000000
      h+2     :     0.000000
      h-2     :     0.000000
      h+3     :     0.000000
      h-3     :    -0.000000
      h+4     :     0.000000
      h-4     :     0.000000
      h+5     :     0.000000
      h-5     :    -0.000000
  2 H s       :     0.000000  s :     0.000000
      pz      :    -0.000000  p :    -0.000000
      px      :     0.000000
      py      :    -0.000000
      dz2     :     0.000000  d :     0.000000
      dxz     :    -0.000000
      dyz     :     0.000000
      dx2y2   :     0.000000
      dxy     :     0.000000
      f0      :    -0.000000  f :    -0.000000
      f+1     :    -0.000000
      f-1     :     0.000000
      f+2     :     0.000000
      f-2     :    -0.000000
      f+3     :     0.000000
      f-3     :     0.000000
      g0      :    -0.000000  g :    -0.000000
      g+1     :    -0.000000
      g-1     :     0.000000
      g+2     :     0.000000
      g-2     :     0.000000
      g+3     :    -0.000000
      g-3     :     0.000000
      g+4     :    -0.000000
      g-4     :    -0.000000


                      *****************************
                      * MAYER POPULATION ANALYSIS *
                      *****************************

  NA   - Mulliken gross atomic population
  ZA   - Total nuclear charge
  QA   - Mulliken gross atomic charge
  VA   - Mayer's total valence
  BVA  - Mayer's bonded valence
  FA   - Mayer's free valence

  ATOM       NA         ZA         QA         VA         BVA        FA
  0 N      7.1568     7.0000    -0.1568     2.8672     2.8672     0.0000
  1 S     16.0515    16.0000    -0.0515     2.0390     2.0390     0.0000
  2 H      0.7917     1.0000     0.2083     0.9876     0.9876     0.0000

  Mayer bond orders larger than 0.1
B(  0-N ,  1-S ) :   1.9593 B(  0-N ,  2-H ) :   0.9079 

-------
TIMINGS
-------

Total SCF time: 0 days 1 hours 12 min 57 sec 

Total time                  ....    4377.064 sec
Sum of individual times     ....    4376.126 sec  (100.0%)

Fock matrix formation       ....    4367.168 sec  ( 99.8%)
  XC integration            ....     135.160 sec  (  3.1% of F)
    Basis function eval.    ....      10.550 sec  (  7.8% of XC)
    Density eval.           ....      31.189 sec  ( 23.1% of XC)
    XC-Functional eval.     ....       1.244 sec  (  0.9% of XC)
    XC-Potential eval.      ....      91.285 sec  ( 67.5% of XC)
Diagonalization             ....       1.417 sec  (  0.0%)
Density matrix formation    ....       0.033 sec  (  0.0%)
Population analysis         ....       0.130 sec  (  0.0%)
Initial guess               ....       4.494 sec  (  0.1%)
Orbital Transformation      ....       0.000 sec  (  0.0%)
Orbital Orthonormalization  ....       0.000 sec  (  0.0%)
DIIS solution               ....       0.692 sec  (  0.0%)
Grid generation             ....       2.193 sec  (  0.1%)

-------------------------   --------------------
FINAL SINGLE POINT ENERGY      -453.297680216557
-------------------------   --------------------


                            ***************************************
                            *     ORCA property calculations      *
                            ***************************************

                                    ---------------------
                                    Active property flags
                                    ---------------------
   (+) Dipole Moment
   (+) Polarizability


------------------------------------------------------------------------------
                       ORCA ELECTRIC PROPERTIES CALCULATION
------------------------------------------------------------------------------

Dipole Moment Calculation                       ... on
Quadrupole Moment Calculation                   ... off
Polarizability Calculation                      ... Analytic (CP-SCF)
GBWName                                         ... hns_pbe.gbw
Electron density file                           ... hns_pbe.scfp.tmp
The origin for moment calculation is the CENTER OF MASS  = (-0.058257,  0.032014  0.000000)

-------------
DIPOLE MOMENT
-------------
                                X             Y             Z
Electronic contribution:     -1.37177       0.24340       0.00000
Nuclear contribution   :      1.39816      -0.76834       0.00000
                        -----------------------------------------
Total Dipole Moment    :      0.02639      -0.52494       0.00000
                        -----------------------------------------
Magnitude (a.u.)       :      0.52560
Magnitude (Debye)      :      1.33598



--------------------
Rotational spectrum 
--------------------
 
Rotational constants in cm-1:    19.175351     0.632530     0.612331 
Rotational constants in MHz : 574862.568549 18962.761521 18357.219275 

 Dipole components along the rotational axes: 
x,y,z [a.u.] :    -0.002467    -0.525599     0.000000 
x,y,z [Debye]:    -0.006271    -1.335966     0.000000 

 
Transforming and storing MO dipole integrals   ... done

                ... starting polarizability calculation

Opening the Dipole integral file               ... (hns_pbe.dmo.tmp) done
Reading Dipole-MO integrals                    ... done
Solving CP-SCF equations                       ... 
------------------------------------------------------------------------------
                           ORCA CP-SCF CALCULATION
------------------------------------------------------------------------------

Input orbitals are from        ... hns_pbe.gbw
Input Perturbation             ... hns_pbe.cpv.tmp
Wavefunction output            ... hns_pbe.cpu.tmp
Perturbation mode              ... Real perturbation (singlet)
Solver                         ... POPLE
Max. number of iterations      ... 200
Convergence tolerance          ... 1.000e-06
Integral handling              ... Direct
Number of perturbations        ... 3
Number of operators            ... 2
Orbital ranges used for CP-SCF:
 Operator 0:  Orbitals   0... 11  to  12...373
 Operator 1:  Orbitals   0... 11  to  12...373
DFT calculation                         ... on
Exchange functional (SCF)               ... PBE
Exchange functional (CP-SCF)            ... PBE
   PBE kappa parameter  XKappa (SCF)    ...  0.804000
   PBE kappa parameter  XKappa (CP-SCF) ...  0.804000
   PBE mue parameter   XMuePBE (SCF)    ...  0.219520
   PBE mue parameter   XMuePBE (CP-SCF) ...  0.219520
Correlation functional (SCF)            ... PBE
Correlation functional (CP-SCF)         ... PBE
   PBE beta parameter CBetaPBE (SCF)    ...  0.066725
   PBE beta parameter CBetaPBE (CP-SCF) ...  0.066725
 LDA part of GGA corr.  LDAOpt (SCF)    ... PW91-LDA
 LDA part of GGA corr.  LDAOpt (CP-SCF) ... PW91-LDA
Variables per vector in CP-SCF ... 8688
Number of vectors sought       ... 3
Recalculating density on grid  ... done
Calculating the xc-kernel      ... done
     CP-SCF ITERATION   0: 
     CP-SCF ITERATION   1:      3.535409248211
     CP-SCF ITERATION   2:      0.049636734015
     CP-SCF ITERATION   3:      0.003473799088
     CP-SCF ITERATION   4:      0.000089395755
     CP-SCF ITERATION   5:      0.000002854750
     CP-SCF ITERATION   6:      0.000000109981
done
Reading CP-SCF coefficients                    ... done
Doing the polarizability tensor   ... done
Cleaning up                                    ... done

-------------------------
THE POLARIZABILITY TENSOR
-------------------------

The raw cartesian tensor (atomic units):
   39.92983      0.06314     -0.00000  
    0.06314     29.44176     -0.00000  
   -0.00000     -0.00000     23.46801  
diagonalized tensor: 
   23.46801     29.44138     39.93021  

    0.00000     -0.00602     -0.99998  
    0.00000      0.99998     -0.00602  
    1.00000     -0.00000      0.00000  

Isotropic polarizability :  30.94653


Timings for individual modules:

Sum of individual times         ...     7027.895 sec (= 117.132 min)
GTO integral calculation        ...        2.312 sec (=   0.039 min)   0.0 %
SCF iterations                  ...     4377.970 sec (=  72.966 min)  62.3 %
Solution of CP-SCF eqns.        ...     2647.613 sec (=  44.127 min)  37.7 %
                             ****ORCA TERMINATED NORMALLY****
TOTAL RUN TIME: 0 days 1 hours 57 minutes 8 seconds 369 msec
