
                                 *****************
                                 * O   R   C   A *
                                 *****************

           --- An Ab Initio, DFT and Semiempirical electronic structure package ---

                  #######################################################
                  #                        -***-                        #
                  #          Department of theory and spectroscopy      #
                  #               Directorship: Frank Neese             #
                  #        Max Planck Institute fuer Kohlenforschung    #
                  #                Kaiser Wilhelm Platz 1               #
                  #                 D-45470 Muelheim/Ruhr               #
                  #                      Germany                        #
                  #                                                     #
                  #                  All rights reserved                #
                  #                        -***-                        #
                  #######################################################


                         Program Version 4.1.2  - RELEASE  -


 With contributions from (in alphabetic order):
   Daniel Aravena         : Magnetic Properties
   Michael Atanasov       : Ab Initio Ligand Field Theory
   Alexander A. Auer      : GIAO ZORA
   Ute Becker             : Parallelization
   Giovanni Bistoni       : ED, Open-shell LED
   Martin Brehm           : Molecular dynamics
   Dmytro Bykov           : SCF Hessian
   Vijay G. Chilkuri      : MRCI spin determinant printing
   Dipayan Datta          : RHF DLPNO-CCSD density
   Achintya Kumar Dutta   : EOM-CC, STEOM-CC
   Dmitry Ganyushin       : Spin-Orbit,Spin-Spin,Magnetic field MRCI
   Miquel Garcia          : C-PCM Hessian
   Yang Guo               : DLPNO-NEVPT2, CIM, IAO-localization
   Andreas Hansen         : Spin unrestricted coupled pair/coupled cluster methods
   Benjamin Helmich-Paris : CASSCF linear response (MC-RPA)
   Lee Huntington         : MR-EOM, pCC
   Robert Izsak           : Overlap fitted RIJCOSX, COSX-SCS-MP3, EOM
   Christian Kollmar      : KDIIS, OOCD, Brueckner-CCSD(T), CCSD density
   Simone Kossmann        : Meta GGA functionals, TD-DFT gradient, OOMP2, MP2 Hessian
   Martin Krupicka        : AUTO-CI
   Lucas Lang             : DCDCAS
   Dagmar Lenk            : GEPOL surface, SMD
   Dimitrios Liakos       : Extrapolation schemes; parallel MDCI
   Dimitrios Manganas     : ROCIS; embedding schemes
   Dimitrios Pantazis     : SARC Basis sets
   Taras Petrenko         : DFT Hessian,TD-DFT gradient, ASA, ECA, R-Raman, ABS, FL, XAS/XES, NRVS
   Peter Pinski           : DLPNO-MP2, DLPNO-MP2 Gradient
   Christoph Reimann      : Effective Core Potentials
   Marius Retegan         : Local ZFS, SOC
   Christoph Riplinger    : Optimizer, TS searches, QM/MM, DLPNO-CCSD(T), (RO)-DLPNO pert. Triples
   Tobias Risthaus        : Range-separated hybrids, TD-DFT gradient, RPA, STAB
   Michael Roemelt        : Restricted open shell CIS
   Masaaki Saitow         : Open-shell DLPNO
   Barbara Sandhoefer     : DKH picture change effects
   Avijit Sen             : IP-ROCIS
   Kantharuban Sivalingam : CASSCF convergence, NEVPT2, FIC-MRCI
   Bernardo de Souza      : ESD, SOC TD-DFT
   Georgi Stoychev        : AutoAux, RI-MP2 NMR
   Willem Van den Heuvel  : Paramagnetic NMR
   Boris Wezisla          : Elementary symmetry handling
   Frank Wennmohs         : Technical directorship


 We gratefully acknowledge several colleagues who have allowed us to
 interface, adapt or use parts of their codes:
   Stefan Grimme, W. Hujo, H. Kruse,             : VdW corrections, initial TS optimization,
                  C. Bannwarth                     DFT functionals, gCP, sTDA/sTD-DF
   Ed Valeev                                     : LibInt (2-el integral package), F12 methods
   Garnet Chan, S. Sharma, J. Yang, R. Olivares  : DMRG
   Ulf Ekstrom                                   : XCFun DFT Library
   Mihaly Kallay                                 : mrcc  (arbitrary order and MRCC methods)
   Andreas Klamt, Michael Diedenhofen            : otool_cosmo (COSMO solvation model)
   Jiri Pittner, Ondrej Demel                    : Mk-CCSD
   Frank Weinhold                                : gennbo (NPA and NBO analysis)
   Christopher J. Cramer and Donald G. Truhlar   : smd solvation model
   Lars Goerigk                                  : TD-DFT with DH, B97 family of functionals
   V. Asgeirsson, H. Jonsson                     : NEB implementation
   FAccTs GmbH                                   : IRC, NEB, NEB-TS, Multilevel


 Your calculation uses the libint2 library for the computation of 2-el integrals
 For citations please refer to: http://libint.valeyev.net

 This ORCA versions uses:
   CBLAS   interface :  Fast vector & matrix operations
   LAPACKE interface :  Fast linear algebra routines
   SCALAPACK package :  Parallel linear algebra routines


----- Orbital basis set information -----
Your calculation utilizes the basis: aug-pc-4
   H, C-F              : F. Jensen, J. Chem. Phys. 115, 9113 (2001).
                         F. Jensen, J. Chem. Phys. 116, 7372 (2002).
                         F. Jensen, J. Chem. Phys. 117, 9234 (2002).
   Si-Cl               : F. Jensen, T. Helgaker, J. Chem. Phys. 121, 3463 (2004).
   He-B, Ne-Mg, Al, Ar : F. Jensen, J. Phys. Chem. A 111, 11198 (2007).
   K, Ca, Ga-Kr        : F. Jensen, J. Chem. Phys. 136, 094110 (2012).
   Sc-Zn               : F. Jensen, J. Chem. Phys. 138, 014107 (2013).

================================================================================
                                        WARNINGS
                       Please study these warnings very carefully!
================================================================================


INFO   : the flag for use of LIBINT has been found!

================================================================================
                                       INPUT FILE
================================================================================
NAME = ho2_pbe.inp
|  1> !uks pbe nori aug-pc-4 grid7 nofinalgrid verytightscf
|  2> 
|  3> %maxcore 1500
|  4> 
|  5> %pal nprocs 1 end
|  6> 
|  7> %scf
|  8> 	maxiter 200
|  9> end
| 10> %elprop
| 11> 	dipole true
| 12> 	 polar 1
| 13> 	 maxiter 200
| 14> end
| 15> 
| 16> * xyz 0 2
| 17> O 0.0553 -0.6132 0.0000
| 18> O 0.0553 0.7198 0.0000
| 19> H -0.8853 -0.8528 0.0000
| 20> *
| 21> 
| 22>                          ****END OF INPUT****
================================================================================

                       ****************************
                       * Single Point Calculation *
                       ****************************

---------------------------------
CARTESIAN COORDINATES (ANGSTROEM)
---------------------------------
  O      0.055300   -0.613200    0.000000
  O      0.055300    0.719800    0.000000
  H     -0.885300   -0.852800    0.000000

----------------------------
CARTESIAN COORDINATES (A.U.)
----------------------------
  NO LB      ZA    FRAG     MASS         X           Y           Z
   0 O     8.0000    0    15.999    0.104502   -1.158780    0.000000
   1 O     8.0000    0    15.999    0.104502    1.360225    0.000000
   2 H     1.0000    0     1.008   -1.672975   -1.611558    0.000000

--------------------------------
INTERNAL COORDINATES (ANGSTROEM)
--------------------------------
 O      0   0   0     0.000000000000     0.00000000     0.00000000
 O      1   0   0     1.333000000000     0.00000000     0.00000000
 H      1   2   0     0.970637172171   104.29108059     0.00000000

---------------------------
INTERNAL COORDINATES (A.U.)
---------------------------
 O      0   0   0     0.000000000000     0.00000000     0.00000000
 O      1   0   0     2.519004936517     0.00000000     0.00000000
 H      1   2   0     1.834238430807   104.29108059     0.00000000

---------------------
BASIS SET INFORMATION
---------------------
There are 2 groups of distinct atoms

 Group   1 Type O   : 27s12p7d4f3g2h contracted to 9s8p7d4f3g2h pattern {1191111111/51111111/1111111/1111/111/11}
 Group   2 Type H   : 12s7p4d3f2g contracted to 8s7p4d3f2g pattern {51111111/1111111/1111/111/11}

Atom   0O    basis set group =>   1
Atom   1O    basis set group =>   1
Atom   2H    basis set group =>   2
------------------------------------------------------------------------------
                           ORCA GTO INTEGRAL CALCULATION
------------------------------------------------------------------------------

                         BASIS SET STATISTICS AND STARTUP INFO

 # of primitive gaussian shells          ...  138
 # of primitive gaussian functions       ...  442
 # of contracted shells                  ...   90
 # of contracted basis functions         ...  378
 Highest angular momentum                ...    5
 Maximum contraction depth               ...   11
 Integral package used                   ... LIBINT
 Integral threshhold            Thresh   ...  1.000e-12
 Primitive cut-off              TCut     ...  1.000e-14


------------------------------ INTEGRAL EVALUATION ----------------------------


 * One electron integrals 
 Pre-screening matrix                    ... done
 Shell pair data                         ... done (   0.001 sec)

-------------------------------------------------------------------------------
                                 ORCA SCF
-------------------------------------------------------------------------------

------------
SCF SETTINGS
------------
Hamiltonian:
 Density Functional     Method          .... DFT(GTOs)
 Exchange Functional    Exchange        .... PBE
   PBE kappa parameter   XKappa         ....  0.804000
   PBE mue parameter    XMuePBE         ....  0.219520
 Correlation Functional Correlation     .... PBE
   PBE beta parameter  CBetaPBE         ....  0.066725
 LDA part of GGA corr.  LDAOpt          .... PW91-LDA
 Gradients option       PostSCFGGA      .... off
   Density functional embedding theory  .... OFF
   NL short-range parameter             ....  6.400000


General Settings:
 Integral files         IntName         .... ho2_pbe
 Hartree-Fock type      HFTyp           .... UHF
 Total Charge           Charge          ....    0
 Multiplicity           Mult            ....    2
 Number of Electrons    NEL             ....   17
 Basis Dimension        Dim             ....  378
 Nuclear Repulsion      ENuc            ....     32.0786163037 Eh

Convergence Acceleration:
 DIIS                   CNVDIIS         .... on
   Start iteration      DIISMaxIt       ....    12
   Startup error        DIISStart       ....  0.200000
   # of expansion vecs  DIISMaxEq       ....     5
   Bias factor          DIISBfac        ....   1.050
   Max. coefficient     DIISMaxC        ....  10.000
 Newton-Raphson         CNVNR           .... off
 SOSCF                  CNVSOSCF        .... off
 Level Shifting         CNVShift        .... on
   Level shift para.    LevelShift      ....    0.2500
   Turn off err/grad.   ShiftErr        ....    0.0010
 Zerner damping         CNVZerner       .... off
 Static damping         CNVDamp         .... on
   Fraction old density DampFac         ....    0.7000
   Max. Damping (<1)    DampMax         ....    0.9800
   Min. Damping (>=0)   DampMin         ....    0.0000
   Turn off err/grad.   DampErr         ....    0.1000
 Fernandez-Rico         CNVRico         .... off

SCF Procedure:
 Maximum # iterations   MaxIter         ....   200
 SCF integral mode      SCFMode         .... Direct
   Integral package                     .... LIBINT
 Reset frequency        DirectResetFreq ....    20
 Integral Threshold     Thresh          ....  1.000e-12 Eh
 Primitive CutOff       TCut            ....  1.000e-14 Eh

Convergence Tolerance:
 Convergence Check Mode ConvCheckMode   .... Total+1el-Energy
 Convergence forced     ConvForced      .... 0
 Energy Change          TolE            ....  1.000e-09 Eh
 1-El. energy change                    ....  1.000e-06 Eh
 DIIS Error             TolErr          ....  1.000e-08


Diagonalization of the overlap matrix:
Smallest eigenvalue                        ... 1.779e-06
Time for diagonalization                   ...    0.026 sec
Threshold for overlap eigenvalues          ... 1.000e-08
Number of eigenvalues below threshold      ... 0
Time for construction of square roots      ...    0.018 sec
Total time needed                          ...    0.044 sec

-------------------
DFT GRID GENERATION
-------------------

General Integration Accuracy     IntAcc      ...  5.670
Radial Grid Type                 RadialGrid  ... Gauss-Chebyshev
Angular Grid (max. acc.)         AngularGrid ... Lebedev-770
Angular grid pruning method      GridPruning ... 3 (G Style)
Weight generation scheme         WeightScheme... Becke
Basis function cutoff            BFCut       ...    1.0000e-12
Integration weight cutoff        WCut        ...    1.0000e-14
Grids for H and He will be reduced by one unit

# of grid points (after initial pruning)     ...  67856 (   0.0 sec)
# of grid points (after weights+screening)   ...  67215 (   0.0 sec)
nearest neighbour list constructed           ...    0.0 sec
Grid point re-assignment to atoms done       ...    0.0 sec
Grid point division into batches done        ...    1.3 sec
Reduced shell lists constructed in    2.0 sec

Total number of grid points                  ...    67215
Total number of batches                      ...     1051
Average number of points per batch           ...       63
Average number of grid points per atom       ...    22405
Average number of shells per batch           ...    66.85 (74.28%)
Average number of basis functions per batch  ...   291.77 (77.19%)
Average number of large shells per batch     ...    59.87 (89.56%)
Average number of large basis fcns per batch ...   262.01 (89.80%)
Maximum spatial batch extension              ...  13.62, 20.37, 16.66 au
Average spatial batch extension              ...   2.04,  2.02,  2.13 au

Time for grid setup =    2.089 sec

------------------------------
INITIAL GUESS: MODEL POTENTIAL
------------------------------
Loading Hartree-Fock densities                     ... done
Calculating cut-offs                               ... done
Setting up the integral package                    ... done
Initializing the effective Hamiltonian             ... done
Starting the Coulomb interaction                   ... done (   0.1 sec)
Reading the grid                                   ... done
Mapping shells                                     ... done
Starting the XC term evaluation                    ... done (   4.2 sec)
  promolecular density results
     # of electrons  =     16.999509849
     EX              =    -16.517902904
     EC              =     -0.561965579
     EX+EC           =    -17.079868483
Transforming the Hamiltonian                       ... done (   0.0 sec)
Diagonalizing the Hamiltonian                      ... done (   0.0 sec)
Back transforming the eigenvectors                 ... done (   0.0 sec)
Now organizing SCF variables                       ... done
                      ------------------
                      INITIAL GUESS DONE (   6.5 sec)
                      ------------------
--------------
SCF ITERATIONS
--------------
ITER       Energy         Delta-E        Max-DP      RMS-DP      [F,P]     Damp
               ***  Starting incremental Fock matrix formation  ***
  0   -150.8154974957   0.000000000000 0.00645683  0.00008046  0.1082833 0.7000
  1   -150.8272133955  -0.011715899799 0.00431157  0.00005897  0.0523141 0.7000
                               ***Turning on DIIS***
  2   -150.8317776147  -0.004564219195 0.00981501  0.00011388  0.0256849 0.0000
  3   -150.8399153345  -0.008137719773 0.00303923  0.00003932  0.0315211 0.0000
  4   -150.8412994141  -0.001384079643 0.00128256  0.00001399  0.0120909 0.0000
  5   -150.8414212902  -0.000121876035 0.00043458  0.00000535  0.0056434 0.0000
  6   -150.8414489846  -0.000027694478 0.00034519  0.00000446  0.0006239 0.0000
  7   -150.8414526295  -0.000003644865 0.00006668  0.00000087  0.0006286 0.0000
  8   -150.8414531610  -0.000000531520 0.00002251  0.00000025  0.0000465 0.0000
  9   -150.8414531877  -0.000000026722 0.00000520  0.00000007  0.0000489 0.0000
 10   -150.8414531910  -0.000000003285 0.00000217  0.00000002  0.0000132 0.0000
 11   -150.8414531914  -0.000000000348 0.00000269  0.00000003  0.0000092 0.0000
 12   -150.8414531915  -0.000000000122 0.00000286  0.00000003  0.0000015 0.0000
 13   -150.8414531915  -0.000000000002 0.00000750  0.00000006  0.0000008 0.0000
                 **** Energy Check signals convergence ****

               *****************************************************
               *                     SUCCESS                       *
               *           SCF CONVERGED AFTER  14 CYCLES          *
               *****************************************************


----------------
TOTAL SCF ENERGY
----------------

Total Energy       :         -150.84145319 Eh           -4104.60462 eV

Components:
Nuclear Repulsion  :           32.07861630 Eh             872.90353 eV
Electronic Energy  :         -182.92006950 Eh           -4977.50814 eV
One Electron Energy:         -270.89062634 Eh           -7371.30869 eV
Two Electron Energy:           87.97055685 Eh            2393.80055 eV

Virial components:
Potential Energy   :         -301.24201144 Eh           -8197.21187 eV
Kinetic Energy     :          150.40055825 Eh            4092.60725 eV
Virial Ratio       :            2.00293147


DFT components:
N(Alpha)           :        8.999999891096 electrons
N(Beta)            :        7.999999891696 electrons
N(Total)           :       16.999999782792 electrons
E(X)               :      -16.704285322146 Eh       
E(C)               :       -0.562181347329 Eh       
E(XC)              :      -17.266466669475 Eh       
DFET-embed. en.    :        0.000000000000 Eh       

---------------
SCF CONVERGENCE
---------------

  Last Energy change         ...   -6.6507e-12  Tolerance :   1.0000e-09
  Last MAX-Density change    ...    1.1395e-05  Tolerance :   1.0000e-08
  Last RMS-Density change    ...    9.4201e-08  Tolerance :   1.0000e-09
  Last DIIS Error            ...    3.3508e-08  Tolerance :   1.0000e-08

             **** THE GBW FILE WAS UPDATED (ho2_pbe.gbw) ****
             **** DENSITY FILE WAS UPDATED (ho2_pbe.scfp.tmp) ****
             **** ENERGY FILE WAS UPDATED (ho2_pbe.en.tmp) ****
----------------------
UHF SPIN CONTAMINATION
----------------------

Warning: in a DFT calculation there is little theoretical justification to 
         calculate <S**2> as in Hartree-Fock theory. We will do it anyways
         but you should keep in mind that the values have only limited relevance

Expectation value of <S**2>     :     0.752336
Ideal value S*(S+1) for S=0.5   :     0.750000
Deviation                       :     0.002336

----------------
ORBITAL ENERGIES
----------------
                 SPIN UP ORBITALS
  NO   OCC          E(Eh)            E(eV) 
   0   1.0000     -18.883025      -513.8332 
   1   1.0000     -18.832835      -512.4675 
   2   1.0000      -1.111426       -30.2434 
   3   1.0000      -0.799503       -21.7556 
   4   1.0000      -0.516826       -14.0635 
   5   1.0000      -0.438269       -11.9259 
   6   1.0000      -0.437614       -11.9081 
   7   1.0000      -0.253865        -6.9080 
   8   1.0000      -0.247129        -6.7247 
   9   0.0000      -0.039538        -1.0759 
  10   0.0000       0.001027         0.0280 
  11   0.0000       0.023040         0.6270 
  12   0.0000       0.026853         0.7307 
  13   0.0000       0.034791         0.9467 
  14   0.0000       0.046986         1.2785 
  15   0.0000       0.057643         1.5686 
  16   0.0000       0.059104         1.6083 
  17   0.0000       0.061340         1.6691 
  18   0.0000       0.085499         2.3265 
  19   0.0000       0.088845         2.4176 
  20   0.0000       0.112181         3.0526 
  21   0.0000       0.115922         3.1544 
  22   0.0000       0.123858         3.3703 
  23   0.0000       0.143035         3.8922 
  24   0.0000       0.146507         3.9866 
  25   0.0000       0.160627         4.3709 
  26   0.0000       0.168844         4.5945 
  27   0.0000       0.175901         4.7865 
  28   0.0000       0.180608         4.9146 
  29   0.0000       0.183210         4.9854 
  30   0.0000       0.186471         5.0741 
  31   0.0000       0.188159         5.1201 
  32   0.0000       0.206114         5.6087 
  33   0.0000       0.215174         5.8552 
  34   0.0000       0.230008         6.2588 
  35   0.0000       0.243101         6.6151 
  36   0.0000       0.247475         6.7341 
  37   0.0000       0.255213         6.9447 
  38   0.0000       0.261908         7.1269 
  39   0.0000       0.279020         7.5925 
  40   0.0000       0.283411         7.7120 
  41   0.0000       0.299349         8.1457 
  42   0.0000       0.301096         8.1932 
  43   0.0000       0.306460         8.3392 
  44   0.0000       0.346404         9.4261 
  45   0.0000       0.347081         9.4446 
  46   0.0000       0.351940         9.5768 
  47   0.0000       0.360565         9.8115 
  48   0.0000       0.379108        10.3160 
  49   0.0000       0.397278        10.8105 
  50   0.0000       0.397669        10.8211 
  51   0.0000       0.409944        11.1551 
  52   0.0000       0.412779        11.2323 
  53   0.0000       0.415160        11.2971 
  54   0.0000       0.429947        11.6994 
  55   0.0000       0.439632        11.9630 
  56   0.0000       0.444518        12.0959 
  57   0.0000       0.451862        12.2958 
  58   0.0000       0.457462        12.4482 
  59   0.0000       0.460858        12.5406 
  60   0.0000       0.468856        12.7582 
  61   0.0000       0.469839        12.7850 
  62   0.0000       0.479330        13.0432 
  63   0.0000       0.507806        13.8181 
  64   0.0000       0.508103        13.8262 
  65   0.0000       0.521994        14.2042 
  66   0.0000       0.523511        14.2455 
  67   0.0000       0.528161        14.3720 
  68   0.0000       0.540535        14.7087 
  69   0.0000       0.548688        14.9306 
  70   0.0000       0.560256        15.2453 
  71   0.0000       0.580843        15.8055 
  72   0.0000       0.588779        16.0215 
  73   0.0000       0.601841        16.3769 
  74   0.0000       0.613525        16.6949 
  75   0.0000       0.625599        17.0234 
  76   0.0000       0.629557        17.1311 
  77   0.0000       0.640918        17.4403 
  78   0.0000       0.648601        17.6493 
  79   0.0000       0.654180        17.8011 
  80   0.0000       0.675668        18.3859 
  81   0.0000       0.694130        18.8882 
  82   0.0000       0.707407        19.2495 
  83   0.0000       0.717470        19.5234 
  84   0.0000       0.722147        19.6506 
  85   0.0000       0.723565        19.6892 
  86   0.0000       0.748908        20.3788 
  87   0.0000       0.760758        20.7013 
  88   0.0000       0.770970        20.9792 
  89   0.0000       0.773758        21.0550 
  90   0.0000       0.785900        21.3854 
  91   0.0000       0.793737        21.5987 
  92   0.0000       0.800236        21.7755 
  93   0.0000       0.823022        22.3956 
  94   0.0000       0.842083        22.9143 
  95   0.0000       0.852218        23.1900 
  96   0.0000       0.852857        23.2074 
  97   0.0000       0.858289        23.3552 
  98   0.0000       0.880063        23.9477 
  99   0.0000       0.884219        24.0608 
 100   0.0000       0.891440        24.2573 
 101   0.0000       0.892752        24.2930 
 102   0.0000       0.914844        24.8942 
 103   0.0000       0.920514        25.0485 
 104   0.0000       0.925239        25.1770 
 105   0.0000       0.945880        25.7387 
 106   0.0000       0.952102        25.9080 
 107   0.0000       0.958165        26.0730 
 108   0.0000       0.961735        26.1702 
 109   0.0000       0.978226        26.6189 
 110   0.0000       0.980263        26.6743 
 111   0.0000       0.995769        27.0962 
 112   0.0000       1.000766        27.2322 
 113   0.0000       1.004549        27.3352 
 114   0.0000       1.036985        28.2178 
 115   0.0000       1.038486        28.2586 
 116   0.0000       1.043663        28.3995 
 117   0.0000       1.052455        28.6388 
 118   0.0000       1.061393        28.8820 
 119   0.0000       1.066968        29.0337 
 120   0.0000       1.092077        29.7169 
 121   0.0000       1.096591        29.8397 
 122   0.0000       1.116468        30.3806 
 123   0.0000       1.125804        30.6347 
 124   0.0000       1.127490        30.6806 
 125   0.0000       1.174543        31.9609 
 126   0.0000       1.179184        32.0872 
 127   0.0000       1.201808        32.7029 
 128   0.0000       1.221044        33.2263 
 129   0.0000       1.231717        33.5167 
 130   0.0000       1.249742        34.0072 
 131   0.0000       1.269280        34.5389 
 132   0.0000       1.280812        34.8527 
 133   0.0000       1.308513        35.6064 
 134   0.0000       1.335873        36.3510 
 135   0.0000       1.378323        37.5061 
 136   0.0000       1.390705        37.8430 
 137   0.0000       1.408920        38.3387 
 138   0.0000       1.461348        39.7653 
 139   0.0000       1.464858        39.8608 
 140   0.0000       1.529112        41.6093 
 141   0.0000       1.542157        41.9642 
 142   0.0000       1.584149        43.1069 
 143   0.0000       1.650104        44.9016 
 144   0.0000       1.673090        45.5271 
 145   0.0000       1.691264        46.0216 
 146   0.0000       1.740825        47.3703 
 147   0.0000       1.757962        47.8366 
 148   0.0000       1.780724        48.4560 
 149   0.0000       1.814547        49.3763 
 150   0.0000       1.866569        50.7919 
 151   0.0000       1.868128        50.8343 
 152   0.0000       1.893306        51.5195 
 153   0.0000       1.920199        52.2513 
 154   0.0000       1.941669        52.8355 
 155   0.0000       1.983847        53.9832 
 156   0.0000       2.058443        56.0131 
 157   0.0000       2.114213        57.5307 
 158   0.0000       2.130303        57.9685 
 159   0.0000       2.153686        58.6048 
 160   0.0000       2.161739        58.8239 
 161   0.0000       2.207896        60.0799 
 162   0.0000       2.233025        60.7637 
 163   0.0000       2.298303        62.5400 
 164   0.0000       2.298472        62.5446 
 165   0.0000       2.413825        65.6835 
 166   0.0000       2.437996        66.3412 
 167   0.0000       2.473400        67.3046 
 168   0.0000       2.513189        68.3874 
 169   0.0000       2.582853        70.2830 
 170   0.0000       2.615797        71.1795 
 171   0.0000       2.674477        72.7762 
 172   0.0000       2.811706        76.5104 
 173   0.0000       2.927384        79.6582 
 174   0.0000       3.013551        82.0029 
 175   0.0000       3.141325        85.4798 
 176   0.0000       3.142775        85.5192 
 177   0.0000       3.202925        87.1560 
 178   0.0000       3.292453        89.5922 
 179   0.0000       3.303330        89.8882 
 180   0.0000       3.425532        93.2135 
 181   0.0000       3.461496        94.1921 
 182   0.0000       3.486408        94.8700 
 183   0.0000       3.586777        97.6012 
 184   0.0000       3.659715        99.5859 
 185   0.0000       3.754711       102.1709 
 186   0.0000       3.782275       102.9209 
 187   0.0000       3.938579       107.1742 
 188   0.0000       3.940918       107.2378 
 189   0.0000       4.030255       109.6688 
 190   0.0000       4.093141       111.3800 
 191   0.0000       4.115470       111.9876 
 192   0.0000       4.153926       113.0341 
 193   0.0000       4.170972       113.4979 
 194   0.0000       4.220743       114.8523 
 195   0.0000       4.270117       116.1958 
 196   0.0000       4.319478       117.5390 
 197   0.0000       4.333495       117.9204 
 198   0.0000       4.391629       119.5023 
 199   0.0000       4.419513       120.2611 
 200   0.0000       4.455567       121.2421 
 201   0.0000       4.533331       123.3582 
 202   0.0000       4.594777       125.0302 
 203   0.0000       4.607695       125.3818 
 204   0.0000       4.643748       126.3628 
 205   0.0000       4.855887       132.1354 
 206   0.0000       4.941070       134.4533 
 207   0.0000       5.012445       136.3956 
 208   0.0000       5.031705       136.9197 
 209   0.0000       5.117028       139.2414 
 210   0.0000       5.209803       141.7659 
 211   0.0000       5.260315       143.1405 
 212   0.0000       5.270994       143.4310 
 213   0.0000       5.297512       144.1526 
 214   0.0000       5.326448       144.9400 
 215   0.0000       5.460397       148.5850 
 216   0.0000       5.578937       151.8106 
 217   0.0000       5.603976       152.4919 
 218   0.0000       5.704386       155.2242 
 219   0.0000       5.884710       160.1311 
 220   0.0000       5.919283       161.0719 
 221   0.0000       5.919969       161.0906 
 222   0.0000       5.989583       162.9849 
 223   0.0000       6.055711       164.7843 
 224   0.0000       6.103227       166.0772 
 225   0.0000       6.115337       166.4068 
 226   0.0000       6.196783       168.6230 
 227   0.0000       6.252894       170.1499 
 228   0.0000       6.543385       178.0545 
 229   0.0000       6.723562       182.9574 
 230   0.0000       6.777982       184.4383 
 231   0.0000       6.891635       187.5309 
 232   0.0000       6.940206       188.8526 
 233   0.0000       7.103157       193.2867 
 234   0.0000       7.151439       194.6005 
 235   0.0000       7.269165       197.8040 
 236   0.0000       7.388950       201.0635 
 237   0.0000       7.404643       201.4906 
 238   0.0000       7.580507       206.2761 
 239   0.0000       7.767509       211.3647 
 240   0.0000       7.807830       212.4619 
 241   0.0000       8.372704       227.8329 
 242   0.0000       8.395974       228.4661 
 243   0.0000       8.470263       230.4876 
 244   0.0000       8.743216       237.9150 
 245   0.0000       8.829087       240.2517 
 246   0.0000       8.918576       242.6868 
 247   0.0000       9.137206       248.6360 
 248   0.0000       9.179688       249.7920 
 249   0.0000       9.278690       252.4860 
 250   0.0000       9.290436       252.8056 
 251   0.0000       9.393172       255.6012 
 252   0.0000       9.393989       255.6234 
 253   0.0000       9.466105       257.5858 
 254   0.0000       9.669982       263.1336 
 255   0.0000       9.890845       269.1436 
 256   0.0000       9.973018       271.3796 
 257   0.0000      10.081913       274.3428 
 258   0.0000      10.362409       281.9755 
 259   0.0000      10.378064       282.4015 
 260   0.0000      10.701090       291.1915 
 261   0.0000      10.811077       294.1844 
 262   0.0000      10.830048       294.7006 
 263   0.0000      11.001290       299.3603 
 264   0.0000      11.165525       303.8294 
 265   0.0000      11.166355       303.8520 
 266   0.0000      11.174338       304.0692 
 267   0.0000      11.294579       307.3411 
 268   0.0000      11.377598       309.6002 
 269   0.0000      11.484714       312.5150 
 270   0.0000      11.555260       314.4346 
 271   0.0000      11.689209       318.0796 
 272   0.0000      11.743501       319.5569 
 273   0.0000      11.776356       320.4509 
 274   0.0000      11.785130       320.6897 
 275   0.0000      11.931632       324.6762 
 276   0.0000      11.998357       326.4919 
 277   0.0000      11.999682       326.5279 
 278   0.0000      12.008837       326.7771 
 279   0.0000      12.027149       327.2754 
 280   0.0000      12.139920       330.3440 
 281   0.0000      12.250545       333.3543 
 282   0.0000      12.276105       334.0498 
 283   0.0000      12.421057       337.9942 
 284   0.0000      12.527877       340.9009 
 285   0.0000      12.542928       341.3104 
 286   0.0000      12.596563       342.7699 
 287   0.0000      12.625564       343.5591 
 288   0.0000      12.671905       344.8201 
 289   0.0000      12.689134       345.2889 
 290   0.0000      12.695554       345.4636 
 291   0.0000      12.732135       346.4590 
 292   0.0000      12.825054       348.9875 
 293   0.0000      12.897328       350.9541 
 294   0.0000      12.929721       351.8356 
 295   0.0000      13.028018       354.5104 
 296   0.0000      13.113895       356.8472 
 297   0.0000      13.170913       358.3988 
 298   0.0000      13.636375       371.0646 
 299   0.0000      13.682838       372.3289 
 300   0.0000      13.696268       372.6944 
 301   0.0000      13.948163       379.5488 
 302   0.0000      14.163081       385.3970 
 303   0.0000      14.251411       387.8006 
 304   0.0000      14.493959       394.4007 
 305   0.0000      14.638280       398.3278 
 306   0.0000      14.691619       399.7793 
 307   0.0000      15.410509       419.3413 
 308   0.0000      16.230758       441.6614 
 309   0.0000      16.424384       446.9302 
 310   0.0000      16.686047       454.0504 
 311   0.0000      16.704255       454.5459 
 312   0.0000      16.932647       460.7607 
 313   0.0000      16.934864       460.8211 
 314   0.0000      16.983097       462.1336 
 315   0.0000      17.016460       463.0414 
 316   0.0000      17.051512       463.9952 
 317   0.0000      17.097014       465.2334 
 318   0.0000      17.148546       466.6357 
 319   0.0000      17.238313       469.0783 
 320   0.0000      17.317201       471.2250 
 321   0.0000      17.418778       473.9891 
 322   0.0000      17.475325       475.5278 
 323   0.0000      17.570410       478.1152 
 324   0.0000      17.691918       481.4216 
 325   0.0000      17.729250       482.4374 
 326   0.0000      17.940871       488.1959 
 327   0.0000      18.164681       494.2861 
 328   0.0000      18.229676       496.0547 
 329   0.0000      18.271832       497.2018 
 330   0.0000      18.341436       499.0959 
 331   0.0000      18.804000       511.6829 
 332   0.0000      18.909364       514.5499 
 333   0.0000      18.912907       514.6464 
 334   0.0000      19.141064       520.8548 
 335   0.0000      19.297486       525.1113 
 336   0.0000      19.669694       535.2396 
 337   0.0000      19.890888       541.2586 
 338   0.0000      20.792012       565.7794 
 339   0.0000      20.884884       568.3066 
 340   0.0000      21.326466       580.3226 
 341   0.0000      22.903838       623.2451 
 342   0.0000      22.929370       623.9399 
 343   0.0000      22.949997       624.5012 
 344   0.0000      23.283097       633.5653 
 345   0.0000      23.479683       638.9147 
 346   0.0000      23.610172       642.4654 
 347   0.0000      23.773371       646.9063 
 348   0.0000      23.905672       650.5064 
 349   0.0000      24.051584       654.4769 
 350   0.0000      24.281712       660.7390 
 351   0.0000      26.388994       718.0810 
 352   0.0000      26.889923       731.7120 
 353   0.0000      27.876769       758.5655 
 354   0.0000      30.009548       816.6013 
 355   0.0000      30.710318       835.6702 
 356   0.0000      31.674148       861.8974 
 357   0.0000      31.991721       870.5390 
 358   0.0000      32.026324       871.4806 
 359   0.0000      33.112337       901.0325 
 360   0.0000      34.042033       926.3308 
 361   0.0000      34.847334       948.2442 
 362   0.0000      41.224995      1121.7892 
 363   0.0000      66.477394      1808.9419 
 364   0.0000      66.506435      1809.7321 
 365   0.0000      66.522137      1810.1594 
 366   0.0000      66.664279      1814.0273 
 367   0.0000      66.782068      1817.2325 
 368   0.0000      66.987948      1822.8347 
 369   0.0000      67.009033      1823.4085 
 370   0.0000      67.237124      1829.6152 
 371   0.0000      68.353807      1860.0016 
 372   0.0000      69.641178      1895.0328 
 373   0.0000      90.943599      2474.7011 
 374   0.0000      91.094059      2478.7954 
 375   0.0000      93.402999      2541.6248 
 376   0.0000     142.729687      3883.8722 
 377   0.0000     143.785623      3912.6057 

                 SPIN DOWN ORBITALS
  NO   OCC          E(Eh)            E(eV) 
   0   1.0000     -18.875064      -513.6166 
   1   1.0000     -18.815166      -511.9867 
   2   1.0000      -1.090659       -29.6783 
   3   1.0000      -0.768738       -20.9184 
   4   1.0000      -0.503704       -13.7065 
   5   1.0000      -0.424815       -11.5598 
   6   1.0000      -0.387334       -10.5399 
   7   1.0000      -0.231940        -6.3114 
   8   0.0000      -0.177487        -4.8297 
   9   0.0000      -0.036967        -1.0059 
  10   0.0000       0.008325         0.2265 
  11   0.0000       0.023629         0.6430 
  12   0.0000       0.029669         0.8073 
  13   0.0000       0.035688         0.9711 
  14   0.0000       0.054748         1.4898 
  15   0.0000       0.057849         1.5741 
  16   0.0000       0.061865         1.6834 
  17   0.0000       0.062186         1.6922 
  18   0.0000       0.086448         2.3524 
  19   0.0000       0.090829         2.4716 
  20   0.0000       0.115277         3.1368 
  21   0.0000       0.117417         3.1951 
  22   0.0000       0.125168         3.4060 
  23   0.0000       0.143988         3.9181 
  24   0.0000       0.151270         4.1163 
  25   0.0000       0.165164         4.4944 
  26   0.0000       0.170108         4.6289 
  27   0.0000       0.176653         4.8070 
  28   0.0000       0.181698         4.9443 
  29   0.0000       0.187316         5.0971 
  30   0.0000       0.189723         5.1626 
  31   0.0000       0.190498         5.1837 
  32   0.0000       0.207323         5.6416 
  33   0.0000       0.216452         5.8900 
  34   0.0000       0.232087         6.3154 
  35   0.0000       0.243894         6.6367 
  36   0.0000       0.248432         6.7602 
  37   0.0000       0.255869         6.9626 
  38   0.0000       0.264094         7.1864 
  39   0.0000       0.280922         7.6443 
  40   0.0000       0.285560         7.7705 
  41   0.0000       0.301138         8.1944 
  42   0.0000       0.303978         8.2717 
  43   0.0000       0.307522         8.3681 
  44   0.0000       0.348169         9.4742 
  45   0.0000       0.350067         9.5258 
  46   0.0000       0.352645         9.5960 
  47   0.0000       0.362914         9.8754 
  48   0.0000       0.380616        10.3571 
  49   0.0000       0.399095        10.8599 
  50   0.0000       0.401086        10.9141 
  51   0.0000       0.411246        11.1906 
  52   0.0000       0.416894        11.3443 
  53   0.0000       0.418278        11.3819 
  54   0.0000       0.434149        11.8138 
  55   0.0000       0.440655        11.9908 
  56   0.0000       0.445706        12.1283 
  57   0.0000       0.455983        12.4079 
  58   0.0000       0.461210        12.5502 
  59   0.0000       0.464542        12.6408 
  60   0.0000       0.470896        12.8137 
  61   0.0000       0.474917        12.9232 
  62   0.0000       0.481555        13.1038 
  63   0.0000       0.509877        13.8745 
  64   0.0000       0.510316        13.8864 
  65   0.0000       0.522958        14.2304 
  66   0.0000       0.526449        14.3254 
  67   0.0000       0.529712        14.4142 
  68   0.0000       0.543226        14.7819 
  69   0.0000       0.552790        15.0422 
  70   0.0000       0.565500        15.3880 
  71   0.0000       0.582646        15.8546 
  72   0.0000       0.590472        16.0676 
  73   0.0000       0.604788        16.4571 
  74   0.0000       0.616260        16.7693 
  75   0.0000       0.627028        17.0623 
  76   0.0000       0.632600        17.2139 
  77   0.0000       0.642345        17.4791 
  78   0.0000       0.652243        17.7484 
  79   0.0000       0.655303        17.8317 
  80   0.0000       0.676670        18.4131 
  81   0.0000       0.695162        18.9163 
  82   0.0000       0.709438        19.3048 
  83   0.0000       0.720690        19.6110 
  84   0.0000       0.724746        19.7214 
  85   0.0000       0.726673        19.7738 
  86   0.0000       0.753426        20.5018 
  87   0.0000       0.764725        20.8092 
  88   0.0000       0.774167        21.0661 
  89   0.0000       0.778077        21.1725 
  90   0.0000       0.792295        21.5594 
  91   0.0000       0.795515        21.6471 
  92   0.0000       0.802190        21.8287 
  93   0.0000       0.827336        22.5129 
  94   0.0000       0.847485        23.0612 
  95   0.0000       0.855549        23.2807 
  96   0.0000       0.859640        23.3920 
  97   0.0000       0.861447        23.4412 
  98   0.0000       0.885673        24.1004 
  99   0.0000       0.890105        24.2210 
 100   0.0000       0.893284        24.3075 
 101   0.0000       0.895479        24.3672 
 102   0.0000       0.917231        24.9591 
 103   0.0000       0.927275        25.2324 
 104   0.0000       0.928549        25.2671 
 105   0.0000       0.950679        25.8693 
 106   0.0000       0.958148        26.0725 
 107   0.0000       0.961510        26.1640 
 108   0.0000       0.965536        26.2736 
 109   0.0000       0.984287        26.7838 
 110   0.0000       0.985517        26.8173 
 111   0.0000       1.003278        27.3006 
 112   0.0000       1.003886        27.3171 
 113   0.0000       1.008714        27.4485 
 114   0.0000       1.040499        28.3134 
 115   0.0000       1.040779        28.3210 
 116   0.0000       1.046156        28.4674 
 117   0.0000       1.055104        28.7108 
 118   0.0000       1.064953        28.9789 
 119   0.0000       1.072149        29.1747 
 120   0.0000       1.096248        29.8304 
 121   0.0000       1.100420        29.9439 
 122   0.0000       1.122354        30.5408 
 123   0.0000       1.127606        30.6837 
 124   0.0000       1.130828        30.7714 
 125   0.0000       1.178291        32.0629 
 126   0.0000       1.184335        32.2274 
 127   0.0000       1.206503        32.8306 
 128   0.0000       1.224010        33.3070 
 129   0.0000       1.236567        33.6487 
 130   0.0000       1.252158        34.0730 
 131   0.0000       1.270466        34.5711 
 132   0.0000       1.281140        34.8616 
 133   0.0000       1.309883        35.6437 
 134   0.0000       1.337562        36.3969 
 135   0.0000       1.387466        37.7549 
 136   0.0000       1.393657        37.9233 
 137   0.0000       1.413538        38.4643 
 138   0.0000       1.465144        39.8686 
 139   0.0000       1.469064        39.9753 
 140   0.0000       1.533487        41.7283 
 141   0.0000       1.547450        42.1083 
 142   0.0000       1.586203        43.1628 
 143   0.0000       1.658202        45.1220 
 144   0.0000       1.674069        45.5537 
 145   0.0000       1.703394        46.3517 
 146   0.0000       1.745736        47.5039 
 147   0.0000       1.781162        48.4679 
 148   0.0000       1.785397        48.5831 
 149   0.0000       1.824990        49.6605 
 150   0.0000       1.877539        51.0904 
 151   0.0000       1.901493        51.7422 
 152   0.0000       1.912880        52.0521 
 153   0.0000       1.929768        52.5117 
 154   0.0000       1.954788        53.1925 
 155   0.0000       1.992321        54.2138 
 156   0.0000       2.071165        56.3593 
 157   0.0000       2.119073        57.6629 
 158   0.0000       2.135102        58.0991 
 159   0.0000       2.166519        58.9540 
 160   0.0000       2.179042        59.2948 
 161   0.0000       2.225977        60.5719 
 162   0.0000       2.243889        61.0593 
 163   0.0000       2.307733        62.7966 
 164   0.0000       2.321663        63.1757 
 165   0.0000       2.431525        66.1652 
 166   0.0000       2.443144        66.4813 
 167   0.0000       2.475528        67.3625 
 168   0.0000       2.531826        68.8945 
 169   0.0000       2.592396        70.5427 
 170   0.0000       2.619159        71.2709 
 171   0.0000       2.681993        72.9807 
 172   0.0000       2.813725        76.5654 
 173   0.0000       2.934538        79.8528 
 174   0.0000       3.021158        82.2099 
 175   0.0000       3.144417        85.5639 
 176   0.0000       3.160146        85.9919 
 177   0.0000       3.210872        87.3723 
 178   0.0000       3.297212        89.7217 
 179   0.0000       3.308261        90.0223 
 180   0.0000       3.429515        93.3218 
 181   0.0000       3.465997        94.3146 
 182   0.0000       3.492851        95.0453 
 183   0.0000       3.588376        97.6447 
 184   0.0000       3.664341        99.7118 
 185   0.0000       3.762019       102.3698 
 186   0.0000       3.791937       103.1839 
 187   0.0000       3.950596       107.5012 
 188   0.0000       3.951744       107.5324 
 189   0.0000       4.034969       109.7971 
 190   0.0000       4.107807       111.7791 
 191   0.0000       4.140448       112.6673 
 192   0.0000       4.175547       113.6224 
 193   0.0000       4.205335       114.4330 
 194   0.0000       4.242744       115.4509 
 195   0.0000       4.301009       117.0364 
 196   0.0000       4.343883       118.2031 
 197   0.0000       4.353204       118.4567 
 198   0.0000       4.406031       119.8942 
 199   0.0000       4.444288       120.9352 
 200   0.0000       4.462186       121.4223 
 201   0.0000       4.537607       123.4746 
 202   0.0000       4.618163       125.6666 
 203   0.0000       4.638698       126.2254 
 204   0.0000       4.654108       126.6447 
 205   0.0000       4.866745       132.4309 
 206   0.0000       4.955697       134.8514 
 207   0.0000       5.019721       136.5936 
 208   0.0000       5.067521       137.8942 
 209   0.0000       5.133866       139.6996 
 210   0.0000       5.223895       142.1494 
 211   0.0000       5.298482       144.1790 
 212   0.0000       5.300451       144.2326 
 213   0.0000       5.326415       144.9391 
 214   0.0000       5.339778       145.3028 
 215   0.0000       5.474845       148.9781 
 216   0.0000       5.600894       152.4081 
 217   0.0000       5.624816       153.0590 
 218   0.0000       5.722717       155.7230 
 219   0.0000       5.903033       160.6297 
 220   0.0000       5.947722       161.8457 
 221   0.0000       5.959782       162.1739 
 222   0.0000       6.013801       163.6439 
 223   0.0000       6.078201       165.3963 
 224   0.0000       6.126255       166.7039 
 225   0.0000       6.147244       167.2750 
 226   0.0000       6.205774       168.8677 
 227   0.0000       6.269163       170.5926 
 228   0.0000       6.550009       178.2348 
 229   0.0000       6.734235       183.2478 
 230   0.0000       6.794648       184.8918 
 231   0.0000       6.903252       187.8470 
 232   0.0000       6.966683       189.5731 
 233   0.0000       7.112940       193.5529 
 234   0.0000       7.168061       195.0529 
 235   0.0000       7.284831       198.2303 
 236   0.0000       7.404439       201.4850 
 237   0.0000       7.409490       201.6225 
 238   0.0000       7.596444       206.7098 
 239   0.0000       7.781369       211.7418 
 240   0.0000       7.820720       212.8126 
 241   0.0000       8.379253       228.0111 
 242   0.0000       8.404138       228.6882 
 243   0.0000       8.499551       231.2845 
 244   0.0000       8.760439       238.3837 
 245   0.0000       8.831110       240.3067 
 246   0.0000       8.926448       242.9010 
 247   0.0000       9.139178       248.6897 
 248   0.0000       9.205462       250.4933 
 249   0.0000       9.305968       253.2283 
 250   0.0000       9.326358       253.7831 
 251   0.0000       9.454420       257.2679 
 252   0.0000       9.454447       257.2686 
 253   0.0000       9.490626       258.2531 
 254   0.0000       9.689480       263.6642 
 255   0.0000       9.937493       270.4129 
 256   0.0000       9.978626       271.5322 
 257   0.0000      10.086796       274.4757 
 258   0.0000      10.367634       282.1177 
 259   0.0000      10.399079       282.9733 
 260   0.0000      10.730763       291.9989 
 261   0.0000      10.827385       294.6281 
 262   0.0000      10.902833       296.6812 
 263   0.0000      11.017088       299.7902 
 264   0.0000      11.181451       304.2627 
 265   0.0000      11.194893       304.6285 
 266   0.0000      11.216989       305.2298 
 267   0.0000      11.305026       307.6254 
 268   0.0000      11.396462       310.1135 
 269   0.0000      11.503984       313.0393 
 270   0.0000      11.581322       315.1438 
 271   0.0000      11.717775       318.8569 
 272   0.0000      11.765894       320.1663 
 273   0.0000      11.792989       320.9036 
 274   0.0000      11.808685       321.3307 
 275   0.0000      11.948534       325.1361 
 276   0.0000      12.033845       327.4576 
 277   0.0000      12.044955       327.7599 
 278   0.0000      12.058170       328.1195 
 279   0.0000      12.059238       328.1485 
 280   0.0000      12.166512       331.0676 
 281   0.0000      12.263449       333.7054 
 282   0.0000      12.286067       334.3209 
 283   0.0000      12.439490       338.4957 
 284   0.0000      12.544396       341.3504 
 285   0.0000      12.579808       342.3140 
 286   0.0000      12.614619       343.2612 
 287   0.0000      12.656815       344.4094 
 288   0.0000      12.706782       345.7691 
 289   0.0000      12.740893       346.6973 
 290   0.0000      12.763426       347.3105 
 291   0.0000      12.777403       347.6908 
 292   0.0000      12.862279       350.0004 
 293   0.0000      12.927370       351.7716 
 294   0.0000      12.947806       352.3277 
 295   0.0000      13.062663       355.4531 
 296   0.0000      13.168649       358.3371 
 297   0.0000      13.178786       358.6130 
 298   0.0000      13.647507       371.3676 
 299   0.0000      13.703204       372.8831 
 300   0.0000      13.704616       372.9216 
 301   0.0000      13.958061       379.8182 
 302   0.0000      14.184743       385.9865 
 303   0.0000      14.279474       388.5642 
 304   0.0000      14.507326       394.7644 
 305   0.0000      14.647392       398.5758 
 306   0.0000      14.712040       400.3350 
 307   0.0000      15.417822       419.5403 
 308   0.0000      16.236934       441.8294 
 309   0.0000      16.471390       448.2093 
 310   0.0000      16.686527       454.0635 
 311   0.0000      16.704439       454.5509 
 312   0.0000      17.003196       462.6805 
 313   0.0000      17.010985       462.8924 
 314   0.0000      17.026617       463.3178 
 315   0.0000      17.048781       463.9209 
 316   0.0000      17.057123       464.1479 
 317   0.0000      17.129645       466.1213 
 318   0.0000      17.205100       468.1746 
 319   0.0000      17.252874       469.4746 
 320   0.0000      17.343592       471.9431 
 321   0.0000      17.440139       474.5703 
 322   0.0000      17.490551       475.9421 
 323   0.0000      17.590458       478.6607 
 324   0.0000      17.711279       481.9484 
 325   0.0000      17.754503       483.1246 
 326   0.0000      17.971875       489.0396 
 327   0.0000      18.191206       495.0079 
 328   0.0000      18.250455       496.6201 
 329   0.0000      18.318373       498.4683 
 330   0.0000      18.353859       499.4339 
 331   0.0000      18.818468       512.0765 
 332   0.0000      18.917913       514.7826 
 333   0.0000      18.955919       515.8168 
 334   0.0000      19.166699       521.5524 
 335   0.0000      19.303862       525.2848 
 336   0.0000      19.671420       535.2865 
 337   0.0000      19.892972       541.3153 
 338   0.0000      20.802860       566.0746 
 339   0.0000      20.896749       568.6295 
 340   0.0000      21.325869       580.3064 
 341   0.0000      22.959818       624.7684 
 342   0.0000      23.003921       625.9685 
 343   0.0000      23.030904       626.7028 
 344   0.0000      23.292769       633.8285 
 345   0.0000      23.502685       639.5406 
 346   0.0000      23.623865       642.8380 
 347   0.0000      23.772014       646.8694 
 348   0.0000      23.923319       650.9866 
 349   0.0000      24.104692       655.9220 
 350   0.0000      24.289014       660.9377 
 351   0.0000      26.406285       718.5515 
 352   0.0000      26.896194       731.8826 
 353   0.0000      27.890171       758.9301 
 354   0.0000      30.040065       817.4317 
 355   0.0000      30.723772       836.0363 
 356   0.0000      31.748142       863.9109 
 357   0.0000      32.007821       870.9771 
 358   0.0000      32.075376       872.8154 
 359   0.0000      33.128989       901.4856 
 360   0.0000      34.054188       926.6616 
 361   0.0000      34.864437       948.7096 
 362   0.0000      41.222038      1121.7087 
 363   0.0000      66.515472      1809.9780 
 364   0.0000      66.557461      1811.1206 
 365   0.0000      66.576544      1811.6399 
 366   0.0000      66.674307      1814.3001 
 367   0.0000      66.809438      1817.9772 
 368   0.0000      67.006174      1823.3307 
 369   0.0000      67.048991      1824.4958 
 370   0.0000      67.245944      1829.8552 
 371   0.0000      68.373216      1860.5298 
 372   0.0000      69.653034      1895.3554 
 373   0.0000      90.939581      2474.5918 
 374   0.0000      91.089522      2478.6719 
 375   0.0000      93.398867      2541.5124 
 376   0.0000     142.747355      3884.3530 
 377   0.0000     143.796262      3912.8952 

                    ********************************
                    * MULLIKEN POPULATION ANALYSIS *
                    ********************************

--------------------------------------------
MULLIKEN ATOMIC CHARGES AND SPIN POPULATIONS
--------------------------------------------
   0 O :   -0.023689    0.277293
   1 O :   -0.178491    0.714587
   2 H :    0.202180    0.008120
Sum of atomic charges         :    0.0000000
Sum of atomic spin populations:    1.0000000

-----------------------------------------------------
MULLIKEN REDUCED ORBITAL CHARGES AND SPIN POPULATIONS
-----------------------------------------------------
CHARGE
  0 O s       :     3.790332  s :     3.790332
      pz      :     1.648601  p :     4.146830
      px      :     1.394780
      py      :     1.103448
      dz2     :     0.005182  d :     0.075898
      dxz     :     0.002118
      dyz     :     0.019745
      dx2y2   :     0.013205
      dxy     :     0.035648
      f0      :     0.000851  f :     0.010143
      f+1     :     0.000401
      f-1     :     0.000638
      f+2     :     0.001916
      f-2     :     0.000010
      f+3     :     0.005883
      f-3     :     0.000444
      g0      :    -0.000010  g :     0.000484
      g+1     :    -0.000002
      g-1     :    -0.000059
      g+2     :     0.000066
      g-2     :    -0.000040
      g+3     :     0.000002
      g-3     :     0.000176
      g+4     :    -0.000174
      g-4     :     0.000525
      h0      :    -0.000001  h :     0.000002
      h+1     :     0.000000
      h-1     :     0.000000
      h+2     :    -0.000004
      h-2     :    -0.000000
      h+3     :    -0.000007
      h-3     :    -0.000007
      h+4     :     0.000001
      h-4     :    -0.000001
      h+5     :     0.000061
      h-5     :    -0.000042
  1 O s       :     3.977902  s :     3.977902
      pz      :     1.266438  p :     4.146971
      px      :     1.938547
      py      :     0.941987
      dz2     :     0.003861  d :     0.047350
      dxz     :    -0.000047
      dyz     :     0.015967
      dx2y2   :     0.011769
      dxy     :     0.015802
      f0      :     0.001244  f :     0.006560
      f+1     :     0.000035
      f-1     :     0.000660
      f+2     :     0.001168
      f-2     :    -0.000119
      f+3     :     0.002647
      f-3     :     0.000924
      g0      :     0.000021  g :    -0.000213
      g+1     :    -0.000010
      g-1     :    -0.000136
      g+2     :     0.000042
      g-2     :    -0.000096
      g+3     :    -0.000042
      g-3     :    -0.000084
      g+4     :    -0.000136
      g-4     :     0.000229
      h0      :    -0.000005  h :    -0.000080
      h+1     :    -0.000006
      h-1     :     0.000002
      h+2     :    -0.000013
      h-2     :    -0.000004
      h+3     :    -0.000018
      h-3     :    -0.000002
      h+4     :    -0.000030
      h-4     :    -0.000004
      h+5     :     0.000031
      h-5     :    -0.000031
  2 H s       :     0.690882  s :     0.690882
      pz      :     0.034575  p :     0.085675
      px      :     0.027357
      py      :     0.023743
      dz2     :     0.001350  d :     0.015984
      dxz     :     0.004785
      dyz     :     0.000953
      dx2y2   :     0.003432
      dxy     :     0.005465
      f0      :     0.000678  f :     0.004518
      f+1     :     0.000099
      f-1     :     0.000105
      f+2     :     0.000373
      f-2     :     0.000569
      f+3     :     0.000090
      f-3     :     0.002604
      g0      :    -0.000027  g :     0.000761
      g+1     :     0.000129
      g-1     :     0.000079
      g+2     :     0.000056
      g-2     :    -0.000005
      g+3     :     0.000135
      g-3     :     0.000048
      g+4     :     0.000215
      g-4     :     0.000129

SPIN
  0 O s       :    -0.005922  s :    -0.005922
      pz      :     0.293369  p :     0.277850
      px      :    -0.003561
      py      :    -0.011958
      dz2     :     0.000156  d :     0.005223
      dxz     :     0.000535
      dyz     :     0.008613
      dx2y2   :    -0.000744
      dxy     :    -0.003337
      f0      :    -0.000195  f :     0.000061
      f+1     :    -0.000211
      f-1     :    -0.000369
      f+2     :     0.000512
      f-2     :     0.000013
      f+3     :     0.000275
      f-3     :     0.000035
      g0      :    -0.000050  g :     0.000083
      g+1     :     0.000001
      g-1     :    -0.000181
      g+2     :    -0.000110
      g-2     :    -0.000135
      g+3     :    -0.000000
      g-3     :     0.000114
      g+4     :     0.000072
      g-4     :     0.000373
      h0      :     0.000001  h :    -0.000003
      h+1     :     0.000002
      h-1     :    -0.000011
      h+2     :    -0.000022
      h-2     :    -0.000000
      h+3     :    -0.000009
      h-3     :    -0.000021
      h+4     :    -0.000004
      h-4     :     0.000001
      h+5     :     0.000047
      h-5     :     0.000013
  1 O s       :     0.001283  s :     0.001283
      pz      :     0.693720  p :     0.711469
      px      :     0.003658
      py      :     0.014092
      dz2     :     0.000790  d :     0.003246
      dxz     :    -0.000061
      dyz     :     0.001410
      dx2y2   :     0.000554
      dxy     :     0.000552
      f0      :    -0.000156  f :    -0.000730
      f+1     :    -0.000070
      f-1     :    -0.000447
      f+2     :    -0.000038
      f-2     :     0.000001
      f+3     :    -0.000002
      f-3     :    -0.000018
      g0      :    -0.000063  g :    -0.000597
      g+1     :     0.000002
      g-1     :    -0.000120
      g+2     :    -0.000077
      g-2     :    -0.000130
      g+3     :     0.000011
      g-3     :    -0.000085
      g+4     :    -0.000030
      g-4     :    -0.000105
      h0      :     0.000010  h :    -0.000084
      h+1     :    -0.000004
      h-1     :    -0.000019
      h+2     :    -0.000004
      h-2     :     0.000001
      h+3     :    -0.000014
      h-3     :    -0.000009
      h+4     :    -0.000012
      h-4     :     0.000003
      h+5     :    -0.000027
      h-5     :    -0.000009
  2 H s       :     0.004666  s :     0.004666
      pz      :     0.002124  p :     0.004472
      px      :     0.000010
      py      :     0.002338
      dz2     :    -0.000035  d :    -0.001068
      dxz     :     0.000074
      dyz     :    -0.000155
      dx2y2   :     0.000015
      dxy     :    -0.000967
      f0      :     0.000019  f :    -0.000178
      f+1     :    -0.000081
      f-1     :    -0.000027
      f+2     :     0.000126
      f-2     :     0.000123
      f+3     :    -0.000075
      f-3     :    -0.000262
      g0      :     0.000007  g :     0.000229
      g+1     :     0.000021
      g-1     :     0.000043
      g+2     :    -0.000010
      g-2     :    -0.000011
      g+3     :     0.000164
      g-3     :     0.000021
      g+4     :    -0.000012
      g-4     :     0.000006


                     *******************************
                     * LOEWDIN POPULATION ANALYSIS *
                     *******************************

-------------------------------------------
LOEWDIN ATOMIC CHARGES AND SPIN POPULATIONS
-------------------------------------------
   0 O :    0.593404    0.313676
   1 O :    0.245484    0.633942
   2 H :   -0.838888    0.052381

----------------------------------------------------
LOEWDIN REDUCED ORBITAL CHARGES AND SPIN POPULATIONS
----------------------------------------------------
CHARGE
  0 O s       :     3.040190  s :     3.040190
      pz      :     1.241010  p :     3.606102
      px      :     1.286347
      py      :     1.078745
      dz2     :     0.050429  d :     0.471026
      dxz     :     0.001545
      dyz     :     0.082954
      dx2y2   :     0.162752
      dxy     :     0.173347
      f0      :     0.016699  f :     0.204560
      f+1     :     0.004190
      f-1     :     0.024795
      f+2     :     0.029052
      f-2     :     0.000118
      f+3     :     0.081667
      f-3     :     0.048038
      g0      :     0.003278  g :     0.060695
      g+1     :     0.000077
      g-1     :     0.007831
      g+2     :     0.007008
      g-2     :     0.003518
      g+3     :     0.000046
      g-3     :     0.006679
      g+4     :     0.012153
      g-4     :     0.020105
      h0      :     0.001948  h :     0.024024
      h+1     :     0.000220
      h-1     :     0.002283
      h+2     :     0.002739
      h-2     :     0.000044
      h+3     :     0.001538
      h-3     :     0.002393
      h+4     :     0.001870
      h-4     :     0.000034
      h+5     :     0.007589
      h-5     :     0.003365
  1 O s       :     3.322182  s :     3.322182
      pz      :     1.099545  p :     3.783096
      px      :     1.617646
      py      :     1.065905
      dz2     :     0.042140  d :     0.373143
      dxz     :     0.000195
      dyz     :     0.095021
      dx2y2   :     0.119627
      dxy     :     0.116160
      f0      :     0.020339  f :     0.188003
      f+1     :     0.005761
      f-1     :     0.024189
      f+2     :     0.032443
      f-2     :     0.000127
      f+3     :     0.067175
      f-3     :     0.037968
      g0      :     0.003331  g :     0.063377
      g+1     :     0.000026
      g-1     :     0.009604
      g+2     :     0.006393
      g-2     :     0.005218
      g+3     :     0.000067
      g-3     :     0.006448
      g+4     :     0.011749
      g-4     :     0.020541
      h0      :     0.001915  h :     0.024717
      h+1     :     0.000458
      h-1     :     0.002178
      h+2     :     0.003169
      h-2     :     0.000047
      h+3     :     0.003102
      h-3     :     0.002228
      h+4     :     0.001679
      h-4     :     0.000002
      h+5     :     0.006134
      h-5     :     0.003805
  2 H s       :     0.623841  s :     0.623841
      pz      :     0.129965  p :     0.533160
      px      :     0.273365
      py      :     0.129830
      dz2     :     0.046504  d :     0.439705
      dxz     :     0.113001
      dyz     :     0.022326
      dx2y2   :     0.139834
      dxy     :     0.118039
      f0      :     0.020214  f :     0.173339
      f+1     :     0.012076
      f-1     :     0.012329
      f+2     :     0.020845
      f-2     :     0.014329
      f+3     :     0.050943
      f-3     :     0.042603
      g0      :     0.003592  g :     0.068843
      g+1     :     0.003390
      g-1     :     0.005535
      g+2     :     0.003547
      g-2     :     0.007023
      g+3     :     0.006435
      g-3     :     0.000689
      g+4     :     0.021842
      g-4     :     0.016791

SPIN
  0 O s       :     0.001848  s :     0.001848
      pz      :     0.218595  p :     0.213614
      px      :     0.003249
      py      :    -0.008230
      dz2     :    -0.000028  d :     0.052002
      dxz     :     0.000264
      dyz     :     0.054652
      dx2y2   :     0.000155
      dxy     :    -0.003040
      f0      :     0.012025  f :     0.032810
      f+1     :    -0.000101
      f-1     :    -0.000190
      f+2     :     0.020590
      f-2     :     0.000061
      f+3     :    -0.000316
      f-3     :     0.000742
      g0      :    -0.000090  g :     0.009731
      g+1     :     0.000018
      g-1     :     0.005363
      g+2     :    -0.000114
      g-2     :    -0.000102
      g+3     :     0.000011
      g-3     :     0.004337
      g+4     :     0.000211
      g-4     :     0.000098
      h0      :     0.000873  h :     0.003671
      h+1     :    -0.000006
      h-1     :    -0.000101
      h+2     :     0.001804
      h-2     :     0.000005
      h+3     :    -0.000042
      h-3     :    -0.000055
      h+4     :     0.001001
      h-4     :     0.000012
      h+5     :     0.000090
      h-5     :     0.000089
  1 O s       :     0.006467  s :     0.006467
      pz      :     0.568231  p :     0.578158
      px      :     0.005882
      py      :     0.004045
      dz2     :     0.000848  d :     0.025350
      dxz     :    -0.000002
      dyz     :     0.025764
      dx2y2   :    -0.000382
      dxy     :    -0.000878
      f0      :     0.006904  f :     0.017602
      f+1     :     0.000116
      f-1     :    -0.000382
      f+2     :     0.011106
      f-2     :     0.000036
      f+3     :    -0.000247
      f-3     :     0.000067
      g0      :    -0.000055  g :     0.005004
      g+1     :     0.000015
      g-1     :     0.003156
      g+2     :    -0.000069
      g-2     :    -0.000084
      g+3     :     0.000061
      g-3     :     0.001993
      g+4     :    -0.000004
      g-4     :    -0.000009
      h0      :     0.000441  h :     0.001362
      h+1     :    -0.000007
      h-1     :    -0.000049
      h+2     :     0.000651
      h-2     :     0.000023
      h+3     :    -0.000026
      h-3     :    -0.000032
      h+4     :     0.000324
      h-4     :     0.000001
      h+5     :     0.000037
      h-5     :    -0.000002
  2 H s       :    -0.005267  s :    -0.005267
      pz      :     0.013428  p :     0.011897
      px      :     0.000417
      py      :    -0.001948
      dz2     :    -0.000266  d :     0.020306
      dxz     :     0.017284
      dyz     :     0.004290
      dx2y2   :     0.000108
      dxy     :    -0.001110
      f0      :     0.004243  f :     0.016347
      f+1     :    -0.000121
      f-1     :    -0.000202
      f+2     :     0.009481
      f-2     :     0.003571
      f+3     :    -0.000138
      f-3     :    -0.000485
      g0      :    -0.000072  g :     0.009098
      g+1     :     0.000563
      g-1     :     0.003178
      g+2     :    -0.000063
      g-2     :    -0.000096
      g+3     :     0.005597
      g-3     :     0.000051
      g+4     :    -0.000092
      g-4     :     0.000032


                      *****************************
                      * MAYER POPULATION ANALYSIS *
                      *****************************

  NA   - Mulliken gross atomic population
  ZA   - Total nuclear charge
  QA   - Mulliken gross atomic charge
  VA   - Mayer's total valence
  BVA  - Mayer's bonded valence
  FA   - Mayer's free valence

  ATOM       NA         ZA         QA         VA         BVA        FA
  0 O      8.0237     8.0000    -0.0237     2.4230     2.3170     0.1060
  1 O      8.1785     8.0000    -0.1785     1.8981     1.4040     0.4942
  2 H      0.7978     1.0000     0.2022     1.0382     1.0377     0.0005

  Mayer bond orders larger than 0.1
B(  0-O ,  1-O ) :   1.3416 B(  0-O ,  2-H ) :   0.9754 

-------
TIMINGS
-------

Total SCF time: 0 days 0 hours 50 min 7 sec 

Total time                  ....    3007.898 sec
Sum of individual times     ....    3007.172 sec  (100.0%)

Fock matrix formation       ....    2998.649 sec  ( 99.7%)
  XC integration            ....     119.841 sec  (  4.0% of F)
    Basis function eval.    ....       8.441 sec  (  7.0% of XC)
    Density eval.           ....      26.775 sec  ( 22.3% of XC)
    XC-Functional eval.     ....       1.074 sec  (  0.9% of XC)
    XC-Potential eval.      ....      82.790 sec  ( 69.1% of XC)
Diagonalization             ....       1.290 sec  (  0.0%)
Density matrix formation    ....       0.026 sec  (  0.0%)
Population analysis         ....       0.093 sec  (  0.0%)
Initial guess               ....       4.392 sec  (  0.1%)
Orbital Transformation      ....       0.000 sec  (  0.0%)
Orbital Orthonormalization  ....       0.000 sec  (  0.0%)
DIIS solution               ....       0.633 sec  (  0.0%)
Grid generation             ....       2.089 sec  (  0.1%)

-------------------------   --------------------
FINAL SINGLE POINT ENERGY      -150.841453191507
-------------------------   --------------------


                            ***************************************
                            *     ORCA property calculations      *
                            ***************************************

                                    ---------------------
                                    Active property flags
                                    ---------------------
   (+) Dipole Moment
   (+) Polarizability


------------------------------------------------------------------------------
                       ORCA ELECTRIC PROPERTIES CALCULATION
------------------------------------------------------------------------------

Dipole Moment Calculation                       ... on
Quadrupole Moment Calculation                   ... off
Polarizability Calculation                      ... Analytic (CP-SCF)
GBWName                                         ... ho2_pbe.gbw
Electron density file                           ... ho2_pbe.scfp.tmp
The origin for moment calculation is the CENTER OF MASS  = ( 0.050218,  0.048430  0.000000)

-------------
DIPOLE MOMENT
-------------
                                X             Y             Z
Electronic contribution:      0.21650       0.23203      -0.00000
Nuclear contribution   :     -0.85465      -0.82330       0.00000
                        -----------------------------------------
Total Dipole Moment    :     -0.63815      -0.59127      -0.00000
                        -----------------------------------------
Magnitude (a.u.)       :      0.86997
Magnitude (Debye)      :      2.21128



--------------------
Rotational spectrum 
--------------------
 
Rotational constants in cm-1:    20.665858     1.118966     1.061491 
Rotational constants in MHz : 619546.847976 33545.749135 31822.689817 

 Dipole components along the rotational axes: 
x,y,z [a.u.] :     0.627622     0.602440    -0.000000 
x,y,z [Debye]:     1.595288     1.531280    -0.000000 

 
Transforming and storing MO dipole integrals   ... done

                ... starting polarizability calculation

Opening the Dipole integral file               ... (ho2_pbe.dmo.tmp) done
Reading Dipole-MO integrals                    ... done
Solving CP-SCF equations                       ... 
------------------------------------------------------------------------------
                           ORCA CP-SCF CALCULATION
------------------------------------------------------------------------------

Input orbitals are from        ... ho2_pbe.gbw
Input Perturbation             ... ho2_pbe.cpv.tmp
Wavefunction output            ... ho2_pbe.cpu.tmp
Perturbation mode              ... Real perturbation (singlet)
Solver                         ... POPLE
Max. number of iterations      ... 200
Convergence tolerance          ... 1.000e-06
Integral handling              ... Direct
Number of perturbations        ... 3
Number of operators            ... 2
Orbital ranges used for CP-SCF:
 Operator 0:  Orbitals   0...  8  to   9...377
 Operator 1:  Orbitals   0...  7  to   8...377
DFT calculation                         ... on
Exchange functional (SCF)               ... PBE
Exchange functional (CP-SCF)            ... PBE
   PBE kappa parameter  XKappa (SCF)    ...  0.804000
   PBE kappa parameter  XKappa (CP-SCF) ...  0.804000
   PBE mue parameter   XMuePBE (SCF)    ...  0.219520
   PBE mue parameter   XMuePBE (CP-SCF) ...  0.219520
Correlation functional (SCF)            ... PBE
Correlation functional (CP-SCF)         ... PBE
   PBE beta parameter CBetaPBE (SCF)    ...  0.066725
   PBE beta parameter CBetaPBE (CP-SCF) ...  0.066725
 LDA part of GGA corr.  LDAOpt (SCF)    ... PW91-LDA
 LDA part of GGA corr.  LDAOpt (CP-SCF) ... PW91-LDA
Variables per vector in CP-SCF ... 6281
Number of vectors sought       ... 3
Recalculating density on grid  ... done
Calculating the xc-kernel      ... done
     CP-SCF ITERATION   0: 
     CP-SCF ITERATION   1:      0.452022733444
     CP-SCF ITERATION   2:      0.044699933500
     CP-SCF ITERATION   3:      0.003279648466
     CP-SCF ITERATION   4:      0.000249197497
     CP-SCF ITERATION   5:      0.000012329446
     CP-SCF ITERATION   6:      0.000000671744
done
Reading CP-SCF coefficients                    ... done
Doing the polarizability tensor   ... done
Cleaning up                                    ... done

-------------------------
THE POLARIZABILITY TENSOR
-------------------------

The raw cartesian tensor (atomic units):
   12.95810      1.54996     -0.00000  
    1.54996     19.15268      0.00000  
   -0.00000      0.00000     10.60274  
diagonalized tensor: 
   10.60274     12.59192     19.51885  

    0.00000     -0.97321     -0.22992  
   -0.00000      0.22992     -0.97321  
    1.00000      0.00000     -0.00000  

Isotropic polarizability :  14.23784


Timings for individual modules:

Sum of individual times         ...     5390.150 sec (=  89.836 min)
GTO integral calculation        ...        1.185 sec (=   0.020 min)   0.0 %
SCF iterations                  ...     3007.917 sec (=  50.132 min)  55.8 %
Solution of CP-SCF eqns.        ...     2381.047 sec (=  39.684 min)  44.2 %
                             ****ORCA TERMINATED NORMALLY****
TOTAL RUN TIME: 0 days 1 hours 29 minutes 55 seconds 165 msec
