
                                 *****************
                                 * O   R   C   A *
                                 *****************

           --- An Ab Initio, DFT and Semiempirical electronic structure package ---

                  #######################################################
                  #                        -***-                        #
                  #          Department of theory and spectroscopy      #
                  #               Directorship: Frank Neese             #
                  #        Max Planck Institute fuer Kohlenforschung    #
                  #                Kaiser Wilhelm Platz 1               #
                  #                 D-45470 Muelheim/Ruhr               #
                  #                      Germany                        #
                  #                                                     #
                  #                  All rights reserved                #
                  #                        -***-                        #
                  #######################################################


                         Program Version 4.1.2  - RELEASE  -


 With contributions from (in alphabetic order):
   Daniel Aravena         : Magnetic Properties
   Michael Atanasov       : Ab Initio Ligand Field Theory
   Alexander A. Auer      : GIAO ZORA
   Ute Becker             : Parallelization
   Giovanni Bistoni       : ED, Open-shell LED
   Martin Brehm           : Molecular dynamics
   Dmytro Bykov           : SCF Hessian
   Vijay G. Chilkuri      : MRCI spin determinant printing
   Dipayan Datta          : RHF DLPNO-CCSD density
   Achintya Kumar Dutta   : EOM-CC, STEOM-CC
   Dmitry Ganyushin       : Spin-Orbit,Spin-Spin,Magnetic field MRCI
   Miquel Garcia          : C-PCM Hessian
   Yang Guo               : DLPNO-NEVPT2, CIM, IAO-localization
   Andreas Hansen         : Spin unrestricted coupled pair/coupled cluster methods
   Benjamin Helmich-Paris : CASSCF linear response (MC-RPA)
   Lee Huntington         : MR-EOM, pCC
   Robert Izsak           : Overlap fitted RIJCOSX, COSX-SCS-MP3, EOM
   Christian Kollmar      : KDIIS, OOCD, Brueckner-CCSD(T), CCSD density
   Simone Kossmann        : Meta GGA functionals, TD-DFT gradient, OOMP2, MP2 Hessian
   Martin Krupicka        : AUTO-CI
   Lucas Lang             : DCDCAS
   Dagmar Lenk            : GEPOL surface, SMD
   Dimitrios Liakos       : Extrapolation schemes; parallel MDCI
   Dimitrios Manganas     : ROCIS; embedding schemes
   Dimitrios Pantazis     : SARC Basis sets
   Taras Petrenko         : DFT Hessian,TD-DFT gradient, ASA, ECA, R-Raman, ABS, FL, XAS/XES, NRVS
   Peter Pinski           : DLPNO-MP2, DLPNO-MP2 Gradient
   Christoph Reimann      : Effective Core Potentials
   Marius Retegan         : Local ZFS, SOC
   Christoph Riplinger    : Optimizer, TS searches, QM/MM, DLPNO-CCSD(T), (RO)-DLPNO pert. Triples
   Tobias Risthaus        : Range-separated hybrids, TD-DFT gradient, RPA, STAB
   Michael Roemelt        : Restricted open shell CIS
   Masaaki Saitow         : Open-shell DLPNO
   Barbara Sandhoefer     : DKH picture change effects
   Avijit Sen             : IP-ROCIS
   Kantharuban Sivalingam : CASSCF convergence, NEVPT2, FIC-MRCI
   Bernardo de Souza      : ESD, SOC TD-DFT
   Georgi Stoychev        : AutoAux, RI-MP2 NMR
   Willem Van den Heuvel  : Paramagnetic NMR
   Boris Wezisla          : Elementary symmetry handling
   Frank Wennmohs         : Technical directorship


 We gratefully acknowledge several colleagues who have allowed us to
 interface, adapt or use parts of their codes:
   Stefan Grimme, W. Hujo, H. Kruse,             : VdW corrections, initial TS optimization,
                  C. Bannwarth                     DFT functionals, gCP, sTDA/sTD-DF
   Ed Valeev                                     : LibInt (2-el integral package), F12 methods
   Garnet Chan, S. Sharma, J. Yang, R. Olivares  : DMRG
   Ulf Ekstrom                                   : XCFun DFT Library
   Mihaly Kallay                                 : mrcc  (arbitrary order and MRCC methods)
   Andreas Klamt, Michael Diedenhofen            : otool_cosmo (COSMO solvation model)
   Jiri Pittner, Ondrej Demel                    : Mk-CCSD
   Frank Weinhold                                : gennbo (NPA and NBO analysis)
   Christopher J. Cramer and Donald G. Truhlar   : smd solvation model
   Lars Goerigk                                  : TD-DFT with DH, B97 family of functionals
   V. Asgeirsson, H. Jonsson                     : NEB implementation
   FAccTs GmbH                                   : IRC, NEB, NEB-TS, Multilevel


 Your calculation uses the libint2 library for the computation of 2-el integrals
 For citations please refer to: http://libint.valeyev.net

 This ORCA versions uses:
   CBLAS   interface :  Fast vector & matrix operations
   LAPACKE interface :  Fast linear algebra routines
   SCALAPACK package :  Parallel linear algebra routines


----- Orbital basis set information -----
Your calculation utilizes the basis: aug-pc-4
   H, C-F              : F. Jensen, J. Chem. Phys. 115, 9113 (2001).
                         F. Jensen, J. Chem. Phys. 116, 7372 (2002).
                         F. Jensen, J. Chem. Phys. 117, 9234 (2002).
   Si-Cl               : F. Jensen, T. Helgaker, J. Chem. Phys. 121, 3463 (2004).
   He-B, Ne-Mg, Al, Ar : F. Jensen, J. Phys. Chem. A 111, 11198 (2007).
   K, Ca, Ga-Kr        : F. Jensen, J. Chem. Phys. 136, 094110 (2012).
   Sc-Zn               : F. Jensen, J. Chem. Phys. 138, 014107 (2013).

================================================================================
                                        WARNINGS
                       Please study these warnings very carefully!
================================================================================


INFO   : the flag for use of LIBINT has been found!

================================================================================
                                       INPUT FILE
================================================================================
NAME = libh4_pbe.inp
|  1> !uks pbe nori aug-pc-4 grid7 nofinalgrid verytightscf
|  2> 
|  3> %maxcore 1500
|  4> 
|  5> %pal nprocs 4 end
|  6> 
|  7> %scf
|  8> 	maxiter 200
|  9> end
| 10> %elprop
| 11> 	dipole true
| 12> 	 polar 1
| 13> 	 maxiter 200
| 14> end
| 15> 
| 16> * xyz 0 1
| 17> Li 0.0000000000 0.0000000000 -1.4298000000
| 18> B 0.0000000000 0.0000000000 0.5063000000
| 19> H 0.0000000000 0.0000000000 1.6973000000
| 20> H 0.0000000000 1.1405000000 0.0202000000
| 21> H 0.9877000000 -0.5702000000 0.0202000000
| 22> H -0.9877000000 -0.5702000000 0.0202000000
| 23> *
| 24> 
| 25>                          ****END OF INPUT****
================================================================================

                       ****************************
                       * Single Point Calculation *
                       ****************************

---------------------------------
CARTESIAN COORDINATES (ANGSTROEM)
---------------------------------
  Li     0.000000    0.000000   -1.429800
  B      0.000000    0.000000    0.506300
  H      0.000000    0.000000    1.697300
  H      0.000000    1.140500    0.020200
  H      0.987700   -0.570200    0.020200
  H     -0.987700   -0.570200    0.020200

----------------------------
CARTESIAN COORDINATES (A.U.)
----------------------------
  NO LB      ZA    FRAG     MASS         X           Y           Z
   0 Li    3.0000    0     6.941    0.000000    0.000000   -2.701930
   1 B     5.0000    0    10.810    0.000000    0.000000    0.956768
   2 H     1.0000    0     1.008    0.000000    0.000000    3.207432
   3 H     1.0000    0     1.008    0.000000    2.155233    0.038172
   4 H     1.0000    0     1.008    1.866483   -1.077522    0.038172
   5 H     1.0000    0     1.008   -1.866483   -1.077522    0.038172

--------------------------------
INTERNAL COORDINATES (ANGSTROEM)
--------------------------------
 Li     0   0   0     0.000000000000     0.00000000     0.00000000
 B      1   0   0     1.936100000000     0.00000000     0.00000000
 H      2   1   0     1.191000000000   180.00000000     0.00000000
 H      2   1   3     1.239771535405    66.91549358     0.00000000
 H      2   1   4     1.239746966118    66.91500962   240.00212583
 H      2   1   5     1.239746966118    66.91500962   239.99574833

---------------------------
INTERNAL COORDINATES (A.U.)
---------------------------
 Li     0   0   0     0.000000000000     0.00000000     0.00000000
 B      1   0   0     3.658698767885     0.00000000     0.00000000
 H      2   1   0     2.250663825500   180.00000000     0.00000000
 H      2   1   3     2.342828670546    66.91549358     0.00000000
 H      2   1   4     2.342782241324    66.91500962   240.00212583
 H      2   1   5     2.342782241324    66.91500962   239.99574833

---------------------
BASIS SET INFORMATION
---------------------
There are 3 groups of distinct atoms

 Group   1 Type Li  : 31s9p4d3f2g contracted to 9s5p4d3f2g pattern {12121111111/51111/1111/111/11}
 Group   2 Type B   : 27s12p7d4f3g2h contracted to 9s8p7d4f3g2h pattern {1191111111/51111111/1111111/1111/111/11}
 Group   3 Type H   : 12s7p4d3f2g contracted to 8s7p4d3f2g pattern {51111111/1111111/1111/111/11}

Atom   0Li   basis set group =>   1
Atom   1B    basis set group =>   2
Atom   2H    basis set group =>   3
Atom   3H    basis set group =>   3
Atom   4H    basis set group =>   3
Atom   5H    basis set group =>   3


           ************************************************************
           *        Program running with 4 parallel MPI-processes     *
           *              working on a common directory               *
           ************************************************************
------------------------------------------------------------------------------
                           ORCA GTO INTEGRAL CALCULATION
------------------------------------------------------------------------------

                         BASIS SET STATISTICS AND STARTUP INFO

 # of primitive gaussian shells          ...  216
 # of primitive gaussian functions       ...  660
 # of contracted shells                  ...  152
 # of contracted basis functions         ...  580
 Highest angular momentum                ...    5
 Maximum contraction depth               ...   12
 Integral package used                   ... LIBINT
 Integral threshhold            Thresh   ...  1.000e-12
 Primitive cut-off              TCut     ...  1.000e-14


------------------------------ INTEGRAL EVALUATION ----------------------------


 * One electron integrals 
 Pre-screening matrix                    ... done
 Shell pair data                         ... done (   0.004 sec)



           ************************************************************
           *        Program running with 4 parallel MPI-processes     *
           *              working on a common directory               *
           ************************************************************
-------------------------------------------------------------------------------
                                 ORCA SCF
-------------------------------------------------------------------------------

------------
SCF SETTINGS
------------
Hamiltonian:
 Density Functional     Method          .... DFT(GTOs)
 Exchange Functional    Exchange        .... PBE
   PBE kappa parameter   XKappa         ....  0.804000
   PBE mue parameter    XMuePBE         ....  0.219520
 Correlation Functional Correlation     .... PBE
   PBE beta parameter  CBetaPBE         ....  0.066725
 LDA part of GGA corr.  LDAOpt          .... PW91-LDA
 Gradients option       PostSCFGGA      .... off
   Density functional embedding theory  .... OFF
   NL short-range parameter             ....  6.400000


General Settings:
 Integral files         IntName         .... libh4_pbe
 Hartree-Fock type      HFTyp           .... UHF
 Total Charge           Charge          ....    0
 Multiplicity           Mult            ....    1
 Number of Electrons    NEL             ....   12
 Basis Dimension        Dim             ....  580
 Nuclear Repulsion      ENuc            ....     17.3997336526 Eh

Convergence Acceleration:
 DIIS                   CNVDIIS         .... on
   Start iteration      DIISMaxIt       ....    12
   Startup error        DIISStart       ....  0.200000
   # of expansion vecs  DIISMaxEq       ....     5
   Bias factor          DIISBfac        ....   1.050
   Max. coefficient     DIISMaxC        ....  10.000
 Newton-Raphson         CNVNR           .... off
 SOSCF                  CNVSOSCF        .... off
 Level Shifting         CNVShift        .... on
   Level shift para.    LevelShift      ....    0.2500
   Turn off err/grad.   ShiftErr        ....    0.0010
 Zerner damping         CNVZerner       .... off
 Static damping         CNVDamp         .... on
   Fraction old density DampFac         ....    0.7000
   Max. Damping (<1)    DampMax         ....    0.9800
   Min. Damping (>=0)   DampMin         ....    0.0000
   Turn off err/grad.   DampErr         ....    0.1000
 Fernandez-Rico         CNVRico         .... off

SCF Procedure:
 Maximum # iterations   MaxIter         ....   200
 SCF integral mode      SCFMode         .... Direct
   Integral package                     .... LIBINT
 Reset frequency        DirectResetFreq ....    20
 Integral Threshold     Thresh          ....  1.000e-12 Eh
 Primitive CutOff       TCut            ....  1.000e-14 Eh

Convergence Tolerance:
 Convergence Check Mode ConvCheckMode   .... Total+1el-Energy
 Convergence forced     ConvForced      .... 0
 Energy Change          TolE            ....  1.000e-09 Eh
 1-El. energy change                    ....  1.000e-06 Eh
 DIIS Error             TolErr          ....  1.000e-08


Diagonalization of the overlap matrix:
Smallest eigenvalue                        ... 3.523e-08
Time for diagonalization                   ...    0.159 sec
Threshold for overlap eigenvalues          ... 1.000e-08
Number of eigenvalues below threshold      ... 0
Time for construction of square roots      ...    0.065 sec
Total time needed                          ...    0.225 sec

-------------------
DFT GRID GENERATION
-------------------

General Integration Accuracy     IntAcc      ...  5.670
Radial Grid Type                 RadialGrid  ... Gauss-Chebyshev
Angular Grid (max. acc.)         AngularGrid ... Lebedev-770
Angular grid pruning method      GridPruning ... 3 (G Style)
Weight generation scheme         WeightScheme... Becke
Basis function cutoff            BFCut       ...    1.0000e-12
Integration weight cutoff        WCut        ...    1.0000e-14
Grids for H and He will be reduced by one unit

# of grid points (after initial pruning)     ... 120332 (   0.0 sec)
# of grid points (after weights+screening)   ... 115039 (   0.0 sec)
nearest neighbour list constructed           ...    0.0 sec
Grid point re-assignment to atoms done       ...    0.0 sec
Grid point division into batches done        ...    2.0 sec
Reduced shell lists constructed in    2.5 sec

Total number of grid points                  ...   115039
Total number of batches                      ...     1799
Average number of points per batch           ...       63
Average number of grid points per atom       ...    19173
Average number of shells per batch           ...   112.77 (74.19%)
Average number of basis functions per batch  ...   438.89 (75.67%)
Average number of large shells per batch     ...   101.27 (89.80%)
Average number of large basis fcns per batch ...   394.37 (89.86%)
Maximum spatial batch extension              ...  27.78, 29.29, 27.56 au
Average spatial batch extension              ...   0.63,  0.61,  0.57 au

Time for grid setup =    2.590 sec

------------------------------
INITIAL GUESS: MODEL POTENTIAL
------------------------------
Loading Hartree-Fock densities                     ... done
Calculating cut-offs                               ... done
Setting up the integral package                    ... done
Initializing the effective Hamiltonian             ... done
Starting the Coulomb interaction                   ... done (   0.1 sec)
Reading the grid                                   ... done
Mapping shells                                     ... done
Starting the XC term evaluation                    ... done (   3.9 sec)
  promolecular density results
     # of electrons  =     11.998040292
     EX              =     -6.715747059
     EC              =     -0.310840691
     EX+EC           =     -7.026587750
Transforming the Hamiltonian                       ... done (   0.0 sec)
Diagonalizing the Hamiltonian                      ... done (   0.1 sec)
Back transforming the eigenvectors                 ... done (   0.0 sec)
Now organizing SCF variables                       ... done
                      ------------------
                      INITIAL GUESS DONE (   6.8 sec)
                      ------------------
--------------
SCF ITERATIONS
--------------
ITER       Energy         Delta-E        Max-DP      RMS-DP      [F,P]     Damp
               ***  Starting incremental Fock matrix formation  ***
  0    -34.5774616838   0.000000000000 0.06788243  0.00036822  0.2410719 0.7000
  1    -34.6449731258  -0.067511441954 0.03588631  0.00022178  0.1200703 0.7000
                               ***Turning on DIIS***
  2    -34.6724706000  -0.027497474260 0.05813237  0.00037357  0.0389942 0.0000
  3    -34.6978016348  -0.025331034810 0.01570343  0.00015419  0.0860059 0.0000
  4    -34.7147888508  -0.016987215953 0.01237872  0.00008759  0.0273105 0.0000
  5    -34.7168600728  -0.002071222051 0.00486410  0.00002879  0.0094750 0.0000
  6    -34.7171371126  -0.000277039721 0.00165173  0.00001274  0.0034601 0.0000
  7    -34.7171784821  -0.000041369548 0.00099939  0.00000723  0.0014042 0.0000
  8    -34.7171857186  -0.000007236476 0.00049992  0.00000370  0.0006209 0.0000
  9    -34.7171876648  -0.000001946195 0.00018275  0.00000133  0.0000398 0.0000
 10    -34.7171876676  -0.000000002838 0.00014544  0.00000116  0.0000313 0.0000
 11    -34.7171876690  -0.000000001394 0.00065485  0.00000249  0.0000019 0.0000
 12    -34.7171876690  -0.000000000003 0.00367072  0.00001979  0.0000004 0.0000
                 **** Energy Check signals convergence ****

               *****************************************************
               *                     SUCCESS                       *
               *           SCF CONVERGED AFTER  13 CYCLES          *
               *****************************************************


----------------
TOTAL SCF ENERGY
----------------

Total Energy       :          -34.71718767 Eh            -944.70270 eV

Components:
Nuclear Repulsion  :           17.39973365 Eh             473.47082 eV
Electronic Energy  :          -52.11692132 Eh           -1418.17353 eV
One Electron Energy:          -79.90890889 Eh           -2174.43196 eV
Two Electron Energy:           27.79198757 Eh             756.25843 eV

Virial components:
Potential Energy   :          -69.19989498 Eh           -1883.02487 eV
Kinetic Energy     :           34.48270731 Eh             938.32217 eV
Virial Ratio       :            2.00679994


DFT components:
N(Alpha)           :        5.999999064087 electrons
N(Beta)            :        5.999999064087 electrons
N(Total)           :       11.999998128174 electrons
E(X)               :       -7.047787051118 Eh       
E(C)               :       -0.323654330229 Eh       
E(XC)              :       -7.371441381347 Eh       
DFET-embed. en.    :        0.000000000000 Eh       

---------------
SCF CONVERGENCE
---------------

  Last Energy change         ...    2.8393e-11  Tolerance :   1.0000e-09
  Last MAX-Density change    ...    2.4031e-03  Tolerance :   1.0000e-08
  Last RMS-Density change    ...    1.5890e-05  Tolerance :   1.0000e-09
  Last DIIS Error            ...    4.4059e-08  Tolerance :   1.0000e-08

             **** THE GBW FILE WAS UPDATED (libh4_pbe.gbw) ****
             **** DENSITY FILE WAS UPDATED (libh4_pbe.scfp.tmp) ****
             **** ENERGY FILE WAS UPDATED (libh4_pbe.en.tmp) ****
----------------------
UHF SPIN CONTAMINATION
----------------------

Warning: in a DFT calculation there is little theoretical justification to 
         calculate <S**2> as in Hartree-Fock theory. We will do it anyways
         but you should keep in mind that the values have only limited relevance

Expectation value of <S**2>     :     0.000000
Ideal value S*(S+1) for S=0.0   :     0.000000
Deviation                       :     0.000000

----------------
ORBITAL ENERGIES
----------------
                 SPIN UP ORBITALS
  NO   OCC          E(Eh)            E(eV) 
   0   1.0000      -6.417575      -174.6311 
   1   1.0000      -1.888453       -51.3874 
   2   1.0000      -0.442967       -12.0538 
   3   1.0000      -0.256700        -6.9852 
   4   1.0000      -0.256690        -6.9849 
   5   1.0000      -0.256406        -6.9772 
   6   0.0000      -0.062153        -1.6913 
   7   0.0000      -0.003007        -0.0818 
   8   0.0000      -0.003007        -0.0818 
   9   0.0000       0.003860         0.1050 
  10   0.0000       0.007962         0.2166 
  11   0.0000       0.019128         0.5205 
  12   0.0000       0.019129         0.5205 
  13   0.0000       0.022755         0.6192 
  14   0.0000       0.026247         0.7142 
  15   0.0000       0.026247         0.7142 
  16   0.0000       0.026294         0.7155 
  17   0.0000       0.032985         0.8976 
  18   0.0000       0.035974         0.9789 
  19   0.0000       0.035975         0.9789 
  20   0.0000       0.052654         1.4328 
  21   0.0000       0.052655         1.4328 
  22   0.0000       0.052667         1.4331 
  23   0.0000       0.055881         1.5206 
  24   0.0000       0.057312         1.5595 
  25   0.0000       0.057313         1.5596 
  26   0.0000       0.071082         1.9342 
  27   0.0000       0.073478         1.9995 
  28   0.0000       0.073483         1.9996 
  29   0.0000       0.077206         2.1009 
  30   0.0000       0.077213         2.1011 
  31   0.0000       0.082952         2.2572 
  32   0.0000       0.085261         2.3201 
  33   0.0000       0.089876         2.4457 
  34   0.0000       0.089878         2.4457 
  35   0.0000       0.091098         2.4789 
  36   0.0000       0.102802         2.7974 
  37   0.0000       0.105916         2.8821 
  38   0.0000       0.105917         2.8822 
  39   0.0000       0.106225         2.8905 
  40   0.0000       0.115222         3.1354 
  41   0.0000       0.118534         3.2255 
  42   0.0000       0.118538         3.2256 
  43   0.0000       0.122378         3.3301 
  44   0.0000       0.122391         3.3304 
  45   0.0000       0.129694         3.5292 
  46   0.0000       0.129695         3.5292 
  47   0.0000       0.132494         3.6053 
  48   0.0000       0.133432         3.6309 
  49   0.0000       0.145214         3.9515 
  50   0.0000       0.145227         3.9518 
  51   0.0000       0.155454         4.2301 
  52   0.0000       0.157593         4.2883 
  53   0.0000       0.157604         4.2886 
  54   0.0000       0.169811         4.6208 
  55   0.0000       0.169839         4.6215 
  56   0.0000       0.169928         4.6240 
  57   0.0000       0.180454         4.9104 
  58   0.0000       0.183070         4.9816 
  59   0.0000       0.185442         5.0461 
  60   0.0000       0.185447         5.0463 
  61   0.0000       0.189636         5.1603 
  62   0.0000       0.191842         5.2203 
  63   0.0000       0.191844         5.2203 
  64   0.0000       0.192945         5.2503 
  65   0.0000       0.197850         5.3838 
  66   0.0000       0.198367         5.3978 
  67   0.0000       0.198369         5.3979 
  68   0.0000       0.201015         5.4699 
  69   0.0000       0.204822         5.5735 
  70   0.0000       0.204825         5.5736 
  71   0.0000       0.209605         5.7036 
  72   0.0000       0.219429         5.9710 
  73   0.0000       0.219796         5.9810 
  74   0.0000       0.219800         5.9811 
  75   0.0000       0.231742         6.3060 
  76   0.0000       0.231744         6.3061 
  77   0.0000       0.237458         6.4616 
  78   0.0000       0.237497         6.4626 
  79   0.0000       0.255723         6.9586 
  80   0.0000       0.255725         6.9586 
  81   0.0000       0.256178         6.9710 
  82   0.0000       0.265131         7.2146 
  83   0.0000       0.265320         7.2197 
  84   0.0000       0.270890         7.3713 
  85   0.0000       0.272282         7.4092 
  86   0.0000       0.277466         7.5502 
  87   0.0000       0.292226         7.9519 
  88   0.0000       0.292226         7.9519 
  89   0.0000       0.299640         8.1536 
  90   0.0000       0.299650         8.1539 
  91   0.0000       0.302535         8.2324 
  92   0.0000       0.310077         8.4376 
  93   0.0000       0.310101         8.4383 
  94   0.0000       0.312781         8.5112 
  95   0.0000       0.321621         8.7518 
  96   0.0000       0.321622         8.7518 
  97   0.0000       0.326825         8.8934 
  98   0.0000       0.330985         9.0066 
  99   0.0000       0.338214         9.2033 
 100   0.0000       0.338231         9.2037 
 101   0.0000       0.349114         9.4999 
 102   0.0000       0.351643         9.5687 
 103   0.0000       0.351663         9.5692 
 104   0.0000       0.363911         9.9025 
 105   0.0000       0.364986         9.9318 
 106   0.0000       0.365031         9.9330 
 107   0.0000       0.381607        10.3840 
 108   0.0000       0.387499        10.5444 
 109   0.0000       0.393346        10.7035 
 110   0.0000       0.393348        10.7035 
 111   0.0000       0.397029        10.8037 
 112   0.0000       0.398113        10.8332 
 113   0.0000       0.398117        10.8333 
 114   0.0000       0.402921        10.9640 
 115   0.0000       0.402933        10.9644 
 116   0.0000       0.409034        11.1304 
 117   0.0000       0.409048        11.1308 
 118   0.0000       0.419780        11.4228 
 119   0.0000       0.426316        11.6006 
 120   0.0000       0.426389        11.6026 
 121   0.0000       0.438831        11.9412 
 122   0.0000       0.438844        11.9416 
 123   0.0000       0.452550        12.3145 
 124   0.0000       0.457524        12.4499 
 125   0.0000       0.466296        12.6886 
 126   0.0000       0.466575        12.6961 
 127   0.0000       0.466800        12.7023 
 128   0.0000       0.467826        12.7302 
 129   0.0000       0.468491        12.7483 
 130   0.0000       0.483646        13.1607 
 131   0.0000       0.483647        13.1607 
 132   0.0000       0.484450        13.1826 
 133   0.0000       0.490600        13.3499 
 134   0.0000       0.490601        13.3499 
 135   0.0000       0.495126        13.4731 
 136   0.0000       0.512754        13.9528 
 137   0.0000       0.532288        14.4843 
 138   0.0000       0.532324        14.4853 
 139   0.0000       0.535956        14.5841 
 140   0.0000       0.539515        14.6810 
 141   0.0000       0.539535        14.6815 
 142   0.0000       0.571038        15.5387 
 143   0.0000       0.575581        15.6624 
 144   0.0000       0.575599        15.6628 
 145   0.0000       0.577837        15.7238 
 146   0.0000       0.577842        15.7239 
 147   0.0000       0.581230        15.8161 
 148   0.0000       0.598801        16.2942 
 149   0.0000       0.598808        16.2944 
 150   0.0000       0.602546        16.3961 
 151   0.0000       0.604553        16.4507 
 152   0.0000       0.615718        16.7545 
 153   0.0000       0.615745        16.7553 
 154   0.0000       0.616558        16.7774 
 155   0.0000       0.616713        16.7816 
 156   0.0000       0.629497        17.1295 
 157   0.0000       0.629499        17.1295 
 158   0.0000       0.631187        17.1755 
 159   0.0000       0.637459        17.3461 
 160   0.0000       0.658096        17.9077 
 161   0.0000       0.658105        17.9079 
 162   0.0000       0.690803        18.7977 
 163   0.0000       0.690814        18.7980 
 164   0.0000       0.699942        19.0464 
 165   0.0000       0.699943        19.0464 
 166   0.0000       0.703610        19.1462 
 167   0.0000       0.712687        19.3932 
 168   0.0000       0.714891        19.4532 
 169   0.0000       0.714916        19.4538 
 170   0.0000       0.715381        19.4665 
 171   0.0000       0.718509        19.5516 
 172   0.0000       0.726477        19.7684 
 173   0.0000       0.726492        19.7688 
 174   0.0000       0.730165        19.8688 
 175   0.0000       0.733538        19.9606 
 176   0.0000       0.733555        19.9611 
 177   0.0000       0.757134        20.6027 
 178   0.0000       0.757171        20.6037 
 179   0.0000       0.761146        20.7118 
 180   0.0000       0.768847        20.9214 
 181   0.0000       0.768849        20.9214 
 182   0.0000       0.777136        21.1469 
 183   0.0000       0.784534        21.3483 
 184   0.0000       0.784571        21.3493 
 185   0.0000       0.804172        21.8826 
 186   0.0000       0.805300        21.9133 
 187   0.0000       0.810094        22.0438 
 188   0.0000       0.824741        22.4423 
 189   0.0000       0.824749        22.4426 
 190   0.0000       0.836560        22.7640 
 191   0.0000       0.848155        23.0795 
 192   0.0000       0.848157        23.0795 
 193   0.0000       0.848229        23.0815 
 194   0.0000       0.864840        23.5335 
 195   0.0000       0.864860        23.5340 
 196   0.0000       0.881041        23.9743 
 197   0.0000       0.881060        23.9749 
 198   0.0000       0.885636        24.0994 
 199   0.0000       0.890762        24.2389 
 200   0.0000       0.894837        24.3497 
 201   0.0000       0.894868        24.3506 
 202   0.0000       0.907705        24.6999 
 203   0.0000       0.910937        24.7879 
 204   0.0000       0.910963        24.7886 
 205   0.0000       0.912246        24.8235 
 206   0.0000       0.933141        25.3921 
 207   0.0000       0.934378        25.4257 
 208   0.0000       0.934384        25.4259 
 209   0.0000       0.945729        25.7346 
 210   0.0000       0.945732        25.7347 
 211   0.0000       0.947305        25.7775 
 212   0.0000       0.961528        26.1645 
 213   0.0000       0.961529        26.1645 
 214   0.0000       0.975400        26.5420 
 215   0.0000       0.978609        26.6293 
 216   0.0000       0.978613        26.6294 
 217   0.0000       0.985452        26.8155 
 218   0.0000       0.988096        26.8874 
 219   0.0000       0.988304        26.8931 
 220   0.0000       1.019873        27.7521 
 221   0.0000       1.026586        27.9348 
 222   0.0000       1.026643        27.9364 
 223   0.0000       1.044599        28.4250 
 224   0.0000       1.047112        28.4934 
 225   0.0000       1.047117        28.4935 
 226   0.0000       1.073912        29.2226 
 227   0.0000       1.131315        30.7846 
 228   0.0000       1.131348        30.7855 
 229   0.0000       1.162974        31.6461 
 230   0.0000       1.204440        32.7745 
 231   0.0000       1.204446        32.7747 
 232   0.0000       1.213846        33.0304 
 233   0.0000       1.232471        33.5372 
 234   0.0000       1.251851        34.0646 
 235   0.0000       1.251855        34.0647 
 236   0.0000       1.256108        34.1804 
 237   0.0000       1.279377        34.8136 
 238   0.0000       1.279401        34.8143 
 239   0.0000       1.323717        36.0202 
 240   0.0000       1.323733        36.0206 
 241   0.0000       1.343634        36.5621 
 242   0.0000       1.413248        38.4564 
 243   0.0000       1.445241        39.3270 
 244   0.0000       1.445244        39.3271 
 245   0.0000       1.454289        39.5732 
 246   0.0000       1.458234        39.6806 
 247   0.0000       1.458240        39.6807 
 248   0.0000       1.494411        40.6650 
 249   0.0000       1.508599        41.0511 
 250   0.0000       1.508610        41.0514 
 251   0.0000       1.511894        41.1407 
 252   0.0000       1.547592        42.1121 
 253   0.0000       1.547620        42.1129 
 254   0.0000       1.554222        42.2925 
 255   0.0000       1.622055        44.1384 
 256   0.0000       1.622059        44.1385 
 257   0.0000       1.631348        44.3912 
 258   0.0000       1.645683        44.7813 
 259   0.0000       1.645698        44.7817 
 260   0.0000       1.665081        45.3092 
 261   0.0000       1.669586        45.4318 
 262   0.0000       1.669590        45.4319 
 263   0.0000       1.687610        45.9222 
 264   0.0000       1.687613        45.9223 
 265   0.0000       1.748969        47.5919 
 266   0.0000       1.759715        47.8843 
 267   0.0000       1.759716        47.8843 
 268   0.0000       1.779472        48.4219 
 269   0.0000       1.779481        48.4221 
 270   0.0000       1.780993        48.4633 
 271   0.0000       1.816108        49.4188 
 272   0.0000       1.816110        49.4189 
 273   0.0000       1.830791        49.8184 
 274   0.0000       1.877212        51.0815 
 275   0.0000       1.976589        53.7857 
 276   0.0000       1.976593        53.7858 
 277   0.0000       2.034103        55.3508 
 278   0.0000       2.058989        56.0279 
 279   0.0000       2.082062        56.6558 
 280   0.0000       2.118401        57.6446 
 281   0.0000       2.118413        57.6449 
 282   0.0000       2.140882        58.2564 
 283   0.0000       2.175495        59.1982 
 284   0.0000       2.175499        59.1983 
 285   0.0000       2.182265        59.3824 
 286   0.0000       2.230352        60.6910 
 287   0.0000       2.230355        60.6911 
 288   0.0000       2.344905        63.8081 
 289   0.0000       2.370280        64.4986 
 290   0.0000       2.370303        64.4992 
 291   0.0000       2.386420        64.9378 
 292   0.0000       2.386425        64.9379 
 293   0.0000       2.510769        68.3215 
 294   0.0000       2.542039        69.1724 
 295   0.0000       2.579544        70.1930 
 296   0.0000       2.657348        72.3101 
 297   0.0000       2.661975        72.4360 
 298   0.0000       2.661977        72.4361 
 299   0.0000       2.712934        73.8227 
 300   0.0000       2.712971        73.8237 
 301   0.0000       2.731082        74.3165 
 302   0.0000       2.817634        76.6717 
 303   0.0000       2.817634        76.6717 
 304   0.0000       2.914152        79.2981 
 305   0.0000       2.917720        79.3952 
 306   0.0000       2.917727        79.3954 
 307   0.0000       2.917973        79.4021 
 308   0.0000       2.980655        81.1077 
 309   0.0000       2.980665        81.1080 
 310   0.0000       3.050753        83.0152 
 311   0.0000       3.053686        83.0950 
 312   0.0000       3.134853        85.3037 
 313   0.0000       3.134859        85.3039 
 314   0.0000       3.160772        86.0090 
 315   0.0000       3.187992        86.7497 
 316   0.0000       3.187994        86.7497 
 317   0.0000       3.243146        88.2505 
 318   0.0000       3.243162        88.2509 
 319   0.0000       3.282198        89.3132 
 320   0.0000       3.309408        90.0536 
 321   0.0000       3.392969        92.3274 
 322   0.0000       3.392975        92.3275 
 323   0.0000       3.465031        94.2883 
 324   0.0000       3.465047        94.2887 
 325   0.0000       3.481074        94.7248 
 326   0.0000       3.481076        94.7249 
 327   0.0000       3.512498        95.5799 
 328   0.0000       3.562237        96.9334 
 329   0.0000       3.562244        96.9336 
 330   0.0000       3.605395        98.1078 
 331   0.0000       3.630679        98.7958 
 332   0.0000       3.724800       101.3569 
 333   0.0000       3.724814       101.3573 
 334   0.0000       3.744966       101.9057 
 335   0.0000       3.779309       102.8402 
 336   0.0000       3.779318       102.8405 
 337   0.0000       3.829909       104.2171 
 338   0.0000       3.858321       104.9903 
 339   0.0000       3.858323       104.9903 
 340   0.0000       3.902281       106.1865 
 341   0.0000       3.903988       106.2329 
 342   0.0000       3.956815       107.6704 
 343   0.0000       3.956832       107.6709 
 344   0.0000       3.988918       108.5440 
 345   0.0000       3.988925       108.5442 
 346   0.0000       4.045260       110.0771 
 347   0.0000       4.045271       110.0774 
 348   0.0000       4.047608       110.1410 
 349   0.0000       4.104747       111.6958 
 350   0.0000       4.163075       113.2830 
 351   0.0000       4.163083       113.2832 
 352   0.0000       4.170811       113.4935 
 353   0.0000       4.197498       114.2197 
 354   0.0000       4.229955       115.1029 
 355   0.0000       4.268220       116.1442 
 356   0.0000       4.268224       116.1443 
 357   0.0000       4.311224       117.3144 
 358   0.0000       4.311241       117.3148 
 359   0.0000       4.332757       117.9003 
 360   0.0000       4.358851       118.6104 
 361   0.0000       4.358864       118.6107 
 362   0.0000       4.449400       121.0743 
 363   0.0000       4.452217       121.1510 
 364   0.0000       4.473394       121.7272 
 365   0.0000       4.473413       121.7277 
 366   0.0000       4.685490       127.4987 
 367   0.0000       4.685504       127.4991 
 368   0.0000       4.780420       130.0819 
 369   0.0000       4.780427       130.0820 
 370   0.0000       4.837260       131.6285 
 371   0.0000       4.837273       131.6289 
 372   0.0000       4.862279       132.3093 
 373   0.0000       4.895113       133.2028 
 374   0.0000       5.009781       136.3231 
 375   0.0000       5.035005       137.0094 
 376   0.0000       5.035040       137.0104 
 377   0.0000       5.061990       137.7438 
 378   0.0000       5.194297       141.3440 
 379   0.0000       5.220065       142.0452 
 380   0.0000       5.220082       142.0457 
 381   0.0000       5.384811       146.5281 
 382   0.0000       5.409173       147.1911 
 383   0.0000       5.455246       148.4448 
 384   0.0000       5.455269       148.4454 
 385   0.0000       5.544221       150.8659 
 386   0.0000       5.544244       150.8665 
 387   0.0000       5.653539       153.8406 
 388   0.0000       5.653557       153.8411 
 389   0.0000       5.767823       156.9504 
 390   0.0000       5.887721       160.2130 
 391   0.0000       5.887747       160.2137 
 392   0.0000       5.912325       160.8825 
 393   0.0000       6.041355       164.3936 
 394   0.0000       6.182898       168.2452 
 395   0.0000       6.182909       168.2455 
 396   0.0000       6.217328       169.1821 
 397   0.0000       6.217354       169.1828 
 398   0.0000       6.339542       172.5077 
 399   0.0000       6.378730       173.5741 
 400   0.0000       6.393718       173.9819 
 401   0.0000       6.393730       173.9822 
 402   0.0000       6.469100       176.0332 
 403   0.0000       6.565342       178.6520 
 404   0.0000       6.565362       178.6526 
 405   0.0000       6.778924       184.4639 
 406   0.0000       6.778941       184.4644 
 407   0.0000       7.053217       191.9278 
 408   0.0000       8.120253       220.9633 
 409   0.0000       8.120254       220.9634 
 410   0.0000       8.367552       227.6927 
 411   0.0000       8.513136       231.6542 
 412   0.0000       8.648273       235.3315 
 413   0.0000       8.648291       235.3320 
 414   0.0000       8.706359       236.9121 
 415   0.0000       8.706365       236.9122 
 416   0.0000       8.746009       237.9910 
 417   0.0000       8.849490       240.8069 
 418   0.0000       8.849510       240.8074 
 419   0.0000       8.898809       242.1489 
 420   0.0000       8.898818       242.1491 
 421   0.0000       8.904881       242.3141 
 422   0.0000       9.013621       245.2731 
 423   0.0000       9.035264       245.8620 
 424   0.0000       9.035281       245.8625 
 425   0.0000       9.065692       246.6900 
 426   0.0000       9.065714       246.6906 
 427   0.0000       9.132969       248.5207 
 428   0.0000       9.133019       248.5221 
 429   0.0000       9.162539       249.3254 
 430   0.0000       9.193459       250.1667 
 431   0.0000       9.298623       253.0284 
 432   0.0000       9.306662       253.2472 
 433   0.0000       9.306674       253.2475 
 434   0.0000       9.457909       257.3628 
 435   0.0000       9.457925       257.3632 
 436   0.0000       9.547106       259.7900 
 437   0.0000       9.622721       261.8475 
 438   0.0000       9.622739       261.8480 
 439   0.0000       9.809967       266.9428 
 440   0.0000       9.898266       269.3455 
 441   0.0000       9.898291       269.3462 
 442   0.0000       9.984436       271.6903 
 443   0.0000      10.048617       273.4368 
 444   0.0000      10.078718       274.2559 
 445   0.0000      10.078738       274.2564 
 446   0.0000      10.142065       275.9796 
 447   0.0000      10.196473       277.4601 
 448   0.0000      10.196487       277.4605 
 449   0.0000      10.198998       277.5289 
 450   0.0000      10.253863       279.0218 
 451   0.0000      10.253896       279.0227 
 452   0.0000      10.394441       282.8471 
 453   0.0000      10.394506       282.8489 
 454   0.0000      10.685637       290.7710 
 455   0.0000      10.743164       292.3363 
 456   0.0000      10.755593       292.6746 
 457   0.0000      10.755626       292.6755 
 458   0.0000      10.902776       296.6796 
 459   0.0000      10.902797       296.6802 
 460   0.0000      10.968075       298.4565 
 461   0.0000      11.185469       304.3721 
 462   0.0000      11.185540       304.3740 
 463   0.0000      11.354789       308.9795 
 464   0.0000      11.411052       310.5105 
 465   0.0000      11.428051       310.9731 
 466   0.0000      11.428081       310.9739 
 467   0.0000      11.560318       314.5722 
 468   0.0000      11.560362       314.5734 
 469   0.0000      11.565274       314.7071 
 470   0.0000      11.933831       324.7360 
 471   0.0000      11.971390       325.7581 
 472   0.0000      11.971402       325.7584 
 473   0.0000      11.993517       326.3602 
 474   0.0000      12.503498       340.2375 
 475   0.0000      12.553134       341.5881 
 476   0.0000      12.553202       341.5900 
 477   0.0000      12.582257       342.3806 
 478   0.0000      12.705722       345.7403 
 479   0.0000      12.705738       345.7407 
 480   0.0000      12.707784       345.7964 
 481   0.0000      12.779886       347.7584 
 482   0.0000      12.822919       348.9294 
 483   0.0000      12.852402       349.7316 
 484   0.0000      12.852418       349.7321 
 485   0.0000      13.038024       354.7827 
 486   0.0000      13.038066       354.7838 
 487   0.0000      13.045463       354.9851 
 488   0.0000      13.120082       357.0156 
 489   0.0000      13.166946       358.2908 
 490   0.0000      13.167014       358.2927 
 491   0.0000      13.203567       359.2873 
 492   0.0000      13.203584       359.2878 
 493   0.0000      13.422214       365.2370 
 494   0.0000      13.422265       365.2384 
 495   0.0000      13.526427       368.0728 
 496   0.0000      13.655963       371.5976 
 497   0.0000      13.656412       371.6099 
 498   0.0000      13.661428       371.7464 
 499   0.0000      13.661429       371.7464 
 500   0.0000      14.257956       387.9787 
 501   0.0000      14.269005       388.2794 
 502   0.0000      14.269151       388.2833 
 503   0.0000      14.713533       400.3756 
 504   0.0000      14.789626       402.4462 
 505   0.0000      14.789652       402.4469 
 506   0.0000      15.867208       431.7687 
 507   0.0000      15.867395       431.7738 
 508   0.0000      16.281754       443.0491 
 509   0.0000      16.778533       456.5671 
 510   0.0000      16.826228       457.8649 
 511   0.0000      16.840389       458.2503 
 512   0.0000      16.840426       458.2513 
 513   0.0000      16.845296       458.3838 
 514   0.0000      16.845379       458.3861 
 515   0.0000      16.864254       458.8997 
 516   0.0000      16.864285       458.9005 
 517   0.0000      16.864649       458.9104 
 518   0.0000      17.004080       462.7045 
 519   0.0000      17.004132       462.7059 
 520   0.0000      17.058153       464.1759 
 521   0.0000      17.058190       464.1770 
 522   0.0000      17.090218       465.0485 
 523   0.0000      17.101358       465.3516 
 524   0.0000      17.181274       467.5262 
 525   0.0000      17.582561       478.4458 
 526   0.0000      17.645530       480.1593 
 527   0.0000      17.645579       480.1606 
 528   0.0000      17.773664       483.6460 
 529   0.0000      17.812274       484.6966 
 530   0.0000      17.812307       484.6975 
 531   0.0000      18.065716       491.5931 
 532   0.0000      18.065726       491.5934 
 533   0.0000      18.850501       512.9482 
 534   0.0000      18.854439       513.0554 
 535   0.0000      18.854452       513.0557 
 536   0.0000      19.156619       521.2781 
 537   0.0000      19.275776       524.5205 
 538   0.0000      19.275941       524.5250 
 539   0.0000      19.407291       528.0992 
 540   0.0000      19.597870       533.2852 
 541   0.0000      19.597896       533.2859 
 542   0.0000      19.636384       534.3332 
 543   0.0000      19.753231       537.5127 
 544   0.0000      19.753277       537.5140 
 545   0.0000      21.170834       576.0877 
 546   0.0000      21.243931       578.0767 
 547   0.0000      21.243936       578.0769 
 548   0.0000      22.586959       614.6224 
 549   0.0000      22.681189       617.1865 
 550   0.0000      22.681287       617.1892 
 551   0.0000      23.518246       639.9640 
 552   0.0000      23.625968       642.8953 
 553   0.0000      23.625991       642.8959 
 554   0.0000      23.727009       645.6447 
 555   0.0000      23.727028       645.6453 
 556   0.0000      23.872094       649.5927 
 557   0.0000      23.872113       649.5932 
 558   0.0000      23.894801       650.2106 
 559   0.0000      24.635811       670.3745 
 560   0.0000      24.921183       678.1399 
 561   0.0000      24.921320       678.1436 
 562   0.0000      25.238504       686.7746 
 563   0.0000      40.800156      1110.2287 
 564   0.0000      40.815371      1110.6427 
 565   0.0000      40.815403      1110.6436 
 566   0.0000      41.059680      1117.2907 
 567   0.0000      80.428930      2188.5824 
 568   0.0000      91.101694      2479.0031 
 569   0.0000      91.171990      2480.9160 
 570   0.0000      91.172001      2480.9163 
 571   0.0000      91.243601      2482.8646 
 572   0.0000      91.243613      2482.8649 
 573   0.0000      91.349465      2485.7453 
 574   0.0000      91.349470      2485.7455 
 575   0.0000      91.362529      2486.1008 
 576   0.0000      91.853421      2499.4587 
 577   0.0000      92.068891      2505.3219 
 578   0.0000      92.068976      2505.3242 
 579   0.0000      92.279961      2511.0654 

                 SPIN DOWN ORBITALS
  NO   OCC          E(Eh)            E(eV) 
   0   1.0000      -6.417575      -174.6311 
   1   1.0000      -1.888453       -51.3874 
   2   1.0000      -0.442967       -12.0538 
   3   1.0000      -0.256700        -6.9852 
   4   1.0000      -0.256690        -6.9849 
   5   1.0000      -0.256406        -6.9772 
   6   0.0000      -0.062153        -1.6913 
   7   0.0000      -0.003007        -0.0818 
   8   0.0000      -0.003007        -0.0818 
   9   0.0000       0.003860         0.1050 
  10   0.0000       0.007962         0.2166 
  11   0.0000       0.019128         0.5205 
  12   0.0000       0.019129         0.5205 
  13   0.0000       0.022755         0.6192 
  14   0.0000       0.026247         0.7142 
  15   0.0000       0.026247         0.7142 
  16   0.0000       0.026294         0.7155 
  17   0.0000       0.032985         0.8976 
  18   0.0000       0.035974         0.9789 
  19   0.0000       0.035975         0.9789 
  20   0.0000       0.052654         1.4328 
  21   0.0000       0.052655         1.4328 
  22   0.0000       0.052667         1.4331 
  23   0.0000       0.055881         1.5206 
  24   0.0000       0.057312         1.5595 
  25   0.0000       0.057313         1.5596 
  26   0.0000       0.071082         1.9342 
  27   0.0000       0.073478         1.9995 
  28   0.0000       0.073483         1.9996 
  29   0.0000       0.077206         2.1009 
  30   0.0000       0.077213         2.1011 
  31   0.0000       0.082952         2.2572 
  32   0.0000       0.085261         2.3201 
  33   0.0000       0.089876         2.4457 
  34   0.0000       0.089878         2.4457 
  35   0.0000       0.091098         2.4789 
  36   0.0000       0.102802         2.7974 
  37   0.0000       0.105916         2.8821 
  38   0.0000       0.105917         2.8822 
  39   0.0000       0.106225         2.8905 
  40   0.0000       0.115222         3.1354 
  41   0.0000       0.118534         3.2255 
  42   0.0000       0.118538         3.2256 
  43   0.0000       0.122378         3.3301 
  44   0.0000       0.122391         3.3304 
  45   0.0000       0.129694         3.5292 
  46   0.0000       0.129695         3.5292 
  47   0.0000       0.132494         3.6053 
  48   0.0000       0.133432         3.6309 
  49   0.0000       0.145214         3.9515 
  50   0.0000       0.145227         3.9518 
  51   0.0000       0.155454         4.2301 
  52   0.0000       0.157593         4.2883 
  53   0.0000       0.157604         4.2886 
  54   0.0000       0.169811         4.6208 
  55   0.0000       0.169839         4.6215 
  56   0.0000       0.169928         4.6240 
  57   0.0000       0.180454         4.9104 
  58   0.0000       0.183070         4.9816 
  59   0.0000       0.185442         5.0461 
  60   0.0000       0.185447         5.0463 
  61   0.0000       0.189636         5.1603 
  62   0.0000       0.191842         5.2203 
  63   0.0000       0.191844         5.2203 
  64   0.0000       0.192945         5.2503 
  65   0.0000       0.197850         5.3838 
  66   0.0000       0.198367         5.3978 
  67   0.0000       0.198369         5.3979 
  68   0.0000       0.201015         5.4699 
  69   0.0000       0.204822         5.5735 
  70   0.0000       0.204825         5.5736 
  71   0.0000       0.209605         5.7036 
  72   0.0000       0.219429         5.9710 
  73   0.0000       0.219796         5.9810 
  74   0.0000       0.219800         5.9811 
  75   0.0000       0.231742         6.3060 
  76   0.0000       0.231744         6.3061 
  77   0.0000       0.237458         6.4616 
  78   0.0000       0.237497         6.4626 
  79   0.0000       0.255723         6.9586 
  80   0.0000       0.255725         6.9586 
  81   0.0000       0.256178         6.9710 
  82   0.0000       0.265131         7.2146 
  83   0.0000       0.265320         7.2197 
  84   0.0000       0.270890         7.3713 
  85   0.0000       0.272282         7.4092 
  86   0.0000       0.277466         7.5502 
  87   0.0000       0.292226         7.9519 
  88   0.0000       0.292226         7.9519 
  89   0.0000       0.299640         8.1536 
  90   0.0000       0.299650         8.1539 
  91   0.0000       0.302535         8.2324 
  92   0.0000       0.310077         8.4376 
  93   0.0000       0.310101         8.4383 
  94   0.0000       0.312781         8.5112 
  95   0.0000       0.321621         8.7518 
  96   0.0000       0.321622         8.7518 
  97   0.0000       0.326825         8.8934 
  98   0.0000       0.330985         9.0066 
  99   0.0000       0.338214         9.2033 
 100   0.0000       0.338231         9.2037 
 101   0.0000       0.349114         9.4999 
 102   0.0000       0.351643         9.5687 
 103   0.0000       0.351663         9.5692 
 104   0.0000       0.363911         9.9025 
 105   0.0000       0.364986         9.9318 
 106   0.0000       0.365031         9.9330 
 107   0.0000       0.381607        10.3840 
 108   0.0000       0.387499        10.5444 
 109   0.0000       0.393346        10.7035 
 110   0.0000       0.393348        10.7035 
 111   0.0000       0.397029        10.8037 
 112   0.0000       0.398113        10.8332 
 113   0.0000       0.398117        10.8333 
 114   0.0000       0.402921        10.9640 
 115   0.0000       0.402933        10.9644 
 116   0.0000       0.409034        11.1304 
 117   0.0000       0.409048        11.1308 
 118   0.0000       0.419780        11.4228 
 119   0.0000       0.426316        11.6006 
 120   0.0000       0.426389        11.6026 
 121   0.0000       0.438831        11.9412 
 122   0.0000       0.438844        11.9416 
 123   0.0000       0.452550        12.3145 
 124   0.0000       0.457524        12.4499 
 125   0.0000       0.466296        12.6886 
 126   0.0000       0.466575        12.6961 
 127   0.0000       0.466800        12.7023 
 128   0.0000       0.467826        12.7302 
 129   0.0000       0.468491        12.7483 
 130   0.0000       0.483646        13.1607 
 131   0.0000       0.483647        13.1607 
 132   0.0000       0.484450        13.1826 
 133   0.0000       0.490600        13.3499 
 134   0.0000       0.490601        13.3499 
 135   0.0000       0.495126        13.4731 
 136   0.0000       0.512754        13.9528 
 137   0.0000       0.532288        14.4843 
 138   0.0000       0.532324        14.4853 
 139   0.0000       0.535956        14.5841 
 140   0.0000       0.539515        14.6810 
 141   0.0000       0.539535        14.6815 
 142   0.0000       0.571038        15.5387 
 143   0.0000       0.575581        15.6624 
 144   0.0000       0.575599        15.6628 
 145   0.0000       0.577837        15.7238 
 146   0.0000       0.577842        15.7239 
 147   0.0000       0.581230        15.8161 
 148   0.0000       0.598801        16.2942 
 149   0.0000       0.598808        16.2944 
 150   0.0000       0.602546        16.3961 
 151   0.0000       0.604553        16.4507 
 152   0.0000       0.615718        16.7545 
 153   0.0000       0.615745        16.7553 
 154   0.0000       0.616558        16.7774 
 155   0.0000       0.616713        16.7816 
 156   0.0000       0.629497        17.1295 
 157   0.0000       0.629499        17.1295 
 158   0.0000       0.631187        17.1755 
 159   0.0000       0.637459        17.3461 
 160   0.0000       0.658096        17.9077 
 161   0.0000       0.658105        17.9079 
 162   0.0000       0.690803        18.7977 
 163   0.0000       0.690814        18.7980 
 164   0.0000       0.699942        19.0464 
 165   0.0000       0.699943        19.0464 
 166   0.0000       0.703610        19.1462 
 167   0.0000       0.712687        19.3932 
 168   0.0000       0.714891        19.4532 
 169   0.0000       0.714916        19.4538 
 170   0.0000       0.715381        19.4665 
 171   0.0000       0.718509        19.5516 
 172   0.0000       0.726477        19.7684 
 173   0.0000       0.726492        19.7688 
 174   0.0000       0.730165        19.8688 
 175   0.0000       0.733538        19.9606 
 176   0.0000       0.733555        19.9611 
 177   0.0000       0.757134        20.6027 
 178   0.0000       0.757171        20.6037 
 179   0.0000       0.761146        20.7118 
 180   0.0000       0.768847        20.9214 
 181   0.0000       0.768849        20.9214 
 182   0.0000       0.777136        21.1469 
 183   0.0000       0.784534        21.3483 
 184   0.0000       0.784571        21.3493 
 185   0.0000       0.804172        21.8826 
 186   0.0000       0.805300        21.9133 
 187   0.0000       0.810094        22.0438 
 188   0.0000       0.824741        22.4423 
 189   0.0000       0.824749        22.4426 
 190   0.0000       0.836560        22.7640 
 191   0.0000       0.848155        23.0795 
 192   0.0000       0.848157        23.0795 
 193   0.0000       0.848229        23.0815 
 194   0.0000       0.864840        23.5335 
 195   0.0000       0.864860        23.5340 
 196   0.0000       0.881041        23.9743 
 197   0.0000       0.881060        23.9749 
 198   0.0000       0.885636        24.0994 
 199   0.0000       0.890762        24.2389 
 200   0.0000       0.894837        24.3497 
 201   0.0000       0.894868        24.3506 
 202   0.0000       0.907705        24.6999 
 203   0.0000       0.910937        24.7879 
 204   0.0000       0.910963        24.7886 
 205   0.0000       0.912246        24.8235 
 206   0.0000       0.933141        25.3921 
 207   0.0000       0.934378        25.4257 
 208   0.0000       0.934384        25.4259 
 209   0.0000       0.945729        25.7346 
 210   0.0000       0.945732        25.7347 
 211   0.0000       0.947305        25.7775 
 212   0.0000       0.961528        26.1645 
 213   0.0000       0.961529        26.1645 
 214   0.0000       0.975400        26.5420 
 215   0.0000       0.978609        26.6293 
 216   0.0000       0.978613        26.6294 
 217   0.0000       0.985452        26.8155 
 218   0.0000       0.988096        26.8874 
 219   0.0000       0.988304        26.8931 
 220   0.0000       1.019873        27.7521 
 221   0.0000       1.026586        27.9348 
 222   0.0000       1.026643        27.9364 
 223   0.0000       1.044599        28.4250 
 224   0.0000       1.047112        28.4934 
 225   0.0000       1.047117        28.4935 
 226   0.0000       1.073912        29.2226 
 227   0.0000       1.131315        30.7846 
 228   0.0000       1.131348        30.7855 
 229   0.0000       1.162974        31.6461 
 230   0.0000       1.204440        32.7745 
 231   0.0000       1.204446        32.7747 
 232   0.0000       1.213846        33.0304 
 233   0.0000       1.232471        33.5372 
 234   0.0000       1.251851        34.0646 
 235   0.0000       1.251855        34.0647 
 236   0.0000       1.256108        34.1804 
 237   0.0000       1.279377        34.8136 
 238   0.0000       1.279401        34.8143 
 239   0.0000       1.323717        36.0202 
 240   0.0000       1.323733        36.0206 
 241   0.0000       1.343634        36.5621 
 242   0.0000       1.413248        38.4564 
 243   0.0000       1.445241        39.3270 
 244   0.0000       1.445244        39.3271 
 245   0.0000       1.454289        39.5732 
 246   0.0000       1.458234        39.6806 
 247   0.0000       1.458240        39.6807 
 248   0.0000       1.494411        40.6650 
 249   0.0000       1.508599        41.0511 
 250   0.0000       1.508610        41.0514 
 251   0.0000       1.511894        41.1407 
 252   0.0000       1.547592        42.1121 
 253   0.0000       1.547620        42.1129 
 254   0.0000       1.554222        42.2925 
 255   0.0000       1.622055        44.1384 
 256   0.0000       1.622059        44.1385 
 257   0.0000       1.631348        44.3912 
 258   0.0000       1.645683        44.7813 
 259   0.0000       1.645698        44.7817 
 260   0.0000       1.665081        45.3092 
 261   0.0000       1.669586        45.4318 
 262   0.0000       1.669590        45.4319 
 263   0.0000       1.687610        45.9222 
 264   0.0000       1.687613        45.9223 
 265   0.0000       1.748969        47.5919 
 266   0.0000       1.759715        47.8843 
 267   0.0000       1.759716        47.8843 
 268   0.0000       1.779472        48.4219 
 269   0.0000       1.779481        48.4221 
 270   0.0000       1.780993        48.4633 
 271   0.0000       1.816108        49.4188 
 272   0.0000       1.816110        49.4189 
 273   0.0000       1.830791        49.8184 
 274   0.0000       1.877212        51.0815 
 275   0.0000       1.976589        53.7857 
 276   0.0000       1.976593        53.7858 
 277   0.0000       2.034103        55.3508 
 278   0.0000       2.058989        56.0279 
 279   0.0000       2.082062        56.6558 
 280   0.0000       2.118401        57.6446 
 281   0.0000       2.118413        57.6449 
 282   0.0000       2.140882        58.2564 
 283   0.0000       2.175495        59.1982 
 284   0.0000       2.175499        59.1983 
 285   0.0000       2.182265        59.3824 
 286   0.0000       2.230352        60.6910 
 287   0.0000       2.230355        60.6911 
 288   0.0000       2.344905        63.8081 
 289   0.0000       2.370280        64.4986 
 290   0.0000       2.370303        64.4992 
 291   0.0000       2.386420        64.9378 
 292   0.0000       2.386425        64.9379 
 293   0.0000       2.510769        68.3215 
 294   0.0000       2.542039        69.1724 
 295   0.0000       2.579544        70.1930 
 296   0.0000       2.657348        72.3101 
 297   0.0000       2.661975        72.4360 
 298   0.0000       2.661977        72.4361 
 299   0.0000       2.712934        73.8227 
 300   0.0000       2.712971        73.8237 
 301   0.0000       2.731082        74.3165 
 302   0.0000       2.817634        76.6717 
 303   0.0000       2.817634        76.6717 
 304   0.0000       2.914152        79.2981 
 305   0.0000       2.917720        79.3952 
 306   0.0000       2.917727        79.3954 
 307   0.0000       2.917973        79.4021 
 308   0.0000       2.980655        81.1077 
 309   0.0000       2.980665        81.1080 
 310   0.0000       3.050753        83.0152 
 311   0.0000       3.053686        83.0950 
 312   0.0000       3.134853        85.3037 
 313   0.0000       3.134859        85.3039 
 314   0.0000       3.160772        86.0090 
 315   0.0000       3.187992        86.7497 
 316   0.0000       3.187994        86.7497 
 317   0.0000       3.243146        88.2505 
 318   0.0000       3.243162        88.2509 
 319   0.0000       3.282198        89.3132 
 320   0.0000       3.309408        90.0536 
 321   0.0000       3.392969        92.3274 
 322   0.0000       3.392975        92.3275 
 323   0.0000       3.465031        94.2883 
 324   0.0000       3.465047        94.2887 
 325   0.0000       3.481074        94.7248 
 326   0.0000       3.481076        94.7249 
 327   0.0000       3.512498        95.5799 
 328   0.0000       3.562237        96.9334 
 329   0.0000       3.562244        96.9336 
 330   0.0000       3.605395        98.1078 
 331   0.0000       3.630679        98.7958 
 332   0.0000       3.724800       101.3569 
 333   0.0000       3.724814       101.3573 
 334   0.0000       3.744966       101.9057 
 335   0.0000       3.779309       102.8402 
 336   0.0000       3.779318       102.8405 
 337   0.0000       3.829909       104.2171 
 338   0.0000       3.858321       104.9903 
 339   0.0000       3.858323       104.9903 
 340   0.0000       3.902281       106.1865 
 341   0.0000       3.903988       106.2329 
 342   0.0000       3.956815       107.6704 
 343   0.0000       3.956832       107.6709 
 344   0.0000       3.988918       108.5440 
 345   0.0000       3.988925       108.5442 
 346   0.0000       4.045260       110.0771 
 347   0.0000       4.045271       110.0774 
 348   0.0000       4.047608       110.1410 
 349   0.0000       4.104747       111.6958 
 350   0.0000       4.163075       113.2830 
 351   0.0000       4.163083       113.2832 
 352   0.0000       4.170811       113.4935 
 353   0.0000       4.197498       114.2197 
 354   0.0000       4.229955       115.1029 
 355   0.0000       4.268220       116.1442 
 356   0.0000       4.268224       116.1443 
 357   0.0000       4.311224       117.3144 
 358   0.0000       4.311241       117.3148 
 359   0.0000       4.332757       117.9003 
 360   0.0000       4.358851       118.6104 
 361   0.0000       4.358864       118.6107 
 362   0.0000       4.449400       121.0743 
 363   0.0000       4.452217       121.1510 
 364   0.0000       4.473394       121.7272 
 365   0.0000       4.473413       121.7277 
 366   0.0000       4.685490       127.4987 
 367   0.0000       4.685504       127.4991 
 368   0.0000       4.780420       130.0819 
 369   0.0000       4.780427       130.0820 
 370   0.0000       4.837260       131.6285 
 371   0.0000       4.837273       131.6289 
 372   0.0000       4.862279       132.3093 
 373   0.0000       4.895113       133.2028 
 374   0.0000       5.009781       136.3231 
 375   0.0000       5.035005       137.0094 
 376   0.0000       5.035040       137.0104 
 377   0.0000       5.061990       137.7438 
 378   0.0000       5.194297       141.3440 
 379   0.0000       5.220065       142.0452 
 380   0.0000       5.220082       142.0457 
 381   0.0000       5.384811       146.5281 
 382   0.0000       5.409173       147.1911 
 383   0.0000       5.455246       148.4448 
 384   0.0000       5.455269       148.4454 
 385   0.0000       5.544221       150.8659 
 386   0.0000       5.544244       150.8665 
 387   0.0000       5.653539       153.8406 
 388   0.0000       5.653557       153.8411 
 389   0.0000       5.767823       156.9504 
 390   0.0000       5.887721       160.2130 
 391   0.0000       5.887747       160.2137 
 392   0.0000       5.912325       160.8825 
 393   0.0000       6.041355       164.3936 
 394   0.0000       6.182898       168.2452 
 395   0.0000       6.182909       168.2455 
 396   0.0000       6.217328       169.1821 
 397   0.0000       6.217354       169.1828 
 398   0.0000       6.339542       172.5077 
 399   0.0000       6.378730       173.5741 
 400   0.0000       6.393718       173.9819 
 401   0.0000       6.393730       173.9822 
 402   0.0000       6.469100       176.0332 
 403   0.0000       6.565342       178.6520 
 404   0.0000       6.565362       178.6526 
 405   0.0000       6.778924       184.4639 
 406   0.0000       6.778941       184.4644 
 407   0.0000       7.053217       191.9278 
 408   0.0000       8.120253       220.9633 
 409   0.0000       8.120254       220.9634 
 410   0.0000       8.367552       227.6927 
 411   0.0000       8.513136       231.6542 
 412   0.0000       8.648273       235.3315 
 413   0.0000       8.648291       235.3320 
 414   0.0000       8.706359       236.9121 
 415   0.0000       8.706365       236.9122 
 416   0.0000       8.746009       237.9910 
 417   0.0000       8.849490       240.8069 
 418   0.0000       8.849510       240.8074 
 419   0.0000       8.898809       242.1489 
 420   0.0000       8.898818       242.1491 
 421   0.0000       8.904881       242.3141 
 422   0.0000       9.013621       245.2731 
 423   0.0000       9.035264       245.8620 
 424   0.0000       9.035281       245.8625 
 425   0.0000       9.065692       246.6900 
 426   0.0000       9.065714       246.6906 
 427   0.0000       9.132969       248.5207 
 428   0.0000       9.133019       248.5221 
 429   0.0000       9.162539       249.3254 
 430   0.0000       9.193459       250.1667 
 431   0.0000       9.298623       253.0284 
 432   0.0000       9.306662       253.2472 
 433   0.0000       9.306674       253.2475 
 434   0.0000       9.457909       257.3628 
 435   0.0000       9.457925       257.3632 
 436   0.0000       9.547106       259.7900 
 437   0.0000       9.622721       261.8475 
 438   0.0000       9.622739       261.8480 
 439   0.0000       9.809967       266.9428 
 440   0.0000       9.898266       269.3455 
 441   0.0000       9.898291       269.3462 
 442   0.0000       9.984436       271.6903 
 443   0.0000      10.048617       273.4368 
 444   0.0000      10.078718       274.2559 
 445   0.0000      10.078738       274.2564 
 446   0.0000      10.142065       275.9796 
 447   0.0000      10.196473       277.4601 
 448   0.0000      10.196487       277.4605 
 449   0.0000      10.198998       277.5289 
 450   0.0000      10.253863       279.0218 
 451   0.0000      10.253896       279.0227 
 452   0.0000      10.394441       282.8471 
 453   0.0000      10.394506       282.8489 
 454   0.0000      10.685637       290.7710 
 455   0.0000      10.743164       292.3363 
 456   0.0000      10.755593       292.6746 
 457   0.0000      10.755626       292.6755 
 458   0.0000      10.902776       296.6796 
 459   0.0000      10.902797       296.6802 
 460   0.0000      10.968075       298.4565 
 461   0.0000      11.185469       304.3721 
 462   0.0000      11.185540       304.3740 
 463   0.0000      11.354789       308.9795 
 464   0.0000      11.411052       310.5105 
 465   0.0000      11.428051       310.9731 
 466   0.0000      11.428081       310.9739 
 467   0.0000      11.560318       314.5722 
 468   0.0000      11.560362       314.5734 
 469   0.0000      11.565274       314.7071 
 470   0.0000      11.933831       324.7360 
 471   0.0000      11.971390       325.7581 
 472   0.0000      11.971402       325.7584 
 473   0.0000      11.993517       326.3602 
 474   0.0000      12.503498       340.2375 
 475   0.0000      12.553134       341.5881 
 476   0.0000      12.553202       341.5900 
 477   0.0000      12.582257       342.3806 
 478   0.0000      12.705722       345.7403 
 479   0.0000      12.705738       345.7407 
 480   0.0000      12.707784       345.7964 
 481   0.0000      12.779886       347.7584 
 482   0.0000      12.822919       348.9294 
 483   0.0000      12.852402       349.7316 
 484   0.0000      12.852418       349.7321 
 485   0.0000      13.038024       354.7827 
 486   0.0000      13.038066       354.7838 
 487   0.0000      13.045463       354.9851 
 488   0.0000      13.120082       357.0156 
 489   0.0000      13.166946       358.2908 
 490   0.0000      13.167014       358.2927 
 491   0.0000      13.203567       359.2873 
 492   0.0000      13.203584       359.2878 
 493   0.0000      13.422214       365.2370 
 494   0.0000      13.422265       365.2384 
 495   0.0000      13.526427       368.0728 
 496   0.0000      13.655963       371.5976 
 497   0.0000      13.656412       371.6099 
 498   0.0000      13.661428       371.7464 
 499   0.0000      13.661429       371.7464 
 500   0.0000      14.257956       387.9787 
 501   0.0000      14.269005       388.2794 
 502   0.0000      14.269151       388.2833 
 503   0.0000      14.713533       400.3756 
 504   0.0000      14.789626       402.4462 
 505   0.0000      14.789652       402.4469 
 506   0.0000      15.867208       431.7687 
 507   0.0000      15.867395       431.7738 
 508   0.0000      16.281754       443.0491 
 509   0.0000      16.778533       456.5671 
 510   0.0000      16.826228       457.8649 
 511   0.0000      16.840389       458.2503 
 512   0.0000      16.840426       458.2513 
 513   0.0000      16.845296       458.3838 
 514   0.0000      16.845379       458.3861 
 515   0.0000      16.864254       458.8997 
 516   0.0000      16.864285       458.9005 
 517   0.0000      16.864649       458.9104 
 518   0.0000      17.004080       462.7045 
 519   0.0000      17.004132       462.7059 
 520   0.0000      17.058153       464.1759 
 521   0.0000      17.058190       464.1770 
 522   0.0000      17.090218       465.0485 
 523   0.0000      17.101358       465.3516 
 524   0.0000      17.181274       467.5262 
 525   0.0000      17.582561       478.4458 
 526   0.0000      17.645530       480.1593 
 527   0.0000      17.645579       480.1606 
 528   0.0000      17.773664       483.6460 
 529   0.0000      17.812274       484.6966 
 530   0.0000      17.812307       484.6975 
 531   0.0000      18.065716       491.5931 
 532   0.0000      18.065726       491.5934 
 533   0.0000      18.850501       512.9482 
 534   0.0000      18.854439       513.0554 
 535   0.0000      18.854452       513.0557 
 536   0.0000      19.156619       521.2781 
 537   0.0000      19.275776       524.5205 
 538   0.0000      19.275941       524.5250 
 539   0.0000      19.407291       528.0992 
 540   0.0000      19.597870       533.2852 
 541   0.0000      19.597896       533.2859 
 542   0.0000      19.636384       534.3332 
 543   0.0000      19.753231       537.5127 
 544   0.0000      19.753277       537.5140 
 545   0.0000      21.170834       576.0877 
 546   0.0000      21.243931       578.0767 
 547   0.0000      21.243936       578.0769 
 548   0.0000      22.586959       614.6224 
 549   0.0000      22.681189       617.1865 
 550   0.0000      22.681287       617.1892 
 551   0.0000      23.518246       639.9640 
 552   0.0000      23.625968       642.8953 
 553   0.0000      23.625991       642.8959 
 554   0.0000      23.727009       645.6447 
 555   0.0000      23.727028       645.6453 
 556   0.0000      23.872094       649.5927 
 557   0.0000      23.872113       649.5932 
 558   0.0000      23.894801       650.2106 
 559   0.0000      24.635811       670.3745 
 560   0.0000      24.921183       678.1399 
 561   0.0000      24.921320       678.1436 
 562   0.0000      25.238504       686.7746 
 563   0.0000      40.800156      1110.2287 
 564   0.0000      40.815371      1110.6427 
 565   0.0000      40.815403      1110.6436 
 566   0.0000      41.059680      1117.2907 
 567   0.0000      80.428930      2188.5824 
 568   0.0000      91.101694      2479.0031 
 569   0.0000      91.171990      2480.9160 
 570   0.0000      91.172001      2480.9163 
 571   0.0000      91.243601      2482.8646 
 572   0.0000      91.243613      2482.8649 
 573   0.0000      91.349465      2485.7453 
 574   0.0000      91.349470      2485.7455 
 575   0.0000      91.362529      2486.1008 
 576   0.0000      91.853421      2499.4587 
 577   0.0000      92.068891      2505.3219 
 578   0.0000      92.068976      2505.3242 
 579   0.0000      92.279961      2511.0654 

                    ********************************
                    * MULLIKEN POPULATION ANALYSIS *
                    ********************************

--------------------------------------------
MULLIKEN ATOMIC CHARGES AND SPIN POPULATIONS
--------------------------------------------
   0 Li:    0.637030   -0.000000
   1 B :   -0.784805   -0.000000
   2 H :   -0.008396    0.000000
   3 H :    0.051038   -0.000000
   4 H :    0.053146   -0.000000
   5 H :    0.051988    0.000000
Sum of atomic charges         :    0.0000000
Sum of atomic spin populations:    0.0000000

-----------------------------------------------------
MULLIKEN REDUCED ORBITAL CHARGES AND SPIN POPULATIONS
-----------------------------------------------------
CHARGE
  0 Lis       :     1.918180  s :     1.918180
      pz      :     0.067459  p :     0.369647
      px      :     0.151093
      py      :     0.151094
      dz2     :     0.003541  d :     0.067905
      dxz     :     0.030446
      dyz     :     0.030445
      dx2y2   :     0.001737
      dxy     :     0.001736
      f0      :    -0.000948  f :     0.007053
      f+1     :     0.003462
      f-1     :     0.003462
      f+2     :     0.000541
      f-2     :     0.000541
      f+3     :    -0.000000
      f-3     :    -0.000005
      g0      :    -0.000183  g :     0.000185
      g+1     :     0.000162
      g-1     :     0.000162
      g+2     :     0.000016
      g-2     :     0.000016
      g+3     :    -0.000000
      g-3     :     0.000002
      g+4     :     0.000004
      g-4     :     0.000004
  1 B s       :     3.315089  s :     3.315089
      pz      :     0.952199  p :     2.374423
      px      :     0.711105
      py      :     0.711119
      dz2     :     0.028686  d :     0.087362
      dxz     :     0.022233
      dyz     :     0.022233
      dx2y2   :     0.007105
      dxy     :     0.007105
      f0      :     0.005021  f :     0.007411
      f+1     :    -0.000917
      f-1     :    -0.000917
      f+2     :     0.000807
      f-2     :     0.000806
      f+3     :     0.000000
      f-3     :     0.002612
      g0      :     0.000038  g :     0.000602
      g+1     :     0.000063
      g-1     :     0.000063
      g+2     :    -0.000040
      g-2     :    -0.000040
      g+3     :     0.000000
      g-3     :     0.000346
      g+4     :     0.000087
      g-4     :     0.000087
      h0      :    -0.000050  h :    -0.000083
      h+1     :    -0.000035
      h-1     :    -0.000035
      h+2     :     0.000003
      h-2     :     0.000003
      h+3     :     0.000000
      h-3     :    -0.000010
      h+4     :     0.000013
      h-4     :     0.000013
      h+5     :     0.000007
      h-5     :     0.000007
  2 H s       :     0.815113  s :     0.815113
      pz      :     0.044293  p :     0.174330
      px      :     0.065031
      py      :     0.065007
      dz2     :     0.002613  d :     0.017275
      dxz     :     0.002751
      dyz     :     0.002744
      dx2y2   :     0.004584
      dxy     :     0.004583
      f0      :    -0.002994  f :     0.001369
      f+1     :     0.000227
      f-1     :     0.000224
      f+2     :     0.001707
      f-2     :     0.001707
      f+3     :     0.000000
      f-3     :     0.000497
      g0      :    -0.000229  g :     0.000309
      g+1     :    -0.000096
      g-1     :    -0.000096
      g+2     :     0.000257
      g-2     :     0.000257
      g+3     :     0.000000
      g-3     :     0.000201
      g+4     :     0.000008
      g-4     :     0.000008
  3 H s       :     1.024544  s :     1.024544
      pz      :    -0.011563  p :     0.009575
      px      :    -0.014040
      py      :     0.035178
      dz2     :    -0.017587  d :    -0.068260
      dxz     :     0.000498
      dyz     :    -0.021325
      dx2y2   :    -0.004336
      dxy     :    -0.025511
      f0      :    -0.000253  f :    -0.016176
      f+1     :    -0.000550
      f-1     :    -0.006329
      f+2     :    -0.002059
      f-2     :     0.000133
      f+3     :    -0.005857
      f-3     :    -0.001260
      g0      :    -0.000092  g :    -0.000720
      g+1     :     0.000013
      g-1     :     0.000244
      g+2     :    -0.000386
      g-2     :    -0.000093
      g+3     :     0.000025
      g-3     :    -0.000082
      g+4     :     0.000026
      g-4     :    -0.000376
  4 H s       :     1.022949  s :     1.022949
      pz      :    -0.011704  p :     0.009096
      px      :     0.022660
      py      :    -0.001859
      dz2     :    -0.017569  d :    -0.068291
      dxz     :    -0.015886
      dyz     :    -0.004967
      dx2y2   :    -0.020223
      dxy     :    -0.009647
      f0      :    -0.000253  f :    -0.016179
      f+1     :    -0.004880
      f-1     :    -0.001995
      f+2     :    -0.000416
      f-2     :    -0.001515
      f+3     :    -0.005859
      f-3     :    -0.001261
      g0      :    -0.000092  g :    -0.000721
      g+1     :     0.000186
      g-1     :     0.000071
      g+2     :    -0.000166
      g-2     :    -0.000313
      g+3     :     0.000025
      g-3     :    -0.000082
      g+4     :    -0.000276
      g-4     :    -0.000074
  5 H s       :     1.023777  s :     1.023777
      pz      :    -0.011690  p :     0.009399
      px      :     0.022818
      py      :    -0.001729
      dz2     :    -0.017579  d :    -0.068266
      dxz     :    -0.015884
      dyz     :    -0.004966
      dx2y2   :    -0.020221
      dxy     :    -0.009616
      f0      :    -0.000253  f :    -0.016177
      f+1     :    -0.004881
      f-1     :    -0.001995
      f+2     :    -0.000416
      f-2     :    -0.001514
      f+3     :    -0.005858
      f-3     :    -0.001260
      g0      :    -0.000092  g :    -0.000721
      g+1     :     0.000186
      g-1     :     0.000071
      g+2     :    -0.000166
      g-2     :    -0.000313
      g+3     :     0.000025
      g-3     :    -0.000082
      g+4     :    -0.000276
      g-4     :    -0.000074

SPIN
  0 Lis       :    -0.000000  s :    -0.000000
      pz      :    -0.000000  p :    -0.000000
      px      :    -0.000000
      py      :     0.000000
      dz2     :    -0.000000  d :    -0.000000
      dxz     :    -0.000000
      dyz     :     0.000000
      dx2y2   :     0.000000
      dxy     :     0.000000
      f0      :    -0.000000  f :    -0.000000
      f+1     :    -0.000000
      f-1     :     0.000000
      f+2     :     0.000000
      f-2     :     0.000000
      f+3     :     0.000000
      f-3     :    -0.000000
      g0      :    -0.000000  g :    -0.000000
      g+1     :    -0.000000
      g-1     :     0.000000
      g+2     :    -0.000000
      g-2     :     0.000000
      g+3     :     0.000000
      g-3     :     0.000000
      g+4     :     0.000000
      g-4     :    -0.000000
  1 B s       :    -0.000000  s :    -0.000000
      pz      :    -0.000000  p :    -0.000000
[...]
      g0      :     0.000000  g :     0.000000
      g+1     :     0.000000
      g-1     :    -0.000000
      g+2     :    -0.000000
      g-2     :     0.000000
      g+3     :     0.000000
      g-3     :     0.000000
      g+4     :     0.000000
      g-4     :    -0.000000
  5 H s       :     0.000000  s :     0.000000
      pz      :    -0.000000  p :     0.000000
      px      :     0.000000
      py      :     0.000000
      dz2     :    -0.000000  d :    -0.000000
      dxz     :     0.000000
      dyz     :     0.000000
      dx2y2   :     0.000000
      dxy     :     0.000000
      f0      :     0.000000  f :    -0.000000
      f+1     :    -0.000000
      f-1     :    -0.000000
      f+2     :     0.000000
      f-2     :     0.000000
      f+3     :    -0.000000
      f-3     :     0.000000
      g0      :    -0.000000  g :    -0.000000
      g+1     :     0.000000
      g-1     :    -0.000000
      g+2     :    -0.000000
      g-2     :    -0.000000
      g+3     :    -0.000000
      g-3     :    -0.000000
      g+4     :    -0.000000
      g-4     :     0.000000


                     *******************************
                     * LOEWDIN POPULATION ANALYSIS *
                     *******************************

-------------------------------------------
LOEWDIN ATOMIC CHARGES AND SPIN POPULATIONS
-------------------------------------------
   0 Li:    0.352288   -0.000000
   1 B :    0.685291   -0.000000
   2 H :   -0.270520   -0.000000
   3 H :   -0.255678    0.000000
   4 H :   -0.255690    0.000000
   5 H :   -0.255690    0.000000

----------------------------------------------------
LOEWDIN REDUCED ORBITAL CHARGES AND SPIN POPULATIONS
----------------------------------------------------
CHARGE
  0 Lis       :     1.960315  s :     1.960315
      pz      :     0.165235  p :     0.350482
      px      :     0.092622
      py      :     0.092625
      dz2     :     0.058664  d :     0.217116
      dxz     :     0.074455
      dyz     :     0.074453
      dx2y2   :     0.004773
      dxy     :     0.004772
      f0      :     0.016535  f :     0.105381
      f+1     :     0.037122
      f-1     :     0.037120
      f+2     :     0.006637
      f-2     :     0.006636
      f+3     :     0.000000
      f-3     :     0.001330
      g0      :     0.005535  g :     0.014418
      g+1     :     0.003057
      g-1     :     0.003057
      g+2     :     0.001090
      g-2     :     0.001090
      g+3     :     0.000000
      g-3     :     0.000525
      g+4     :     0.000031
      g-4     :     0.000031
  1 B s       :     2.296072  s :     2.296072
      pz      :     0.643800  p :     1.713626
      px      :     0.534919
      py      :     0.534907
      dz2     :     0.070625  d :     0.247503
      dxz     :     0.045072
      dyz     :     0.045069
      dx2y2   :     0.043373
      dxy     :     0.043365
      f0      :     0.019725  f :     0.049840
      f+1     :     0.000369
      f-1     :     0.000369
      f+2     :     0.009859
      f-2     :     0.009858
      f+3     :     0.000000
      f-3     :     0.009660
      g0      :     0.002343  g :     0.006450
      g+1     :     0.000691
      g-1     :     0.000691
      g+2     :     0.000024
      g-2     :     0.000024
      g+3     :     0.000000
      g-3     :     0.001515
      g+4     :     0.000582
      g-4     :     0.000582
      h0      :     0.000734  h :     0.001216
      h+1     :     0.000080
      h-1     :     0.000080
      h+2     :     0.000023
      h-2     :     0.000023
      h+3     :     0.000000
      h-3     :     0.000164
      h+4     :     0.000028
      h-4     :     0.000028
      h+5     :     0.000028
      h-5     :     0.000028
  2 H s       :     0.688496  s :     0.688496
      pz      :     0.115132  p :     0.238854
      px      :     0.061860
      py      :     0.061861
      dz2     :     0.056279  d :     0.202209
      dxz     :     0.071205
      dyz     :     0.071205
      dx2y2   :     0.001760
      dxy     :     0.001760
      f0      :     0.017750  f :     0.098994
      f+1     :     0.036157
      f-1     :     0.036156
      f+2     :     0.004221
      f-2     :     0.004220
      f+3     :     0.000000
      f-3     :     0.000489
      g0      :     0.005137  g :     0.041967
      g+1     :     0.013398
      g-1     :     0.013397
      g+2     :     0.004472
      g-2     :     0.004471
      g+3     :     0.000000
      g-3     :     0.001028
      g+4     :     0.000032
      g-4     :     0.000032
  3 H s       :     0.639491  s :     0.639491
      pz      :     0.082634  p :     0.273041
      px      :     0.074494
      py      :     0.115913
      dz2     :     0.044023  d :     0.212822
      dxz     :     0.000771
      dyz     :     0.059981
      dx2y2   :     0.035014
      dxy     :     0.073033
      f0      :     0.001186  f :     0.092206
      f+1     :     0.001081
      f-1     :     0.038743
      f+2     :     0.013902
      f-2     :     0.000470
      f+3     :     0.032248
      f-3     :     0.004575
      g0      :     0.003961  g :     0.038120
      g+1     :     0.000132
      g-1     :     0.003776
      g+2     :     0.014282
      g-2     :     0.001317
      g+3     :     0.000078
      g-3     :     0.003526
      g+4     :     0.000689
      g-4     :     0.010358
  4 H s       :     0.639494  s :     0.639494
      pz      :     0.082637  p :     0.273046
      px      :     0.105557
      py      :     0.084851
      dz2     :     0.044024  d :     0.212824
      dxz     :     0.045181
      dyz     :     0.015571
      dx2y2   :     0.063527
      dxy     :     0.044521
      f0      :     0.001186  f :     0.092206
      f+1     :     0.029329
      f-1     :     0.010496
      f+2     :     0.003829
      f-2     :     0.010543
      f+3     :     0.032248
      f-3     :     0.004575
      g0      :     0.003960  g :     0.038119
      g+1     :     0.002866
      g-1     :     0.001043
      g+2     :     0.004559
      g-2     :     0.011040
      g+3     :     0.000078
      g-3     :     0.003526
      g+4     :     0.007942
      g-4     :     0.003106
  5 H s       :     0.639494  s :     0.639494
      pz      :     0.082637  p :     0.273046
      px      :     0.105557
      py      :     0.084851
      dz2     :     0.044024  d :     0.212824
      dxz     :     0.045181
      dyz     :     0.015571
      dx2y2   :     0.063527
      dxy     :     0.044521
      f0      :     0.001186  f :     0.092206
      f+1     :     0.029329
      f-1     :     0.010496
      f+2     :     0.003829
      f-2     :     0.010543
      f+3     :     0.032248
      f-3     :     0.004575
      g0      :     0.003960  g :     0.038119
      g+1     :     0.002866
      g-1     :     0.001043
      g+2     :     0.004559
      g-2     :     0.011040
      g+3     :     0.000078
      g-3     :     0.003526
      g+4     :     0.007942
      g-4     :     0.003106

SPIN
  0 Lis       :    -0.000000  s :    -0.000000
      pz      :    -0.000000  p :    -0.000000
      px      :     0.000000
      py      :    -0.000000
      dz2     :    -0.000000  d :    -0.000000
      dxz     :    -0.000000
      dyz     :    -0.000000
      dx2y2   :    -0.000000
      dxy     :     0.000000
      f0      :     0.000000  f :     0.000000
      f+1     :     0.000000
      f-1     :     0.000000
      f+2     :    -0.000000
      f-2     :    -0.000000
      f+3     :    -0.000000
      f-3     :     0.000000
      g0      :     0.000000  g :     0.000000
      g+1     :    -0.000000
      g-1     :     0.000000
      g+2     :    -0.000000
      g-2     :    -0.000000
      g+3     :     0.000000
      g-3     :     0.000000
      g+4     :    -0.000000
      g-4     :     0.000000
  1 B s       :     0.000000  s :     0.000000
      pz      :    -0.000000  p :    -0.000000
      px      :     0.000000
      py      :     0.000000
      dz2     :     0.000000  d :    -0.000000
      dxz     :    -0.000000
      dyz     :    -0.000000
      dx2y2   :     0.000000
      dxy     :    -0.000000
      f0      :     0.000000  f :     0.000000
      f+1     :    -0.000000
      f-1     :     0.000000
      f+2     :    -0.000000
      f-2     :    -0.000000
      f+3     :    -0.000000
      f-3     :    -0.000000
      g0      :    -0.000000  g :    -0.000000
      g+1     :    -0.000000
      g-1     :     0.000000
      g+2     :     0.000000
      g-2     :    -0.000000
      g+3     :     0.000000
      g-3     :     0.000000
      g+4     :     0.000000
      g-4     :    -0.000000
      h0      :    -0.000000  h :    -0.000000
      h+1     :    -0.000000
      h-1     :    -0.000000
      h+2     :    -0.000000
      h-2     :    -0.000000
      h+3     :    -0.000000
      h-3     :    -0.000000
      h+4     :    -0.000000
      h-4     :     0.000000
      h+5     :    -0.000000
      h-5     :    -0.000000
  2 H s       :     0.000000  s :     0.000000
      pz      :    -0.000000  p :     0.000000
      px      :     0.000000
      py      :     0.000000
      dz2     :    -0.000000  d :    -0.000000
      dxz     :    -0.000000
      dyz     :     0.000000
      dx2y2   :    -0.000000
      dxy     :     0.000000
      f0      :     0.000000  f :     0.000000
      f+1     :    -0.000000
      f-1     :    -0.000000
      f+2     :    -0.000000
      f-2     :     0.000000
      f+3     :     0.000000
      f-3     :     0.000000
      g0      :     0.000000  g :    -0.000000
      g+1     :    -0.000000
      g-1     :    -0.000000
      g+2     :     0.000000
      g-2     :    -0.000000
      g+3     :     0.000000
      g-3     :     0.000000
      g+4     :    -0.000000
      g-4     :     0.000000
  3 H s       :    -0.000000  s :    -0.000000
      pz      :     0.000000  p :     0.000000
      px      :     0.000000
      py      :     0.000000
      dz2     :    -0.000000  d :     0.000000
      dxz     :     0.000000
      dyz     :    -0.000000
      dx2y2   :     0.000000
      dxy     :     0.000000
      f0      :     0.000000  f :     0.000000
      f+1     :    -0.000000
      f-1     :    -0.000000
      f+2     :     0.000000
      f-2     :     0.000000
      f+3     :    -0.000000
      f-3     :     0.000000
      g0      :    -0.000000  g :    -0.000000
      g+1     :    -0.000000
      g-1     :    -0.000000
      g+2     :    -0.000000
      g-2     :    -0.000000
      g+3     :     0.000000
      g-3     :    -0.000000
      g+4     :     0.000000
      g-4     :    -0.000000
  4 H s       :     0.000000  s :     0.000000
      pz      :     0.000000  p :     0.000000
      px      :     0.000000
      py      :     0.000000
      dz2     :    -0.000000  d :     0.000000
      dxz     :     0.000000
      dyz     :    -0.000000
      dx2y2   :     0.000000
      dxy     :     0.000000
      f0      :     0.000000  f :     0.000000
      f+1     :     0.000000
      f-1     :     0.000000
      f+2     :     0.000000
      f-2     :     0.000000
      f+3     :    -0.000000
      f-3     :    -0.000000
      g0      :    -0.000000  g :    -0.000000
      g+1     :    -0.000000
      g-1     :     0.000000
      g+2     :    -0.000000
      g-2     :    -0.000000
      g+3     :     0.000000
      g-3     :    -0.000000
      g+4     :    -0.000000
      g-4     :    -0.000000
  5 H s       :     0.000000  s :     0.000000
      pz      :     0.000000  p :    -0.000000
      px      :    -0.000000
      py      :    -0.000000
      dz2     :    -0.000000  d :     0.000000
      dxz     :    -0.000000
      dyz     :    -0.000000
      dx2y2   :     0.000000
      dxy     :     0.000000
      f0      :     0.000000  f :     0.000000
      f+1     :    -0.000000
      f-1     :     0.000000
      f+2     :     0.000000
      f-2     :     0.000000
      f+3     :    -0.000000
      f-3     :    -0.000000
      g0      :    -0.000000  g :    -0.000000
      g+1     :    -0.000000
      g-1     :    -0.000000
      g+2     :    -0.000000
      g-2     :    -0.000000
      g+3     :     0.000000
      g-3     :    -0.000000
      g+4     :     0.000000
      g-4     :    -0.000000


                      *****************************
                      * MAYER POPULATION ANALYSIS *
                      *****************************

  NA   - Mulliken gross atomic population
  ZA   - Total nuclear charge
  QA   - Mulliken gross atomic charge
  VA   - Mayer's total valence
  BVA  - Mayer's bonded valence
  FA   - Mayer's free valence

  ATOM       NA         ZA         QA         VA         BVA        FA
  0 Li     2.3630     3.0000     0.6370     0.9328     0.9328    -0.0000
  1 B      5.7848     5.0000    -0.7848     3.8799     3.8799     0.0000
  2 H      1.0084     1.0000    -0.0084     1.1469     1.1469     0.0000
  3 H      0.9490     1.0000     0.0510     0.8931     0.8931     0.0000
  4 H      0.9469     1.0000     0.0531     0.8900     0.8900     0.0000
  5 H      0.9480     1.0000     0.0520     0.8918     0.8918    -0.0000

  Mayer bond orders larger than 0.1
B(  0-Li,  1-B ) :   0.4218 B(  0-Li,  3-H ) :   0.1399 B(  0-Li,  4-H ) :   0.1401 
B(  0-Li,  5-H ) :   0.1397 B(  1-B ,  2-H ) :   0.9923 B(  1-B ,  3-H ) :   0.8233 
B(  1-B ,  4-H ) :   0.8204 B(  1-B ,  5-H ) :   0.8220 

-------
TIMINGS
-------

Total SCF time: 0 days 0 hours 52 min 54 sec 

Total time                  ....    3174.977 sec
Sum of individual times     ....    3173.200 sec  ( 99.9%)

Fock matrix formation       ....    3155.528 sec  ( 99.4%)
  XC integration            ....     123.740 sec  (  3.9% of F)
    Basis function eval.    ....       6.277 sec  (  5.1% of XC)
    Density eval.           ....      37.592 sec  ( 30.4% of XC)
    XC-Functional eval.     ....       0.617 sec  (  0.5% of XC)
    XC-Potential eval.      ....      76.572 sec  ( 61.9% of XC)
Diagonalization             ....       4.521 sec  (  0.1%)
Density matrix formation    ....       0.071 sec  (  0.0%)
Population analysis         ....       0.404 sec  (  0.0%)
Initial guess               ....       4.235 sec  (  0.1%)
Orbital Transformation      ....       0.000 sec  (  0.0%)
Orbital Orthonormalization  ....       0.000 sec  (  0.0%)
DIIS solution               ....       5.851 sec  (  0.2%)
Grid generation             ....       2.590 sec  (  0.1%)

-------------------------   --------------------
FINAL SINGLE POINT ENERGY       -34.717187668984
-------------------------   --------------------


                            ***************************************
                            *     ORCA property calculations      *
                            ***************************************

                                    ---------------------
                                    Active property flags
                                    ---------------------
   (+) Dipole Moment
   (+) Polarizability


------------------------------------------------------------------------------
                       ORCA ELECTRIC PROPERTIES CALCULATION
------------------------------------------------------------------------------

Dipole Moment Calculation                       ... on
Quadrupole Moment Calculation                   ... off
Polarizability Calculation                      ... Analytic (CP-SCF)
GBWName                                         ... libh4_pbe.gbw
Electron density file                           ... libh4_pbe.scfp.tmp
The origin for moment calculation is the CENTER OF MASS  = ( 0.000000,  0.000009 -0.232425)

-------------
DIPOLE MOMENT
-------------
                                X             Y             Z
Electronic contribution:      0.00000      -0.00012      -5.12907
Nuclear contribution   :      0.00000       0.00008       2.78910
                        -----------------------------------------
Total Dipole Moment    :      0.00000      -0.00003      -2.33997
                        -----------------------------------------
Magnitude (a.u.)       :      2.33997
Magnitude (Debye)      :      5.94774



--------------------
Rotational spectrum 
--------------------
 
Rotational constants in cm-1:     4.285861     0.783971     0.783967 
Rotational constants in MHz : 128486.884382 23502.848984 23502.731923 

 Dipole components along the rotational axes: 
x,y,z [a.u.] :     2.339972     0.000000     0.000033 
x,y,z [Debye]:     5.947736     0.000000     0.000084 

 
Transforming and storing MO dipole integrals   ... done

                ... starting polarizability calculation

Opening the Dipole integral file               ... (libh4_pbe.dmo.tmp) done
Reading Dipole-MO integrals                    ... done
Solving CP-SCF equations                       ... 

           ************************************************************
           *        Program running with 4 parallel MPI-processes     *
           *              working on a common directory               *
           ************************************************************

------------------------------------------------------------------------------
                           ORCA CP-SCF CALCULATION
------------------------------------------------------------------------------

Input orbitals are from        ... libh4_pbe.gbw
Input Perturbation             ... libh4_pbe.cpv.tmp
Wavefunction output            ... libh4_pbe.cpu.tmp
Perturbation mode              ... Real perturbation (singlet)
Solver                         ... POPLE
Max. number of iterations      ... 200
Convergence tolerance          ... 1.000e-06
Integral handling              ... Direct
Number of perturbations        ... 3
Number of operators            ... 2
Orbital ranges used for CP-SCF:
 Operator 0:  Orbitals   0...  5  to   6...579
 Operator 1:  Orbitals   0...  5  to   6...579
DFT calculation                         ... on
Exchange functional (SCF)               ... PBE
Exchange functional (CP-SCF)            ... PBE
   PBE kappa parameter  XKappa (SCF)    ...  0.804000
   PBE kappa parameter  XKappa (CP-SCF) ...  0.804000
   PBE mue parameter   XMuePBE (SCF)    ...  0.219520
   PBE mue parameter   XMuePBE (CP-SCF) ...  0.219520
Correlation functional (SCF)            ... PBE
Correlation functional (CP-SCF)         ... PBE
   PBE beta parameter CBetaPBE (SCF)    ...  0.066725
   PBE beta parameter CBetaPBE (CP-SCF) ...  0.066725
 LDA part of GGA corr.  LDAOpt (SCF)    ... PW91-LDA
 LDA part of GGA corr.  LDAOpt (CP-SCF) ... PW91-LDA
Variables per vector in CP-SCF ... 6888
Number of vectors sought       ... 3
Recalculating density on grid  ... done
Calculating the xc-kernel      ... done
     CP-SCF ITERATION   0: 
     CP-SCF ITERATION   1:      0.320909498180
     CP-SCF ITERATION   2:      0.008120547108
     CP-SCF ITERATION   3:      0.000056838456
     CP-SCF ITERATION   4:      0.000000765192
done
Reading CP-SCF coefficients                    ... done
Doing the polarizability tensor   ... done
Cleaning up                                    ... done

-------------------------
THE POLARIZABILITY TENSOR
-------------------------

The raw cartesian tensor (atomic units):
   31.63198      0.00000     -0.00000  
    0.00000     31.63258     -0.00026  
   -0.00000     -0.00026     34.87438  
diagonalized tensor: 
   31.63198     31.63258     34.87438  

    1.00000      0.00007     -0.00000  
   -0.00007      1.00000     -0.00008  
    0.00000      0.00008      1.00000  

Isotropic polarizability :  32.71298


Timings for individual modules:

Sum of individual times         ...     5103.667 sec (=  85.061 min)
GTO integral calculation        ...       10.000 sec (=   0.167 min)   0.2 %
SCF iterations                  ...     3184.018 sec (=  53.067 min)  62.4 %
Solution of CP-SCF eqns.        ...     1909.649 sec (=  31.827 min)  37.4 %
                             ****ORCA TERMINATED NORMALLY****
TOTAL RUN TIME: 0 days 1 hours 25 minutes 8 seconds 506 msec
