
                                 *****************
                                 * O   R   C   A *
                                 *****************

           --- An Ab Initio, DFT and Semiempirical electronic structure package ---

                  #######################################################
                  #                        -***-                        #
                  #          Department of theory and spectroscopy      #
                  #               Directorship: Frank Neese             #
                  #        Max Planck Institute fuer Kohlenforschung    #
                  #                Kaiser Wilhelm Platz 1               #
                  #                 D-45470 Muelheim/Ruhr               #
                  #                      Germany                        #
                  #                                                     #
                  #                  All rights reserved                #
                  #                        -***-                        #
                  #######################################################


                         Program Version 4.1.2  - RELEASE  -


 With contributions from (in alphabetic order):
   Daniel Aravena         : Magnetic Properties
   Michael Atanasov       : Ab Initio Ligand Field Theory
   Alexander A. Auer      : GIAO ZORA
   Ute Becker             : Parallelization
   Giovanni Bistoni       : ED, Open-shell LED
   Martin Brehm           : Molecular dynamics
   Dmytro Bykov           : SCF Hessian
   Vijay G. Chilkuri      : MRCI spin determinant printing
   Dipayan Datta          : RHF DLPNO-CCSD density
   Achintya Kumar Dutta   : EOM-CC, STEOM-CC
   Dmitry Ganyushin       : Spin-Orbit,Spin-Spin,Magnetic field MRCI
   Miquel Garcia          : C-PCM Hessian
   Yang Guo               : DLPNO-NEVPT2, CIM, IAO-localization
   Andreas Hansen         : Spin unrestricted coupled pair/coupled cluster methods
   Benjamin Helmich-Paris : CASSCF linear response (MC-RPA)
   Lee Huntington         : MR-EOM, pCC
   Robert Izsak           : Overlap fitted RIJCOSX, COSX-SCS-MP3, EOM
   Christian Kollmar      : KDIIS, OOCD, Brueckner-CCSD(T), CCSD density
   Simone Kossmann        : Meta GGA functionals, TD-DFT gradient, OOMP2, MP2 Hessian
   Martin Krupicka        : AUTO-CI
   Lucas Lang             : DCDCAS
   Dagmar Lenk            : GEPOL surface, SMD
   Dimitrios Liakos       : Extrapolation schemes; parallel MDCI
   Dimitrios Manganas     : ROCIS; embedding schemes
   Dimitrios Pantazis     : SARC Basis sets
   Taras Petrenko         : DFT Hessian,TD-DFT gradient, ASA, ECA, R-Raman, ABS, FL, XAS/XES, NRVS
   Peter Pinski           : DLPNO-MP2, DLPNO-MP2 Gradient
   Christoph Reimann      : Effective Core Potentials
   Marius Retegan         : Local ZFS, SOC
   Christoph Riplinger    : Optimizer, TS searches, QM/MM, DLPNO-CCSD(T), (RO)-DLPNO pert. Triples
   Tobias Risthaus        : Range-separated hybrids, TD-DFT gradient, RPA, STAB
   Michael Roemelt        : Restricted open shell CIS
   Masaaki Saitow         : Open-shell DLPNO
   Barbara Sandhoefer     : DKH picture change effects
   Avijit Sen             : IP-ROCIS
   Kantharuban Sivalingam : CASSCF convergence, NEVPT2, FIC-MRCI
   Bernardo de Souza      : ESD, SOC TD-DFT
   Georgi Stoychev        : AutoAux, RI-MP2 NMR
   Willem Van den Heuvel  : Paramagnetic NMR
   Boris Wezisla          : Elementary symmetry handling
   Frank Wennmohs         : Technical directorship


 We gratefully acknowledge several colleagues who have allowed us to
 interface, adapt or use parts of their codes:
   Stefan Grimme, W. Hujo, H. Kruse,             : VdW corrections, initial TS optimization,
                  C. Bannwarth                     DFT functionals, gCP, sTDA/sTD-DF
   Ed Valeev                                     : LibInt (2-el integral package), F12 methods
   Garnet Chan, S. Sharma, J. Yang, R. Olivares  : DMRG
   Ulf Ekstrom                                   : XCFun DFT Library
   Mihaly Kallay                                 : mrcc  (arbitrary order and MRCC methods)
   Andreas Klamt, Michael Diedenhofen            : otool_cosmo (COSMO solvation model)
   Jiri Pittner, Ondrej Demel                    : Mk-CCSD
   Frank Weinhold                                : gennbo (NPA and NBO analysis)
   Christopher J. Cramer and Donald G. Truhlar   : smd solvation model
   Lars Goerigk                                  : TD-DFT with DH, B97 family of functionals
   V. Asgeirsson, H. Jonsson                     : NEB implementation
   FAccTs GmbH                                   : IRC, NEB, NEB-TS, Multilevel


 Your calculation uses the libint2 library for the computation of 2-el integrals
 For citations please refer to: http://libint.valeyev.net

 This ORCA versions uses:
   CBLAS   interface :  Fast vector & matrix operations
   LAPACKE interface :  Fast linear algebra routines
   SCALAPACK package :  Parallel linear algebra routines


----- Orbital basis set information -----
Your calculation utilizes the basis: aug-pc-4
   H, C-F              : F. Jensen, J. Chem. Phys. 115, 9113 (2001).
                         F. Jensen, J. Chem. Phys. 116, 7372 (2002).
                         F. Jensen, J. Chem. Phys. 117, 9234 (2002).
   Si-Cl               : F. Jensen, T. Helgaker, J. Chem. Phys. 121, 3463 (2004).
   He-B, Ne-Mg, Al, Ar : F. Jensen, J. Phys. Chem. A 111, 11198 (2007).
   K, Ca, Ga-Kr        : F. Jensen, J. Chem. Phys. 136, 094110 (2012).
   Sc-Zn               : F. Jensen, J. Chem. Phys. 138, 014107 (2013).

================================================================================
                                        WARNINGS
                       Please study these warnings very carefully!
================================================================================


INFO   : the flag for use of LIBINT has been found!

================================================================================
                                       INPUT FILE
================================================================================
NAME = licl_pbe.inp
|  1> !uks pbe nori aug-pc-4 grid7 nofinalgrid verytightscf
|  2> 
|  3> %maxcore 1500
|  4> 
|  5> %pal nprocs 1 end
|  6> 
|  7> %scf
|  8> 	maxiter 200
|  9> end
| 10> %elprop
| 11> 	dipole true
| 12> 	 polar 1
| 13> 	 maxiter 200
| 14> end
| 15> 
| 16> * xyz 0 1
| 17> Li 0.0000 0.0000 0.0000
| 18> Cl 0.0000 0.0000 2.0207
| 19> *
| 20> 
| 21>                          ****END OF INPUT****
================================================================================

                       ****************************
                       * Single Point Calculation *
                       ****************************

---------------------------------
CARTESIAN COORDINATES (ANGSTROEM)
---------------------------------
  Li     0.000000    0.000000    0.000000
  Cl     0.000000    0.000000    2.020700

----------------------------
CARTESIAN COORDINATES (A.U.)
----------------------------
  NO LB      ZA    FRAG     MASS         X           Y           Z
   0 Li    3.0000    0     6.941    0.000000    0.000000    0.000000
   1 Cl   17.0000    0    35.453    0.000000    0.000000    3.818570

--------------------------------
INTERNAL COORDINATES (ANGSTROEM)
--------------------------------
 Li     0   0   0     0.000000000000     0.00000000     0.00000000
 Cl     1   0   0     2.020700000000     0.00000000     0.00000000

---------------------------
INTERNAL COORDINATES (A.U.)
---------------------------
 Li     0   0   0     0.000000000000     0.00000000     0.00000000
 Cl     1   0   0     3.818569598815     0.00000000     0.00000000

---------------------
BASIS SET INFORMATION
---------------------
There are 2 groups of distinct atoms

 Group   1 Type Li  : 31s9p4d3f2g contracted to 9s5p4d3f2g pattern {12121111111/51111/1111/111/11}
 Group   2 Type Cl  : 44s27p7d4f3g2h contracted to 8s7p7d4f3g2h pattern {15121211111/111111111/1111111/1111/111/11}

Atom   0Li   basis set group =>   1
Atom   1Cl   basis set group =>   2
------------------------------------------------------------------------------
                           ORCA GTO INTEGRAL CALCULATION
------------------------------------------------------------------------------

                         BASIS SET STATISTICS AND STARTUP INFO

 # of primitive gaussian shells          ...  136
 # of primitive gaussian functions       ...  354
 # of contracted shells                  ...   54
 # of contracted basis functions         ...  224
 Highest angular momentum                ...    5
 Maximum contraction depth               ...   15
 Integral package used                   ... LIBINT
 Integral threshhold            Thresh   ...  1.000e-12
 Primitive cut-off              TCut     ...  1.000e-14


------------------------------ INTEGRAL EVALUATION ----------------------------


 * One electron integrals 
 Pre-screening matrix                    ... done
 Shell pair data                         ... done (   0.001 sec)

-------------------------------------------------------------------------------
                                 ORCA SCF
-------------------------------------------------------------------------------

------------
SCF SETTINGS
------------
Hamiltonian:
 Density Functional     Method          .... DFT(GTOs)
 Exchange Functional    Exchange        .... PBE
   PBE kappa parameter   XKappa         ....  0.804000
   PBE mue parameter    XMuePBE         ....  0.219520
 Correlation Functional Correlation     .... PBE
   PBE beta parameter  CBetaPBE         ....  0.066725
 LDA part of GGA corr.  LDAOpt          .... PW91-LDA
 Gradients option       PostSCFGGA      .... off
   Density functional embedding theory  .... OFF
   NL short-range parameter             ....  6.400000


General Settings:
 Integral files         IntName         .... licl_pbe
 Hartree-Fock type      HFTyp           .... UHF
 Total Charge           Charge          ....    0
 Multiplicity           Mult            ....    1
 Number of Electrons    NEL             ....   20
 Basis Dimension        Dim             ....  224
 Nuclear Repulsion      ENuc            ....     13.3557864222 Eh

Convergence Acceleration:
 DIIS                   CNVDIIS         .... on
   Start iteration      DIISMaxIt       ....    12
   Startup error        DIISStart       ....  0.200000
   # of expansion vecs  DIISMaxEq       ....     5
   Bias factor          DIISBfac        ....   1.050
   Max. coefficient     DIISMaxC        ....  10.000
 Newton-Raphson         CNVNR           .... off
 SOSCF                  CNVSOSCF        .... off
 Level Shifting         CNVShift        .... on
   Level shift para.    LevelShift      ....    0.2500
   Turn off err/grad.   ShiftErr        ....    0.0010
 Zerner damping         CNVZerner       .... off
 Static damping         CNVDamp         .... on
   Fraction old density DampFac         ....    0.7000
   Max. Damping (<1)    DampMax         ....    0.9800
   Min. Damping (>=0)   DampMin         ....    0.0000
   Turn off err/grad.   DampErr         ....    0.1000
 Fernandez-Rico         CNVRico         .... off

SCF Procedure:
 Maximum # iterations   MaxIter         ....   200
 SCF integral mode      SCFMode         .... Direct
   Integral package                     .... LIBINT
 Reset frequency        DirectResetFreq ....    20
 Integral Threshold     Thresh          ....  1.000e-12 Eh
 Primitive CutOff       TCut            ....  1.000e-14 Eh

Convergence Tolerance:
 Convergence Check Mode ConvCheckMode   .... Total+1el-Energy
 Convergence forced     ConvForced      .... 0
 Energy Change          TolE            ....  1.000e-09 Eh
 1-El. energy change                    ....  1.000e-06 Eh
 DIIS Error             TolErr          ....  1.000e-08


Diagonalization of the overlap matrix:
Smallest eigenvalue                        ... 1.441e-05
Time for diagonalization                   ...    0.008 sec
Threshold for overlap eigenvalues          ... 1.000e-08
Number of eigenvalues below threshold      ... 0
Time for construction of square roots      ...    0.008 sec
Total time needed                          ...    0.017 sec

-------------------
DFT GRID GENERATION
-------------------

General Integration Accuracy     IntAcc      ...  5.670
Radial Grid Type                 RadialGrid  ... Gauss-Chebyshev
Angular Grid (max. acc.)         AngularGrid ... Lebedev-770
Angular grid pruning method      GridPruning ... 3 (G Style)
Weight generation scheme         WeightScheme... Becke
Basis function cutoff            BFCut       ...    1.0000e-12
Integration weight cutoff        WCut        ...    1.0000e-14
Grids for H and He will be reduced by one unit

# of grid points (after initial pruning)     ...  51446 (   0.0 sec)
# of grid points (after weights+screening)   ...  51276 (   0.0 sec)
nearest neighbour list constructed           ...    0.0 sec
Grid point re-assignment to atoms done       ...    0.0 sec
Grid point division into batches done        ...    1.2 sec
Reduced shell lists constructed in    1.6 sec

Total number of grid points                  ...    51276
Total number of batches                      ...      802
Average number of points per batch           ...       63
Average number of grid points per atom       ...    25638
Average number of shells per batch           ...    41.30 (76.48%)
Average number of basis functions per batch  ...   170.73 (76.22%)
Average number of large shells per batch     ...    37.61 (91.08%)
Average number of large basis fcns per batch ...   155.06 (90.82%)
Maximum spatial batch extension              ...  33.31, 33.31, 28.04 au
Average spatial batch extension              ...   3.96,  3.95,  3.60 au

Time for grid setup =    1.583 sec

------------------------------
INITIAL GUESS: MODEL POTENTIAL
------------------------------
Loading Hartree-Fock densities                     ... done
Calculating cut-offs                               ... done
Setting up the integral package                    ... done
Initializing the effective Hamiltonian             ... done
Starting the Coulomb interaction                   ... done (   0.0 sec)
Reading the grid                                   ... done
Mapping shells                                     ... done
Starting the XC term evaluation                    ... done (   1.3 sec)
  promolecular density results
     # of electrons  =     20.000004068
     EX              =    -29.120199915
     EC              =     -0.714505184
     EX+EC           =    -29.834705098
Transforming the Hamiltonian                       ... done (   0.0 sec)
Diagonalizing the Hamiltonian                      ... done (   0.0 sec)
Back transforming the eigenvectors                 ... done (   0.0 sec)
Now organizing SCF variables                       ... done
                      ------------------
                      INITIAL GUESS DONE (   3.1 sec)
                      ------------------
--------------
SCF ITERATIONS
--------------
ITER       Energy         Delta-E        Max-DP      RMS-DP      [F,P]     Damp
               ***  Starting incremental Fock matrix formation  ***
  0   -467.5656769236   0.000000000000 0.03915309  0.00035973  0.1355488 0.7000
  1   -467.5880105671  -0.022333643460 0.01978060  0.00023165  0.0692198 0.7000
                               ***Turning on DIIS***
  2   -467.5970674191  -0.009056852052 0.02191379  0.00035087  0.0241465 0.0000
  3   -467.6063112614  -0.009243842301 0.02178418  0.00018671  0.0514735 0.0000
  4   -467.6117562278  -0.005444966349 0.00349376  0.00005553  0.0144503 0.0000
  5   -467.6122137403  -0.000457512558 0.00086478  0.00001619  0.0054540 0.0000
  6   -467.6122898165  -0.000076076129 0.00030448  0.00000691  0.0020099 0.0000
  7   -467.6123021303  -0.000012313881 0.00037090  0.00000646  0.0009502 0.0000
  8   -467.6123061625  -0.000004032111 0.00004226  0.00000084  0.0002179 0.0000
  9   -467.6123062141  -0.000000051659 0.00001586  0.00000028  0.0001186 0.0000
 10   -467.6123062320  -0.000000017870 0.00000505  0.00000005  0.0000045 0.0000
 11   -467.6123062320  -0.000000000022 0.00000113  0.00000001  0.0000005 0.0000
 12   -467.6123062320  -0.000000000003 0.00000121  0.00000001  0.0000002 0.0000
                 **** Energy Check signals convergence ****

               *****************************************************
               *                     SUCCESS                       *
               *           SCF CONVERGED AFTER  13 CYCLES          *
               *****************************************************


----------------
TOTAL SCF ENERGY
----------------

Total Energy       :         -467.61230623 Eh          -12724.37775 eV

Components:
Nuclear Repulsion  :           13.35578642 Eh             363.42942 eV
Electronic Energy  :         -480.96809265 Eh          -13087.80717 eV
One Electron Energy:         -673.67221021 Eh          -18331.55280 eV
Two Electron Energy:          192.70411755 Eh            5243.74563 eV

Virial components:
Potential Energy   :         -934.79211740 Eh          -25436.98671 eV
Kinetic Energy     :          467.17981117 Eh           12712.60896 eV
Virial Ratio       :            2.00092576


DFT components:
N(Alpha)           :       10.000001434171 electrons
N(Beta)            :       10.000001434171 electrons
N(Total)           :       20.000002868343 electrons
E(X)               :      -29.240970568156 Eh       
E(C)               :       -0.728711887135 Eh       
E(XC)              :      -29.969682455291 Eh       
DFET-embed. en.    :        0.000000000000 Eh       

---------------
SCF CONVERGENCE
---------------

  Last Energy change         ...    3.7517e-12  Tolerance :   1.0000e-09
  Last MAX-Density change    ...    2.2220e-05  Tolerance :   1.0000e-08
  Last RMS-Density change    ...    1.9410e-07  Tolerance :   1.0000e-09
  Last DIIS Error            ...    9.4010e-09  Tolerance :   1.0000e-08

             **** THE GBW FILE WAS UPDATED (licl_pbe.gbw) ****
             **** DENSITY FILE WAS UPDATED (licl_pbe.scfp.tmp) ****
             **** ENERGY FILE WAS UPDATED (licl_pbe.en.tmp) ****
----------------------
UHF SPIN CONTAMINATION
----------------------

Warning: in a DFT calculation there is little theoretical justification to 
         calculate <S**2> as in Hartree-Fock theory. We will do it anyways
         but you should keep in mind that the values have only limited relevance

Expectation value of <S**2>     :     0.000000
Ideal value S*(S+1) for S=0.0   :     0.000000
Deviation                       :     0.000000

----------------
ORBITAL ENERGIES
----------------
                 SPIN UP ORBITALS
  NO   OCC          E(Eh)            E(eV) 
   0   1.0000    -100.553239     -2736.1927 
   1   1.0000      -9.078581      -247.0408 
   2   1.0000      -6.894789      -187.6168 
   3   1.0000      -6.894203      -187.6008 
   4   1.0000      -6.894203      -187.6008 
   5   1.0000      -1.897204       -51.6256 
   6   1.0000      -0.643485       -17.5101 
   7   1.0000      -0.237398        -6.4599 
   8   1.0000      -0.216000        -5.8776 
   9   1.0000      -0.216000        -5.8776 
  10   0.0000      -0.066136        -1.7997 
  11   0.0000      -0.007550        -0.2054 
  12   0.0000      -0.007550        -0.2054 
  13   0.0000       0.003748         0.1020 
  14   0.0000       0.008779         0.2389 
  15   0.0000       0.021075         0.5735 
  16   0.0000       0.021075         0.5735 
  17   0.0000       0.033796         0.9196 
  18   0.0000       0.042429         1.1545 
  19   0.0000       0.048370         1.3162 
  20   0.0000       0.048370         1.3162 
  21   0.0000       0.049904         1.3580 
  22   0.0000       0.051759         1.4084 
  23   0.0000       0.051759         1.4084 
  24   0.0000       0.069050         1.8790 
  25   0.0000       0.069050         1.8790 
  26   0.0000       0.079414         2.1610 
  27   0.0000       0.098923         2.6918 
  28   0.0000       0.098923         2.6918 
  29   0.0000       0.102452         2.7879 
  30   0.0000       0.102452         2.7879 
  31   0.0000       0.104669         2.8482 
  32   0.0000       0.104669         2.8482 
  33   0.0000       0.108949         2.9646 
  34   0.0000       0.125919         3.4264 
  35   0.0000       0.138392         3.7658 
  36   0.0000       0.138392         3.7658 
  37   0.0000       0.154683         4.2091 
  38   0.0000       0.161565         4.3964 
  39   0.0000       0.161565         4.3964 
  40   0.0000       0.161730         4.4009 
  41   0.0000       0.166167         4.5216 
  42   0.0000       0.166167         4.5216 
  43   0.0000       0.166592         4.5332 
  44   0.0000       0.166592         4.5332 
  45   0.0000       0.169632         4.6159 
  46   0.0000       0.169632         4.6159 
  47   0.0000       0.181629         4.9424 
  48   0.0000       0.181629         4.9424 
  49   0.0000       0.187490         5.1019 
  50   0.0000       0.187981         5.1152 
  51   0.0000       0.187981         5.1152 
  52   0.0000       0.221035         6.0147 
  53   0.0000       0.258424         7.0321 
  54   0.0000       0.258424         7.0321 
  55   0.0000       0.279300         7.6001 
  56   0.0000       0.307437         8.3658 
  57   0.0000       0.307437         8.3658 
  58   0.0000       0.315745         8.5919 
  59   0.0000       0.315745         8.5919 
  60   0.0000       0.329938         8.9781 
  61   0.0000       0.337382         9.1806 
  62   0.0000       0.386758        10.5242 
  63   0.0000       0.386758        10.5242 
  64   0.0000       0.396156        10.7800 
  65   0.0000       0.396156        10.7800 
  66   0.0000       0.401604        10.9282 
  67   0.0000       0.401604        10.9282 
  68   0.0000       0.420743        11.4490 
  69   0.0000       0.420743        11.4490 
  70   0.0000       0.421089        11.4584 
  71   0.0000       0.428207        11.6521 
  72   0.0000       0.428207        11.6521 
  73   0.0000       0.468032        12.7358 
  74   0.0000       0.525807        14.3079 
  75   0.0000       0.525807        14.3079 
  76   0.0000       0.540544        14.7089 
  77   0.0000       0.540544        14.7089 
  78   0.0000       0.568738        15.4761 
  79   0.0000       0.573241        15.5987 
  80   0.0000       0.573241        15.5987 
  81   0.0000       0.619998        16.8710 
  82   0.0000       0.619998        16.8710 
  83   0.0000       0.626169        17.0389 
  84   0.0000       0.629116        17.1191 
  85   0.0000       0.629116        17.1191 
  86   0.0000       0.681536        18.5455 
  87   0.0000       0.748274        20.3616 
  88   0.0000       0.748274        20.3616 
  89   0.0000       0.762566        20.7505 
  90   0.0000       0.768187        20.9034 
  91   0.0000       0.768187        20.9034 
  92   0.0000       0.808634        22.0041 
  93   0.0000       0.808634        22.0041 
  94   0.0000       0.813595        22.1390 
  95   0.0000       0.813595        22.1390 
  96   0.0000       0.841343        22.8941 
  97   0.0000       0.841343        22.8941 
  98   0.0000       0.842084        22.9143 
  99   0.0000       0.851709        23.1762 
 100   0.0000       0.851709        23.1762 
 101   0.0000       0.906308        24.6619 
 102   0.0000       0.906308        24.6619 
 103   0.0000       0.911763        24.8103 
 104   0.0000       0.944076        25.6896 
 105   0.0000       0.944076        25.6896 
 106   0.0000       0.970211        26.4008 
 107   0.0000       0.970211        26.4008 
 108   0.0000       0.988615        26.9016 
 109   0.0000       0.988615        26.9016 
 110   0.0000       1.018552        27.7162 
 111   0.0000       1.068219        29.0677 
 112   0.0000       1.068219        29.0677 
 113   0.0000       1.109089        30.1798 
 114   0.0000       1.109089        30.1798 
 115   0.0000       1.133669        30.8487 
 116   0.0000       1.133669        30.8487 
 117   0.0000       1.149192        31.2711 
 118   0.0000       1.281811        34.8798 
 119   0.0000       1.349265        36.7154 
 120   0.0000       1.349265        36.7154 
 121   0.0000       1.454393        39.5761 
 122   0.0000       1.454393        39.5761 
 123   0.0000       1.517476        41.2926 
 124   0.0000       1.529353        41.6158 
 125   0.0000       1.529353        41.6158 
 126   0.0000       1.761666        47.9374 
 127   0.0000       1.761666        47.9374 
 128   0.0000       1.835294        49.9409 
 129   0.0000       1.875659        51.0393 
 130   0.0000       1.875659        51.0393 
 131   0.0000       1.881486        51.1978 
 132   0.0000       1.971839        53.6565 
 133   0.0000       2.017124        54.8887 
 134   0.0000       2.209573        60.1255 
 135   0.0000       2.209574        60.1256 
 136   0.0000       2.297063        62.5063 
 137   0.0000       2.297063        62.5063 
 138   0.0000       2.332695        63.4759 
 139   0.0000       2.332695        63.4759 
 140   0.0000       2.402671        65.3800 
 141   0.0000       2.402671        65.3800 
 142   0.0000       2.499691        68.0201 
 143   0.0000       2.506795        68.2134 
 144   0.0000       2.506795        68.2134 
 145   0.0000       2.680478        72.9395 
 146   0.0000       2.680478        72.9395 
 147   0.0000       2.695626        73.3517 
 148   0.0000       2.695626        73.3517 
 149   0.0000       2.718081        73.9628 
 150   0.0000       2.718082        73.9628 
 151   0.0000       2.798537        76.1521 
 152   0.0000       2.922106        79.5145 
 153   0.0000       2.922106        79.5145 
 154   0.0000       2.990228        81.3683 
 155   0.0000       2.990228        81.3683 
 156   0.0000       3.026754        82.3622 
 157   0.0000       3.026754        82.3622 
 158   0.0000       3.146644        85.6245 
 159   0.0000       3.346337        91.0584 
 160   0.0000       3.346337        91.0585 
 161   0.0000       3.580721        97.4364 
 162   0.0000       3.580721        97.4364 
 163   0.0000       3.591792        97.7376 
 164   0.0000       3.746718       101.9534 
 165   0.0000       3.746719       101.9534 
 166   0.0000       3.765059       102.4525 
 167   0.0000       3.765059       102.4525 
 168   0.0000       4.065668       110.6324 
 169   0.0000       4.065668       110.6324 
 170   0.0000       4.089249       111.2741 
 171   0.0000       4.214487       114.6820 
 172   0.0000       4.838865       131.6722 
 173   0.0000       4.838865       131.6722 
 174   0.0000       5.006684       136.2388 
 175   0.0000       5.235810       142.4736 
 176   0.0000       5.235810       142.4736 
 177   0.0000       5.437552       147.9633 
 178   0.0000       5.437552       147.9633 
 179   0.0000       5.756240       156.6352 
 180   0.0000       5.756240       156.6353 
 181   0.0000       5.760969       156.7639 
 182   0.0000       5.760969       156.7639 
 183   0.0000       5.773180       157.0962 
 184   0.0000       5.773180       157.0962 
 185   0.0000       5.827304       158.5690 
 186   0.0000       5.827305       158.5690 
 187   0.0000       5.872847       159.8083 
 188   0.0000       5.872847       159.8083 
 189   0.0000       5.912932       160.8991 
 190   0.0000       5.917746       161.0301 
 191   0.0000       5.917746       161.0301 
 192   0.0000       6.054143       164.7416 
 193   0.0000       6.302944       171.5118 
 194   0.0000       6.302944       171.5118 
 195   0.0000       6.342518       172.5887 
 196   0.0000       9.184570       249.9249 
 197   0.0000       9.184574       249.9250 
 198   0.0000       9.190399       250.0835 
 199   0.0000       9.190399       250.0835 
 200   0.0000       9.289456       252.7789 
 201   0.0000       9.289463       252.7791 
 202   0.0000       9.325365       253.7561 
 203   0.0000       9.558681       260.1049 
 204   0.0000       9.558681       260.1049 
 205   0.0000      10.667296       290.2719 
 206   0.0000      12.927479       351.7746 
 207   0.0000      12.927479       351.7746 
 208   0.0000      12.974448       353.0527 
 209   0.0000      12.974464       353.0531 
 210   0.0000      13.084015       356.0341 
 211   0.0000      13.084015       356.0341 
 212   0.0000      13.167837       358.3151 
 213   0.0000      17.686005       481.2607 
 214   0.0000      17.686018       481.2610 
 215   0.0000      17.781678       483.8640 
 216   0.0000      17.781678       483.8640 
 217   0.0000      17.991610       489.5766 
 218   0.0000      38.587208      1050.0113 
 219   0.0000      65.884742      1792.8150 
 220   0.0000      65.884748      1792.8151 
 221   0.0000      65.943210      1794.4060 
 222   0.0000      65.943210      1794.4060 
 223   0.0000      66.075814      1798.0143 

                 SPIN DOWN ORBITALS
  NO   OCC          E(Eh)            E(eV) 
   0   1.0000    -100.553239     -2736.1927 
   1   1.0000      -9.078581      -247.0408 
   2   1.0000      -6.894789      -187.6168 
   3   1.0000      -6.894203      -187.6008 
   4   1.0000      -6.894203      -187.6008 
   5   1.0000      -1.897204       -51.6256 
   6   1.0000      -0.643485       -17.5101 
   7   1.0000      -0.237398        -6.4599 
   8   1.0000      -0.216000        -5.8776 
   9   1.0000      -0.216000        -5.8776 
  10   0.0000      -0.066136        -1.7997 
  11   0.0000      -0.007550        -0.2054 
  12   0.0000      -0.007550        -0.2054 
  13   0.0000       0.003748         0.1020 
  14   0.0000       0.008779         0.2389 
  15   0.0000       0.021075         0.5735 
  16   0.0000       0.021075         0.5735 
  17   0.0000       0.033796         0.9196 
  18   0.0000       0.042429         1.1545 
  19   0.0000       0.048370         1.3162 
  20   0.0000       0.048370         1.3162 
  21   0.0000       0.049904         1.3580 
  22   0.0000       0.051759         1.4084 
  23   0.0000       0.051759         1.4084 
  24   0.0000       0.069050         1.8790 
  25   0.0000       0.069050         1.8790 
  26   0.0000       0.079414         2.1610 
  27   0.0000       0.098923         2.6918 
  28   0.0000       0.098923         2.6918 
  29   0.0000       0.102452         2.7879 
  30   0.0000       0.102452         2.7879 
  31   0.0000       0.104669         2.8482 
  32   0.0000       0.104669         2.8482 
  33   0.0000       0.108949         2.9646 
  34   0.0000       0.125919         3.4264 
  35   0.0000       0.138392         3.7658 
  36   0.0000       0.138392         3.7658 
  37   0.0000       0.154683         4.2091 
  38   0.0000       0.161565         4.3964 
  39   0.0000       0.161565         4.3964 
  40   0.0000       0.161730         4.4009 
  41   0.0000       0.166167         4.5216 
  42   0.0000       0.166167         4.5216 
  43   0.0000       0.166592         4.5332 
  44   0.0000       0.166592         4.5332 
  45   0.0000       0.169632         4.6159 
  46   0.0000       0.169632         4.6159 
  47   0.0000       0.181629         4.9424 
  48   0.0000       0.181629         4.9424 
  49   0.0000       0.187490         5.1019 
  50   0.0000       0.187981         5.1152 
  51   0.0000       0.187981         5.1152 
  52   0.0000       0.221035         6.0147 
  53   0.0000       0.258424         7.0321 
  54   0.0000       0.258424         7.0321 
  55   0.0000       0.279300         7.6001 
  56   0.0000       0.307437         8.3658 
  57   0.0000       0.307437         8.3658 
  58   0.0000       0.315745         8.5919 
  59   0.0000       0.315745         8.5919 
  60   0.0000       0.329938         8.9781 
  61   0.0000       0.337382         9.1806 
  62   0.0000       0.386758        10.5242 
  63   0.0000       0.386758        10.5242 
  64   0.0000       0.396156        10.7800 
  65   0.0000       0.396156        10.7800 
  66   0.0000       0.401604        10.9282 
  67   0.0000       0.401604        10.9282 
  68   0.0000       0.420743        11.4490 
  69   0.0000       0.420743        11.4490 
  70   0.0000       0.421089        11.4584 
  71   0.0000       0.428207        11.6521 
  72   0.0000       0.428207        11.6521 
  73   0.0000       0.468032        12.7358 
  74   0.0000       0.525807        14.3079 
  75   0.0000       0.525807        14.3079 
  76   0.0000       0.540544        14.7089 
  77   0.0000       0.540544        14.7089 
  78   0.0000       0.568738        15.4761 
  79   0.0000       0.573241        15.5987 
  80   0.0000       0.573241        15.5987 
  81   0.0000       0.619998        16.8710 
  82   0.0000       0.619998        16.8710 
  83   0.0000       0.626169        17.0389 
  84   0.0000       0.629116        17.1191 
  85   0.0000       0.629116        17.1191 
  86   0.0000       0.681536        18.5455 
  87   0.0000       0.748274        20.3616 
  88   0.0000       0.748274        20.3616 
  89   0.0000       0.762566        20.7505 
  90   0.0000       0.768187        20.9034 
  91   0.0000       0.768187        20.9034 
  92   0.0000       0.808634        22.0041 
  93   0.0000       0.808634        22.0041 
  94   0.0000       0.813595        22.1390 
  95   0.0000       0.813595        22.1390 
  96   0.0000       0.841343        22.8941 
  97   0.0000       0.841343        22.8941 
  98   0.0000       0.842084        22.9143 
  99   0.0000       0.851709        23.1762 
 100   0.0000       0.851709        23.1762 
 101   0.0000       0.906308        24.6619 
 102   0.0000       0.906308        24.6619 
 103   0.0000       0.911763        24.8103 
 104   0.0000       0.944076        25.6896 
 105   0.0000       0.944076        25.6896 
 106   0.0000       0.970211        26.4008 
 107   0.0000       0.970211        26.4008 
 108   0.0000       0.988615        26.9016 
 109   0.0000       0.988615        26.9016 
 110   0.0000       1.018552        27.7162 
 111   0.0000       1.068219        29.0677 
 112   0.0000       1.068219        29.0677 
 113   0.0000       1.109089        30.1798 
 114   0.0000       1.109089        30.1798 
 115   0.0000       1.133669        30.8487 
 116   0.0000       1.133669        30.8487 
 117   0.0000       1.149192        31.2711 
 118   0.0000       1.281811        34.8798 
 119   0.0000       1.349265        36.7154 
 120   0.0000       1.349265        36.7154 
 121   0.0000       1.454393        39.5761 
 122   0.0000       1.454393        39.5761 
 123   0.0000       1.517476        41.2926 
 124   0.0000       1.529353        41.6158 
 125   0.0000       1.529353        41.6158 
 126   0.0000       1.761666        47.9374 
 127   0.0000       1.761666        47.9374 
 128   0.0000       1.835294        49.9409 
 129   0.0000       1.875659        51.0393 
 130   0.0000       1.875659        51.0393 
 131   0.0000       1.881486        51.1978 
 132   0.0000       1.971839        53.6565 
 133   0.0000       2.017124        54.8887 
 134   0.0000       2.209573        60.1255 
 135   0.0000       2.209574        60.1256 
 136   0.0000       2.297063        62.5063 
 137   0.0000       2.297063        62.5063 
 138   0.0000       2.332695        63.4759 
 139   0.0000       2.332695        63.4759 
 140   0.0000       2.402671        65.3800 
 141   0.0000       2.402671        65.3800 
 142   0.0000       2.499691        68.0201 
 143   0.0000       2.506795        68.2134 
 144   0.0000       2.506795        68.2134 
 145   0.0000       2.680478        72.9395 
 146   0.0000       2.680478        72.9395 
 147   0.0000       2.695626        73.3517 
 148   0.0000       2.695626        73.3517 
 149   0.0000       2.718081        73.9628 
 150   0.0000       2.718082        73.9628 
 151   0.0000       2.798537        76.1521 
 152   0.0000       2.922106        79.5145 
 153   0.0000       2.922106        79.5145 
 154   0.0000       2.990228        81.3683 
 155   0.0000       2.990228        81.3683 
 156   0.0000       3.026754        82.3622 
 157   0.0000       3.026754        82.3622 
 158   0.0000       3.146644        85.6245 
 159   0.0000       3.346337        91.0584 
 160   0.0000       3.346337        91.0585 
 161   0.0000       3.580721        97.4364 
 162   0.0000       3.580721        97.4364 
 163   0.0000       3.591792        97.7376 
 164   0.0000       3.746718       101.9534 
 165   0.0000       3.746719       101.9534 
 166   0.0000       3.765059       102.4525 
 167   0.0000       3.765059       102.4525 
 168   0.0000       4.065668       110.6324 
 169   0.0000       4.065668       110.6324 
 170   0.0000       4.089249       111.2741 
 171   0.0000       4.214487       114.6820 
 172   0.0000       4.838865       131.6722 
 173   0.0000       4.838865       131.6722 
 174   0.0000       5.006684       136.2388 
 175   0.0000       5.235810       142.4736 
 176   0.0000       5.235810       142.4736 
 177   0.0000       5.437552       147.9633 
 178   0.0000       5.437552       147.9633 
 179   0.0000       5.756240       156.6352 
 180   0.0000       5.756240       156.6353 
 181   0.0000       5.760969       156.7639 
 182   0.0000       5.760969       156.7639 
 183   0.0000       5.773180       157.0962 
 184   0.0000       5.773180       157.0962 
 185   0.0000       5.827304       158.5690 
 186   0.0000       5.827305       158.5690 
 187   0.0000       5.872847       159.8083 
 188   0.0000       5.872847       159.8083 
 189   0.0000       5.912932       160.8991 
 190   0.0000       5.917746       161.0301 
 191   0.0000       5.917746       161.0301 
 192   0.0000       6.054143       164.7416 
 193   0.0000       6.302944       171.5118 
 194   0.0000       6.302944       171.5118 
 195   0.0000       6.342518       172.5887 
 196   0.0000       9.184570       249.9249 
 197   0.0000       9.184574       249.9250 
 198   0.0000       9.190399       250.0835 
 199   0.0000       9.190399       250.0835 
 200   0.0000       9.289456       252.7789 
 201   0.0000       9.289463       252.7791 
 202   0.0000       9.325365       253.7561 
 203   0.0000       9.558681       260.1049 
 204   0.0000       9.558681       260.1049 
 205   0.0000      10.667296       290.2719 
 206   0.0000      12.927479       351.7746 
 207   0.0000      12.927479       351.7746 
 208   0.0000      12.974448       353.0527 
 209   0.0000      12.974464       353.0531 
 210   0.0000      13.084015       356.0341 
 211   0.0000      13.084015       356.0341 
 212   0.0000      13.167837       358.3151 
 213   0.0000      17.686005       481.2607 
 214   0.0000      17.686018       481.2610 
 215   0.0000      17.781678       483.8640 
 216   0.0000      17.781678       483.8640 
 217   0.0000      17.991610       489.5766 
 218   0.0000      38.587208      1050.0113 
 219   0.0000      65.884742      1792.8150 
 220   0.0000      65.884748      1792.8151 
 221   0.0000      65.943210      1794.4060 
 222   0.0000      65.943210      1794.4060 
 223   0.0000      66.075814      1798.0143 

                    ********************************
                    * MULLIKEN POPULATION ANALYSIS *
                    ********************************

--------------------------------------------
MULLIKEN ATOMIC CHARGES AND SPIN POPULATIONS
--------------------------------------------
   0 Li:    0.608760    0.000000
   1 Cl:   -0.608760   -0.000000
Sum of atomic charges         :   -0.0000000
Sum of atomic spin populations:    0.0000000

-----------------------------------------------------
MULLIKEN REDUCED ORBITAL CHARGES AND SPIN POPULATIONS
-----------------------------------------------------
CHARGE
  0 Lis       :     2.086029  s :     2.086029
      pz      :     0.118182  p :     0.246739
      px      :     0.064278
      py      :     0.064278
      dz2     :     0.011424  d :     0.050093
      dxz     :     0.019335
      dyz     :     0.019335
      dx2y2   :     0.000000
      dxy     :     0.000000
      f0      :     0.001362  f :     0.008496
      f+1     :     0.003567
      f-1     :     0.003567
      f+2     :     0.000000
      f-2     :    -0.000000
      f+3     :     0.000000
      f-3     :     0.000000
      g0      :     0.000036  g :    -0.000118
      g+1     :    -0.000077
      g-1     :    -0.000077
      g+2     :     0.000000
      g-2     :     0.000000
      g+3     :     0.000000
      g-3     :     0.000000
      g+4     :     0.000000
      g-4     :     0.000000
  1 Cls       :     5.963665  s :     5.963665
      pz      :     3.811068  p :    11.630931
      px      :     3.909931
      py      :     3.909931
      dz2     :     0.004102  d :     0.009725
      dxz     :     0.002811
      dyz     :     0.002811
      dx2y2   :    -0.000000
      dxy     :     0.000000
      f0      :     0.002443  f :     0.002776
      f+1     :     0.000167
      f-1     :     0.000167
      f+2     :     0.000000
      f-2     :     0.000000
      f+3     :     0.000000
      f-3     :     0.000000
      g0      :     0.001272  g :     0.001253
      g+1     :    -0.000009
      g-1     :    -0.000009
      g+2     :     0.000000
      g-2     :    -0.000000
      g+3     :     0.000000
      g-3     :     0.000000
      g+4     :     0.000000
      g-4     :     0.000000
      h0      :     0.000418  h :     0.000410
      h+1     :    -0.000004
      h-1     :    -0.000004
      h+2     :     0.000000
      h-2     :    -0.000000
      h+3     :     0.000000
      h-3     :     0.000000
      h+4     :     0.000000
      h-4     :     0.000000
      h+5     :     0.000000
      h-5     :     0.000000

SPIN
  0 Lis       :     0.000000  s :     0.000000
      pz      :    -0.000000  p :    -0.000000
      px      :    -0.000000
      py      :     0.000000
      dz2     :    -0.000000  d :    -0.000000
      dxz     :     0.000000
      dyz     :     0.000000
      dx2y2   :     0.000000
      dxy     :    -0.000000
      f0      :    -0.000000  f :     0.000000
      f+1     :     0.000000
      f-1     :     0.000000
      f+2     :    -0.000000
      f-2     :     0.000000
      f+3     :    -0.000000
      f-3     :    -0.000000
      g0      :     0.000000  g :     0.000000
      g+1     :     0.000000
      g-1     :     0.000000
      g+2     :    -0.000000
      g-2     :    -0.000000
      g+3     :     0.000000
      g-3     :    -0.000000
      g+4     :     0.000000
      g-4     :    -0.000000
  1 Cls       :     0.000000  s :     0.000000
      pz      :    -0.000000  p :    -0.000000
      px      :     0.000000
      py      :    -0.000000
      dz2     :    -0.000000  d :    -0.000000
      dxz     :     0.000000
      dyz     :     0.000000
      dx2y2   :     0.000000
      dxy     :     0.000000
      f0      :    -0.000000  f :    -0.000000
      f+1     :     0.000000
      f-1     :     0.000000
      f+2     :     0.000000
      f-2     :    -0.000000
      f+3     :    -0.000000
      f-3     :    -0.000000
      g0      :    -0.000000  g :    -0.000000
      g+1     :     0.000000
      g-1     :     0.000000
      g+2     :    -0.000000
      g-2     :     0.000000
      g+3     :    -0.000000
      g-3     :     0.000000
      g+4     :    -0.000000
      g-4     :     0.000000
      h0      :     0.000000  h :     0.000000
      h+1     :    -0.000000
      h-1     :    -0.000000
      h+2     :    -0.000000
      h-2     :     0.000000
      h+3     :    -0.000000
      h-3     :    -0.000000
      h+4     :    -0.000000
      h-4     :     0.000000
      h+5     :     0.000000
      h-5     :     0.000000


                     *******************************
                     * LOEWDIN POPULATION ANALYSIS *
                     *******************************

-------------------------------------------
LOEWDIN ATOMIC CHARGES AND SPIN POPULATIONS
-------------------------------------------
   0 Li:   -0.241280    0.000000
   1 Cl:    0.241280   -0.000000

----------------------------------------------------
LOEWDIN REDUCED ORBITAL CHARGES AND SPIN POPULATIONS
----------------------------------------------------
CHARGE
  0 Lis       :     2.091721  s :     2.091721
      pz      :     0.306398  p :     0.515269
      px      :     0.104436
      py      :     0.104436
      dz2     :     0.180134  d :     0.385133
      dxz     :     0.102500
      dyz     :     0.102500
      dx2y2   :     0.000000
      dxy     :     0.000000
      f0      :     0.082049  f :     0.216413
      f+1     :     0.067182
      f-1     :     0.067182
      f+2     :     0.000000
      f-2     :     0.000000
      f+3     :     0.000000
      f-3     :     0.000000
      g0      :     0.013808  g :     0.032743
      g+1     :     0.009468
      g-1     :     0.009468
      g+2     :     0.000000
      g-2     :     0.000000
      g+3     :     0.000000
      g-3     :     0.000000
      g+4     :     0.000000
      g-4     :     0.000000
  1 Cls       :     5.538627  s :     5.538627
      pz      :     3.707075  p :    11.132303
      px      :     3.712614
      py      :     3.712614
      dz2     :     0.021147  d :     0.024584
      dxz     :     0.001719
      dyz     :     0.001719
      dx2y2   :     0.000000
      dxy     :     0.000000
      f0      :     0.018147  f :     0.020064
      f+1     :     0.000958
      f-1     :     0.000958
      f+2     :     0.000000
      f-2     :     0.000000
      f+3     :     0.000000
      f-3     :     0.000000
      g0      :     0.020766  g :     0.022450
      g+1     :     0.000842
      g-1     :     0.000842
      g+2     :     0.000000
      g-2     :     0.000000
      g+3     :     0.000000
      g-3     :     0.000000
      g+4     :     0.000000
      g-4     :     0.000000
      h0      :     0.020128  h :     0.020692
      h+1     :     0.000282
      h-1     :     0.000282
      h+2     :     0.000000
      h-2     :     0.000000
      h+3     :     0.000000
      h-3     :     0.000000
      h+4     :     0.000000
      h-4     :     0.000000
      h+5     :     0.000000
      h-5     :     0.000000

SPIN
  0 Lis       :     0.000000  s :     0.000000
      pz      :    -0.000000  p :    -0.000000
      px      :    -0.000000
      py      :    -0.000000
      dz2     :    -0.000000  d :    -0.000000
      dxz     :     0.000000
      dyz     :     0.000000
      dx2y2   :    -0.000000
      dxy     :     0.000000
      f0      :     0.000000  f :     0.000000
      f+1     :    -0.000000
      f-1     :     0.000000
      f+2     :    -0.000000
      f-2     :     0.000000
      f+3     :    -0.000000
      f-3     :    -0.000000
      g0      :     0.000000  g :     0.000000
      g+1     :    -0.000000
      g-1     :     0.000000
      g+2     :    -0.000000
      g-2     :     0.000000
      g+3     :     0.000000
      g-3     :    -0.000000
      g+4     :     0.000000
      g-4     :    -0.000000
  1 Cls       :    -0.000000  s :    -0.000000
      pz      :     0.000000  p :     0.000000
      px      :     0.000000
      py      :     0.000000
      dz2     :     0.000000  d :     0.000000
      dxz     :     0.000000
      dyz     :     0.000000
      dx2y2   :     0.000000
      dxy     :     0.000000
      f0      :    -0.000000  f :    -0.000000
      f+1     :    -0.000000
      f-1     :    -0.000000
      f+2     :     0.000000
      f-2     :    -0.000000
      f+3     :    -0.000000
      f-3     :    -0.000000
      g0      :    -0.000000  g :    -0.000000
      g+1     :     0.000000
      g-1     :     0.000000
      g+2     :    -0.000000
      g-2     :     0.000000
      g+3     :    -0.000000
      g-3     :     0.000000
      g+4     :    -0.000000
      g-4     :     0.000000
      h0      :     0.000000  h :     0.000000
      h+1     :    -0.000000
      h-1     :    -0.000000
      h+2     :    -0.000000
      h-2     :     0.000000
      h+3     :    -0.000000
      h-3     :    -0.000000
      h+4     :    -0.000000
      h-4     :     0.000000
      h+5     :     0.000000
      h-5     :     0.000000


                      *****************************
                      * MAYER POPULATION ANALYSIS *
                      *****************************

  NA   - Mulliken gross atomic population
  ZA   - Total nuclear charge
  QA   - Mulliken gross atomic charge
  VA   - Mayer's total valence
  BVA  - Mayer's bonded valence
  FA   - Mayer's free valence

  ATOM       NA         ZA         QA         VA         BVA        FA
  0 Li     2.3912     3.0000     0.6088     0.7048     0.7048    -0.0000
  1 Cl    17.6088    17.0000    -0.6088     0.7048     0.7048    -0.0000

  Mayer bond orders larger than 0.1
B(  0-Li,  1-Cl) :   0.7048 

-------
TIMINGS
-------

Total SCF time: 0 days 0 hours 12 min 2 sec 

Total time                  ....     722.759 sec
Sum of individual times     ....     721.984 sec  ( 99.9%)

Fock matrix formation       ....     718.187 sec  ( 99.4%)
  XC integration            ....      35.920 sec  (  5.0% of F)
    Basis function eval.    ....       4.100 sec  ( 11.4% of XC)
    Density eval.           ....       8.284 sec  ( 23.1% of XC)
    XC-Functional eval.     ....       1.129 sec  (  3.1% of XC)
    XC-Potential eval.      ....      21.640 sec  ( 60.2% of XC)
Diagonalization             ....       0.318 sec  (  0.0%)
Density matrix formation    ....       0.009 sec  (  0.0%)
Population analysis         ....       0.101 sec  (  0.0%)
Initial guess               ....       1.482 sec  (  0.2%)
Orbital Transformation      ....       0.000 sec  (  0.0%)
Orbital Orthonormalization  ....       0.000 sec  (  0.0%)
DIIS solution               ....       0.304 sec  (  0.0%)
Grid generation             ....       1.583 sec  (  0.2%)

-------------------------   --------------------
FINAL SINGLE POINT ENERGY      -467.612306232004
-------------------------   --------------------


                            ***************************************
                            *     ORCA property calculations      *
                            ***************************************

                                    ---------------------
                                    Active property flags
                                    ---------------------
   (+) Dipole Moment
   (+) Polarizability


------------------------------------------------------------------------------
                       ORCA ELECTRIC PROPERTIES CALCULATION
------------------------------------------------------------------------------

Dipole Moment Calculation                       ... on
Quadrupole Moment Calculation                   ... off
Polarizability Calculation                      ... Analytic (CP-SCF)
GBWName                                         ... licl_pbe.gbw
Electron density file                           ... licl_pbe.scfp.tmp
The origin for moment calculation is the CENTER OF MASS  = ( 0.000000,  0.000000  3.193370)

-------------
DIPOLE MOMENT
-------------
                                X             Y             Z
Electronic contribution:     -0.00000       0.00000      -3.74099
Nuclear contribution   :      0.00000       0.00000       1.04827
                        -----------------------------------------
Total Dipole Moment    :     -0.00000       0.00000      -2.69272
                        -----------------------------------------
Magnitude (a.u.)       :      2.69272
Magnitude (Debye)      :      6.84434



--------------------
Rotational spectrum 
--------------------
 
Rotational constants in cm-1:     0.000000     0.711250     0.711250 
Rotational constants in MHz :     0.000000 21322.753260 21322.753260 

 Dipole components along the rotational axes: 
x,y,z [a.u.] :    -2.692717     0.000000    -0.000000 
x,y,z [Debye]:    -6.844343     0.000000    -0.000000 

 
Transforming and storing MO dipole integrals   ... done

                ... starting polarizability calculation

Opening the Dipole integral file               ... (licl_pbe.dmo.tmp) done
Reading Dipole-MO integrals                    ... done
Solving CP-SCF equations                       ... 
------------------------------------------------------------------------------
                           ORCA CP-SCF CALCULATION
------------------------------------------------------------------------------

Input orbitals are from        ... licl_pbe.gbw
Input Perturbation             ... licl_pbe.cpv.tmp
Wavefunction output            ... licl_pbe.cpu.tmp
Perturbation mode              ... Real perturbation (singlet)
Solver                         ... POPLE
Max. number of iterations      ... 200
Convergence tolerance          ... 1.000e-06
Integral handling              ... Direct
Number of perturbations        ... 3
Number of operators            ... 2
Orbital ranges used for CP-SCF:
 Operator 0:  Orbitals   0...  9  to  10...223
 Operator 1:  Orbitals   0...  9  to  10...223
DFT calculation                         ... on
Exchange functional (SCF)               ... PBE
Exchange functional (CP-SCF)            ... PBE
   PBE kappa parameter  XKappa (SCF)    ...  0.804000
   PBE kappa parameter  XKappa (CP-SCF) ...  0.804000
   PBE mue parameter   XMuePBE (SCF)    ...  0.219520
   PBE mue parameter   XMuePBE (CP-SCF) ...  0.219520
Correlation functional (SCF)            ... PBE
Correlation functional (CP-SCF)         ... PBE
   PBE beta parameter CBetaPBE (SCF)    ...  0.066725
   PBE beta parameter CBetaPBE (CP-SCF) ...  0.066725
 LDA part of GGA corr.  LDAOpt (SCF)    ... PW91-LDA
 LDA part of GGA corr.  LDAOpt (CP-SCF) ... PW91-LDA
Variables per vector in CP-SCF ... 4280
Number of vectors sought       ... 3
Recalculating density on grid  ... done
Calculating the xc-kernel      ... done
     CP-SCF ITERATION   0: 
     CP-SCF ITERATION   1:      0.278150103372
     CP-SCF ITERATION   2:      0.011683891240
     CP-SCF ITERATION   3:      0.000038670333
     CP-SCF ITERATION   4:      0.000000632697
done
Reading CP-SCF coefficients                    ... done
Doing the polarizability tensor   ... done
Cleaning up                                    ... done

-------------------------
THE POLARIZABILITY TENSOR
-------------------------

The raw cartesian tensor (atomic units):
   28.86844     -0.00000     -0.00000  
   -0.00000     28.86844     -0.00000  
   -0.00000     -0.00000     31.00119  
diagonalized tensor: 
   28.86844     28.86844     31.00119  

   -0.60799      0.79395     -0.00000  
   -0.79395     -0.60799     -0.00000  
   -0.00000     -0.00000      1.00000  

Isotropic polarizability :  29.57936


Timings for individual modules:

Sum of individual times         ...     1094.214 sec (=  18.237 min)
GTO integral calculation        ...        0.907 sec (=   0.015 min)   0.1 %
SCF iterations                  ...      722.853 sec (=  12.048 min)  66.1 %
Solution of CP-SCF eqns.        ...      370.454 sec (=   6.174 min)  33.9 %
                             ****ORCA TERMINATED NORMALLY****
TOTAL RUN TIME: 0 days 0 hours 18 minutes 16 seconds 231 msec
